 DBCSR| CPU Multiplication driver                                           XSMM
 DBCSR| Multrec recursion limit                                              512
 DBCSR| Multiplication stack size                                           1000
 DBCSR| Maximum elements for images                                    UNLIMITED
 DBCSR| Multiplicative factor virtual images                                   1
 DBCSR| Use multiplication densification                                       T
 DBCSR| Multiplication size stacks                                             3
 DBCSR| Use memory pool for CPU allocation                                     F
 DBCSR| Number of 3D layers                                               SINGLE
 DBCSR| Use MPI memory allocation                                              F
 DBCSR| Use RMA algorithm                                                      F
 DBCSR| Use Communication thread                                               T
 DBCSR| Communication thread load                                             87
 DBCSR| MPI: My node id                                                        0
 DBCSR| MPI: Number of nodes                                                  32
 DBCSR| OMP: Current number of threads                                         1
 DBCSR| OMP: Max number of threads                                             1
 DBCSR| Split modifier for TAS multiplication algorithm                  1.0E+00


  **** **** ******  **  PROGRAM STARTED AT               2023-12-03 02:20:00.374
 ***** ** ***  *** **   PROGRAM STARTED ON                                 cu042
 **    ****   ******    PROGRAM STARTED BY                                 jxzhu
 ***** **    ** ** **   PROGRAM PROCESS ID                                  4838
  **** **  *******  **  PROGRAM STARTED IN /public/home/jxzhu/tmp_calc/04c0855f9
                                           8753fac23fde4df51ba20f3741a9e9a/calc/
                                           task.000.000000

 CP2K| version string:                                       CP2K version 2022.1
 CP2K| source code revision number:                                  git:2caeb6f
 CP2K| cp2kflags: omp libint fftw3 libxc elpa parallel mpi3 scalapack cosma xsmm
 CP2K|             plumed2 spglib mkl sirius libvori libbqb
 CP2K| is freely available from                            https://www.cp2k.org/
 CP2K| Program compiled at                           Mon Jul 3 17:37:06 CST 2023
 CP2K| Program compiled on                                                 mu003
 CP2K| Program compiled for                                                local
 CP2K| Data directory path                             /public/home/jxzhu/basis/
 CP2K| Input file name                                                 input.inp
 
 GLOBAL| Force Environment number                                              1
 GLOBAL| Basis set file name                                        BASIS_MOLOPT
 GLOBAL| Potential file name                                      GTH_POTENTIALS
 GLOBAL| MM Potential file name                                     MM_POTENTIAL
 GLOBAL| Coordinate file name                                          coord.xyz
 GLOBAL| Method name                                                        CP2K
 GLOBAL| Project name                                                       cp2k
 GLOBAL| Run type                                                   ENERGY_FORCE
 GLOBAL| FFT library                                                       FFTW3
 GLOBAL| Diagonalization library                                            ELPA
 GLOBAL| Minimum number of eigenvectors for ELPA usage                        16
 GLOBAL| Orthonormality check for eigenvectors                          DISABLED
 GLOBAL| Matrix multiplication library                                     COSMA
 GLOBAL| All-to-all communication in single precision                          F
 GLOBAL| FFTs using library dependent lengths                                  T
 GLOBAL| Grid backend                                                       AUTO
 GLOBAL| Global print level                                               MEDIUM
 GLOBAL| MPI I/O enabled                                                       T
 GLOBAL| Total number of message passing processes                            32
 GLOBAL| Number of threads for this process                                    1
 GLOBAL| This output is from process                                           0
 GLOBAL| Stack size for threads created by OpenMP (OMP_STACKSIZE)        default
 GLOBAL| CPU model name                 Intel(R) Xeon(R) Gold 6338 CPU @ 2.00GHz
 GLOBAL| CPUID                                                              1003

 MEMORY| system memory details [Kb]
 MEMORY|                        rank 0           min           max       average
 MEMORY| MemTotal            263619172     263619172     263619172     263619172
 MEMORY| MemFree             175108056     175108056     175108676     175108191
 MEMORY| Buffers                  3320          3320          3320          3320
 MEMORY| Cached                8021064       8021064       8021064       8021064
 MEMORY| Slab                  1812308       1812308       1812308       1812308
 MEMORY| SReclaimable           243668        243668        243668        243668
 MEMORY| MemLikelyFree       183376108     183376108     183376728     183376243


 *** Fundamental physical constants (SI units) ***

 *** Literature: B. J. Mohr and B. N. Taylor,
 ***             CODATA recommended values of the fundamental physical
 ***             constants: 2006, Web Version 5.1
 ***             http://physics.nist.gov/constants

 Speed of light in vacuum [m/s]                             2.99792458000000E+08
 Magnetic constant or permeability of vacuum [N/A**2]       1.25663706143592E-06
 Electric constant or permittivity of vacuum [F/m]          8.85418781762039E-12
 Planck constant (h) [J*s]                                  6.62606896000000E-34
 Planck constant (h-bar) [J*s]                              1.05457162825177E-34
 Elementary charge [C]                                      1.60217648700000E-19
 Electron mass [kg]                                         9.10938215000000E-31
 Electron g factor [ ]                                     -2.00231930436220E+00
 Proton mass [kg]                                           1.67262163700000E-27
 Fine-structure constant                                    7.29735253760000E-03
 Rydberg constant [1/m]                                     1.09737315685270E+07
 Avogadro constant [1/mol]                                  6.02214179000000E+23
 Boltzmann constant [J/K]                                   1.38065040000000E-23
 Atomic mass unit [kg]                                      1.66053878200000E-27
 Bohr radius [m]                                            5.29177208590000E-11

 *** Conversion factors ***

 [u] -> [a.u.]                                              1.82288848426455E+03
 [Angstrom] -> [Bohr] = [a.u.]                              1.88972613288564E+00
 [a.u.] = [Bohr] -> [Angstrom]                              5.29177208590000E-01
 [a.u.] -> [s]                                              2.41888432650478E-17
 [a.u.] -> [fs]                                             2.41888432650478E-02
 [a.u.] -> [J]                                              4.35974393937059E-18
 [a.u.] -> [N]                                              8.23872205491840E-08
 [a.u.] -> [K]                                              3.15774647902944E+05
 [a.u.] -> [kJ/mol]                                         2.62549961709828E+03
 [a.u.] -> [kcal/mol]                                       6.27509468713739E+02
 [a.u.] -> [Pa]                                             2.94210107994716E+13
 [a.u.] -> [bar]                                            2.94210107994716E+08
 [a.u.] -> [atm]                                            2.90362800883016E+08
 [a.u.] -> [eV]                                             2.72113838565563E+01
 [a.u.] -> [Hz]                                             6.57968392072181E+15
 [a.u.] -> [1/cm] (wave numbers)                            2.19474631370540E+05
 [a.u./Bohr**2] -> [1/cm]                                   5.14048714338585E+03
 

 CELL_TOP| Volume [angstrom^3]:                                     12686.086737
 CELL_TOP| Vector a [angstrom    16.869     0.000     0.000   |a| =    16.869000
 CELL_TOP| Vector b [angstrom    -8.434    14.609     0.000   |b| =    16.868929
 CELL_TOP| Vector c [angstrom     0.000     0.000    51.478   |c| =    51.477900
 CELL_TOP| Angle (b,c), alpha [degree]:                                90.000000
 CELL_TOP| Angle (a,c), beta  [degree]:                                90.000000
 CELL_TOP| Angle (a,b), gamma [degree]:                               120.000140
 CELL_TOP| Numerically orthorhombic:                                          NO
 
 GENERATE|  Preliminary Number of Bonds generated:                             0
 GENERATE|  Achieved consistency in connectivity generation.

 CELL| Volume [angstrom^3]:                                         12686.086737
 CELL| Vector a [angstrom]:      16.869     0.000     0.000   |a| =    16.869000
 CELL| Vector b [angstrom]:      -8.434    14.609     0.000   |b| =    16.868929
 CELL| Vector c [angstrom]:       0.000     0.000    51.478   |c| =    51.477900
 CELL| Angle (b,c), alpha [degree]:                                    90.000000
 CELL| Angle (a,c), beta  [degree]:                                    90.000000
 CELL| Angle (a,b), gamma [degree]:                                   120.000140
 CELL| Numerically orthorhombic:                                              NO

 CELL_REF| Volume [angstrom^3]:                                     12686.086737
 CELL_REF| Vector a [angstrom    16.869     0.000     0.000   |a| =    16.869000
 CELL_REF| Vector b [angstrom    -8.434    14.609     0.000   |b| =    16.868929
 CELL_REF| Vector c [angstrom     0.000     0.000    51.478   |c| =    51.477900
 CELL_REF| Angle (b,c), alpha [degree]:                                90.000000
 CELL_REF| Angle (a,c), beta  [degree]:                                90.000000
 CELL_REF| Angle (a,b), gamma [degree]:                               120.000140
 CELL_REF| Numerically orthorhombic:                                          NO

 *******************************************************************************
 *******************************************************************************
 **                                                                           **
 **     #####                         ##              ##                      **
 **    ##   ##            ##          ##              ##                      **
 **   ##     ##                       ##            ######                    **
 **   ##     ##  ##   ##  ##   #####  ##  ##   ####   ##    #####    #####    **
 **   ##     ##  ##   ##  ##  ##      ## ##   ##      ##   ##   ##  ##   ##   **
 **   ##  ## ##  ##   ##  ##  ##      ####     ###    ##   ######   ######    **
 **    ##  ###   ##   ##  ##  ##      ## ##      ##   ##   ##       ##        **
 **     #######   #####   ##   #####  ##  ##  ####    ##    #####   ##        **
 **           ##                                                    ##        **
 **                                                                           **
 **                                                ... make the atoms dance   **
 **                                                                           **
 **            Copyright (C) by CP2K developers group (2000-2022)             **
 **                      J. Chem. Phys. 152, 194103 (2020)                    **
 **                                                                           **
 *******************************************************************************

 DFT| Spin restricted Kohn-Sham (RKS) calculation                            RKS
 DFT| Multiplicity                                                             1
 DFT| Number of spin states                                                    1
 DFT| Charge                                                                   0
 DFT| Self-interaction correction (SIC)                                       NO
 DFT| Cutoffs: density                                              1.000000E-10
 DFT|          gradient                                             1.000000E-10
 DFT|          tau                                                  1.000000E-10
 DFT|          cutoff_smoothing_range                               0.000000E+00
 DFT| XC density smoothing                                                  NONE
 DFT| XC derivatives                                                          PW

 FUNCTIONAL| PBE:
 FUNCTIONAL| J.P.Perdew, K.Burke, M.Ernzerhof, Phys. Rev. Letter, vol. 77, n 18,
 FUNCTIONAL|  pp. 3865-3868, (1996){spin unpolarized}                           

 vdW POTENTIAL|                                                   Pair Potential
 vdW POTENTIAL|          DFT-D3 (Version 3.1)
 vdW POTENTIAL|          Potential Form: S. Grimme et al, JCP 132: 154104 (2010)
 vdW POTENTIAL|          Zero Damping
 vdW POTENTIAL|          Cutoff Radius [Bohr]:                             20.00
 vdW POTENTIAL|          s6 Scaling Factor:                               1.0000
 vdW POTENTIAL|          sr6 Scaling Factor:                              1.2170
 vdW POTENTIAL|          s8 Scaling Factor:                               0.7220
 vdW POTENTIAL|          Cutoff for CN calculation:                   0.1000E-05

 QS| Method:                                                                 GPW
 QS| Density plane wave grid type                        NON-SPHERICAL FULLSPACE
 QS| Number of grid levels:                                                    4
 QS| Density cutoff [a.u.]:                                                200.0
 QS| Multi grid cutoff [a.u.]: 1) grid level                               200.0
 QS|                           2) grid level                                66.7
 QS|                           3) grid level                                22.2
 QS|                           4) grid level                                 7.4
 QS| Grid level progression factor:                                          3.0
 QS| Relative density cutoff [a.u.]:                                        20.0
 QS| Interaction thresholds: eps_pgf_orb:                                3.2E-07
 QS|                         eps_filter_matrix:                          0.0E+00
 QS|                         eps_core_charge:                            1.0E-15
 QS|                         eps_rho_gspace:                             1.0E-13
 QS|                         eps_rho_rspace:                             1.0E-13
 QS|                         eps_gvg_rspace:                             3.2E-07
 QS|                         eps_ppl:                                    1.0E-02
 QS|                         eps_ppnl:                                   3.2E-09


 ATOMIC KIND INFORMATION

  1. Atomic kind: Pt                                    Number of atoms:     216

     Orbital Basis Set                      DZVP-A5-Q10-323-MOL-T1-DERIVED_SET-1

       Number of orbital shell sets:                                           1
       Number of orbital shells:                                               6
       Number of primitive Cartesian functions:                                5
       Number of Cartesian basis functions:                                   23
       Number of spherical basis functions:                                   20
       Norm type:                                                              2

       Normalised Cartesian orbitals:

                        Set   Shell   Orbital            Exponent    Coefficient

                          1       1    2s                2.521825       0.177473
                                                         1.453920      -0.063399
                                                         0.614053      -0.407089
                                                         0.232656       0.262254
                                                         0.074788       0.047371

                          1       2    3s                2.521825      -0.049056
                                                         1.453920       0.044904
                                                         0.614053      -0.009756
                                                         0.232656      -0.144709
                                                         0.074788       0.144085

                          1       3    3px               2.521825      -0.317572
                                                         1.453920       0.534826
                                                         0.614053      -0.489458
                                                         0.232656       0.245631
                                                         0.074788       0.018221
                          1       3    3py               2.521825      -0.317572
                                                         1.453920       0.534826
                                                         0.614053      -0.489458
                                                         0.232656       0.245631
                                                         0.074788       0.018221
                          1       3    3pz               2.521825      -0.317572
                                                         1.453920       0.534826
                                                         0.614053      -0.489458
                                                         0.232656       0.245631
                                                         0.074788       0.018221

                          1       4    4dx2              2.521825       3.008522
                                                         1.453920      -1.224251
                                                         0.614053       0.225691
                                                         0.232656       0.125144
                                                         0.074788      -0.015348
                          1       4    4dxy              2.521825       5.210912
                                                         1.453920      -2.120465
                                                         0.614053       0.390909
                                                         0.232656       0.216756
                                                         0.074788      -0.026584
                          1       4    4dxz              2.521825       5.210912
                                                         1.453920      -2.120465
                                                         0.614053       0.390909
                                                         0.232656       0.216756
                                                         0.074788      -0.026584
                          1       4    4dy2              2.521825       3.008522
                                                         1.453920      -1.224251
                                                         0.614053       0.225691
                                                         0.232656       0.125144
                                                         0.074788      -0.015348
                          1       4    4dyz              2.521825       5.210912
                                                         1.453920      -2.120465
                                                         0.614053       0.390909
                                                         0.232656       0.216756
                                                         0.074788      -0.026584
                          1       4    4dz2              2.521825       3.008522
                                                         1.453920      -1.224251
                                                         0.614053       0.225691
                                                         0.232656       0.125144
                                                         0.074788      -0.015348

                          1       5    5dx2              2.521825       0.698026
                                                         1.453920      -1.511486
                                                         0.614053      -0.335394
                                                         0.232656      -0.025564
                                                         0.074788      -0.002699
                          1       5    5dxy              2.521825       1.209017
                                                         1.453920      -2.617970
                                                         0.614053      -0.580920
                                                         0.232656      -0.044277
                                                         0.074788      -0.004674
                          1       5    5dxz              2.521825       1.209017
                                                         1.453920      -2.617970
                                                         0.614053      -0.580920
                                                         0.232656      -0.044277
                                                         0.074788      -0.004674
                          1       5    5dy2              2.521825       0.698026
                                                         1.453920      -1.511486
                                                         0.614053      -0.335394
                                                         0.232656      -0.025564
                                                         0.074788      -0.002699
                          1       5    5dyz              2.521825       1.209017
                                                         1.453920      -2.617970
                                                         0.614053      -0.580920
                                                         0.232656      -0.044277
                                                         0.074788      -0.004674
                          1       5    5dz2              2.521825       0.698026
                                                         1.453920      -1.511486
                                                         0.614053      -0.335394
                                                         0.232656      -0.025564
                                                         0.074788      -0.002699

                          1       6    6dx2              2.521825       0.831079
                                                         1.453920      -0.709226
                                                         0.614053      -0.137351
                                                         0.232656       0.068642
                                                         0.074788       0.011745
                          1       6    6dxy              2.521825       1.439472
                                                         1.453920      -1.228415
                                                         0.614053      -0.237899
                                                         0.232656       0.118891
                                                         0.074788       0.020343
                          1       6    6dxz              2.521825       1.439472
                                                         1.453920      -1.228415
                                                         0.614053      -0.237899
                                                         0.232656       0.118891
                                                         0.074788       0.020343
                          1       6    6dy2              2.521825       0.831079
                                                         1.453920      -0.709226
                                                         0.614053      -0.137351
                                                         0.232656       0.068642
                                                         0.074788       0.011745
                          1       6    6dyz              2.521825       1.439472
                                                         1.453920      -1.228415
                                                         0.614053      -0.237899
                                                         0.232656       0.118891
                                                         0.074788       0.020343
                          1       6    6dz2              2.521825       0.831079
                                                         1.453920      -0.709226
                                                         0.614053      -0.137351
                                                         0.232656       0.068642
                                                         0.074788       0.011745

       Atomic covalent radius [Angstrom]:                                  1.300

       Atomic van der Waals radius [Angstrom]:                             1.750

     GTH Potential information for                                   GTH-PBE-q10

       Description:                       Goedecker-Teter-Hutter pseudopotential
                                           Goedecker et al., PRB 54, 1703 (1996)
                                          Hartwigsen et al., PRB 58, 3641 (1998)
                                                      Krack, TCA 114, 145 (2005)

       Gaussian exponent of the core charge distribution:               1.317676
       Electronic configuration (s p d ...):                           1   0   9

       Parameters of the local part of the GTH pseudopotential:

                          rloc        C1          C2          C3          C4
                        0.616000   11.313635

       Parameters of the non-local part of the GTH pseudopotential:

                   l      r(l)      h(i,j,l)

                   0    0.550904    4.733491   -1.784594
                                   -1.784594    2.303901
                   1    0.674138    2.534798   -1.778066
                                   -1.778066    2.103836
                   2    0.457392   -7.264011    2.558665
                                    2.558665   -2.901253


 MOLECULE KIND INFORMATION


 All atoms are their own molecule, skipping detailed information


 TOTAL NUMBERS AND MAXIMUM NUMBERS

  Total number of            - Atomic kinds:                                   1
                             - Atoms:                                        216
                             - Shell sets:                                   216
                             - Shells:                                      1296
                             - Primitive Cartesian functions:               1080
                             - Cartesian basis functions:                   4968
                             - Spherical basis functions:                   4320

  Maximum angular momentum of- Orbital basis functions:                        2
                             - Local part of the GTH pseudopotential:          0
                             - Non-local part of the GTH pseudopotential:      4


 MODULE QUICKSTEP:  ATOMIC COORDINATES IN angstrom

 Atom  Kind  Element       X           Y           Z          Z(eff)       Mass
    1   1 Pt  78       2.030757    0.399470   19.819938      10.0000    195.0840
    2   1 Pt  78       4.880757    0.429470   19.889938      10.0000    195.0840
    3   1 Pt  78       7.630757    0.289470   19.789935      10.0000    195.0840
    4   1 Pt  78      10.480758    0.379470   19.949935      10.0000    195.0840
    5   1 Pt  78      13.310758    0.309470   19.879935      10.0000    195.0840
    6   1 Pt  78      16.260758    0.439470   19.779933      10.0000    195.0840
    7   1 Pt  78       3.530757    2.899471   19.829936      10.0000    195.0840
    8   1 Pt  78       6.190757    2.789471   19.979938      10.0000    195.0840
    9   1 Pt  78       9.040757    2.879471   19.839934      10.0000    195.0840
   10   1 Pt  78      11.920758    2.769471   19.969936      10.0000    195.0840
   11   1 Pt  78      14.710758    2.839471   20.029937      10.0000    195.0840
   12   1 Pt  78       0.750757    2.819471   19.719936      10.0000    195.0840
   13   1 Pt  78       4.840757    5.429471   19.829936      10.0000    195.0840
   14   1 Pt  78       7.700757    5.149471   19.999934      10.0000    195.0840
   15   1 Pt  78      10.590757    5.249470   20.039935      10.0000    195.0840
   16   1 Pt  78      13.450758    5.339471   19.919936      10.0000    195.0840
   17   1 Pt  78      -0.739243    5.339471   19.889938      10.0000    195.0840
   18   1 Pt  78       2.060757    5.269471   19.809936      10.0000    195.0840
   19   1 Pt  78       6.370757    7.689471   19.869933      10.0000    195.0840
   20   1 Pt  78       9.170757    7.619471   19.859935      10.0000    195.0840
   21   1 Pt  78      11.930757    7.629471   19.959937      10.0000    195.0840
   22   1 Pt  78      -2.059243    7.769471   19.939933      10.0000    195.0840
   23   1 Pt  78       0.580757    7.769471   19.899936      10.0000    195.0840
   24   1 Pt  78       3.310757    7.749470   19.869933      10.0000    195.0840
   25   1 Pt  78       7.790757   10.149471   19.889938      10.0000    195.0840
   26   1 Pt  78      10.720757   10.089471   19.639934      10.0000    195.0840
   27   1 Pt  78      -3.499243   10.149471   19.829936      10.0000    195.0840
   28   1 Pt  78      -0.699243   10.379471   19.839934      10.0000    195.0840
   29   1 Pt  78       2.050757   10.179472   19.919936      10.0000    195.0840
   30   1 Pt  78       4.990757   10.199471   20.059936      10.0000    195.0840
   31   1 Pt  78       9.100758   12.489471   19.919936      10.0000    195.0840
   32   1 Pt  78      -4.929244   12.629471   19.949935      10.0000    195.0840
   33   1 Pt  78      -2.109243   12.549472   19.809936      10.0000    195.0840
   34   1 Pt  78       0.720757   12.569471   19.939933      10.0000    195.0840
   35   1 Pt  78       3.610757   12.589471   19.959937      10.0000    195.0840
   36   1 Pt  78       6.340757   12.579471   19.989936      10.0000    195.0840
   37   1 Pt  78       0.770757    1.319470   22.219936      10.0000    195.0840
   38   1 Pt  78       3.550757    1.169470   22.169936      10.0000    195.0840
   39   1 Pt  78       6.330757    1.199470   22.309936      10.0000    195.0840
   40   1 Pt  78       9.090757    1.199470   22.219936      10.0000    195.0840
   41   1 Pt  78      11.900758    1.149470   22.329936      10.0000    195.0840
   42   1 Pt  78      14.720757    1.359471   22.259936      10.0000    195.0840
   43   1 Pt  78       2.050757    3.749470   22.149936      10.0000    195.0840
   44   1 Pt  78       4.920757    3.649471   22.109935      10.0000    195.0840
   45   1 Pt  78       7.710757    3.539470   22.259936      10.0000    195.0840
   46   1 Pt  78      10.380757    3.559471   22.359935      10.0000    195.0840
   47   1 Pt  78      13.270758    3.689471   22.279933      10.0000    195.0840
   48   1 Pt  78      -0.739243    3.599471   22.209933      10.0000    195.0840
   49   1 Pt  78       3.510757    6.119471   22.129935      10.0000    195.0840
   50   1 Pt  78       6.280757    6.119471   22.229934      10.0000    195.0840
   51   1 Pt  78       9.110758    6.079470   22.269935      10.0000    195.0840
   52   1 Pt  78      11.870758    6.079470   22.269935      10.0000    195.0840
   53   1 Pt  78      -2.189243    6.239471   22.289935      10.0000    195.0840
   54   1 Pt  78       0.680757    6.039470   22.229934      10.0000    195.0840
   55   1 Pt  78       4.910757    8.539471   22.299934      10.0000    195.0840
   56   1 Pt  78       7.580758    8.519471   22.249938      10.0000    195.0840
   57   1 Pt  78      10.510757    8.539471   22.179935      10.0000    195.0840
   58   1 Pt  78      -3.489243    8.569471   22.209933      10.0000    195.0840
   59   1 Pt  78      -0.589243    8.579470   22.309936      10.0000    195.0840
   60   1 Pt  78       2.090757    8.619470   22.239936      10.0000    195.0840
   61   1 Pt  78       6.310757   11.049471   22.329936      10.0000    195.0840
   62   1 Pt  78       9.030757   10.939471   22.199935      10.0000    195.0840
   63   1 Pt  78      -4.949243   10.919471   22.249938      10.0000    195.0840
   64   1 Pt  78      -2.229243   11.079470   22.199935      10.0000    195.0840
   65   1 Pt  78       0.740757   11.009471   22.259936      10.0000    195.0840
   66   1 Pt  78       3.480757   11.009471   22.359935      10.0000    195.0840
   67   1 Pt  78       7.730758   13.669471   22.269935      10.0000    195.0840
   68   1 Pt  78      -6.459243   13.359471   22.179935      10.0000    195.0840
   69   1 Pt  78      -3.609243   13.399470   22.229934      10.0000    195.0840
   70   1 Pt  78      -0.719243   13.379471   22.309936      10.0000    195.0840
   71   1 Pt  78       2.060757   13.299471   22.259936      10.0000    195.0840
   72   1 Pt  78       4.890758   13.469472   22.259936      10.0000    195.0840
   73   1 Pt  78      -7.809243   14.249470   24.509936      10.0000    195.0840
   74   1 Pt  78      -4.979243   14.279471   24.419936      10.0000    195.0840
   75   1 Pt  78      -2.129243   14.189472   24.549934      10.0000    195.0840
   76   1 Pt  78       0.600757   14.129471   24.589934      10.0000    195.0840
   77   1 Pt  78       3.440757   14.219471   24.579936      10.0000    195.0840
   78   1 Pt  78       6.260757   14.309472   24.689933      10.0000    195.0840
   79   1 Pt  78       2.010757    2.199470   24.499938      10.0000    195.0840
   80   1 Pt  78       4.880757    2.179470   24.579936      10.0000    195.0840
   81   1 Pt  78       7.710757    2.099471   24.679935      10.0000    195.0840
   82   1 Pt  78      10.460757    1.909471   24.599937      10.0000    195.0840
   83   1 Pt  78      13.370757    2.049470   24.669936      10.0000    195.0840
   84   1 Pt  78      -0.779243    2.059470   24.569938      10.0000    195.0840
   85   1 Pt  78       3.560757    4.589471   24.519935      10.0000    195.0840
   86   1 Pt  78       6.290758    4.559471   24.549934      10.0000    195.0840
   87   1 Pt  78       9.190757    4.529471   24.649936      10.0000    195.0840
   88   1 Pt  78      11.840757    4.509471   24.619933      10.0000    195.0840
   89   1 Pt  78      -2.199243    4.479470   24.559936      10.0000    195.0840
   90   1 Pt  78       0.690757    4.489471   24.549934      10.0000    195.0840
   91   1 Pt  78       4.890758    7.029471   24.579936      10.0000    195.0840
   92   1 Pt  78       7.650757    6.909471   24.579936      10.0000    195.0840
   93   1 Pt  78      10.450757    7.099471   24.519935      10.0000    195.0840
   94   1 Pt  78      -3.689243    6.949471   24.569938      10.0000    195.0840
   95   1 Pt  78      -0.689243    6.929471   24.639938      10.0000    195.0840
   96   1 Pt  78       2.080757    6.929471   24.529937      10.0000    195.0840
   97   1 Pt  78       6.260757    9.479471   24.579936      10.0000    195.0840
   98   1 Pt  78       9.090757    9.399471   24.459937      10.0000    195.0840
   99   1 Pt  78      -4.919243    9.429471   24.439937      10.0000    195.0840
  100   1 Pt  78      -2.159243    9.309471   24.489936      10.0000    195.0840
  101   1 Pt  78       0.780757    9.319470   24.579936      10.0000    195.0840
  102   1 Pt  78       3.480757    9.429471   24.629935      10.0000    195.0840
  103   1 Pt  78       7.650757   11.869470   24.599937      10.0000    195.0840
  104   1 Pt  78      -6.469243   11.859471   24.439937      10.0000    195.0840
  105   1 Pt  78      -3.569243   11.819470   24.569938      10.0000    195.0840
  106   1 Pt  78      -0.779243   11.739470   24.539935      10.0000    195.0840
  107   1 Pt  78       2.000757   11.859471   24.639938      10.0000    195.0840
  108   1 Pt  78       4.780757   11.909471   24.589934      10.0000    195.0840
  109   1 Pt  78       2.050757    0.479470   26.747934      10.0000    195.0840
  110   1 Pt  78       4.910757    0.359470   26.717934      10.0000    195.0840
  111   1 Pt  78       7.650757    0.439470   26.877934      10.0000    195.0840
  112   1 Pt  78      10.360758    0.429470   26.957934      10.0000    195.0840
  113   1 Pt  78      13.240758    0.379470   26.967934      10.0000    195.0840
  114   1 Pt  78      15.970757    0.439470   26.907934      10.0000    195.0840
  115   1 Pt  78       3.500757    2.809471   26.847934      10.0000    195.0840
  116   1 Pt  78       6.180757    2.919470   26.947934      10.0000    195.0840
  117   1 Pt  78       8.970757    2.959470   26.907934      10.0000    195.0840
  118   1 Pt  78      11.790757    2.819471   26.917934      10.0000    195.0840
  119   1 Pt  78      14.640758    2.819471   26.977934      10.0000    195.0840
  120   1 Pt  78       0.610757    2.809471   26.927934      10.0000    195.0840
  121   1 Pt  78       4.780757    5.349470   26.867934      10.0000    195.0840
  122   1 Pt  78       7.590757    5.449471   26.867934      10.0000    195.0840
  123   1 Pt  78      10.360758    5.389471   26.927934      10.0000    195.0840
  124   1 Pt  78      13.130757    5.259471   26.847934      10.0000    195.0840
  125   1 Pt  78      -0.769243    5.269471   26.847934      10.0000    195.0840
  126   1 Pt  78       2.130757    5.209470   26.817934      10.0000    195.0840
  127   1 Pt  78       6.230757    7.819471   26.897934      10.0000    195.0840
  128   1 Pt  78       9.060758    7.819471   26.887934      10.0000    195.0840
  129   1 Pt  78      11.870758    7.769471   26.867934      10.0000    195.0840
  130   1 Pt  78      -2.239243    7.679471   26.877934      10.0000    195.0840
  131   1 Pt  78       0.640757    7.639471   26.897934      10.0000    195.0840
  132   1 Pt  78       3.460757    7.769471   26.887934      10.0000    195.0840
  133   1 Pt  78       7.630757   10.289470   26.807934      10.0000    195.0840
  134   1 Pt  78      10.430758   10.209470   26.727934      10.0000    195.0840
  135   1 Pt  78      -3.549243   10.189471   26.767934      10.0000    195.0840
  136   1 Pt  78      -0.789243   10.099471   26.937934      10.0000    195.0840
  137   1 Pt  78       1.920757   10.249471   27.007934      10.0000    195.0840
  138   1 Pt  78       4.790757   10.179472   26.847934      10.0000    195.0840
  139   1 Pt  78       9.010757   12.689471   26.887934      10.0000    195.0840
  140   1 Pt  78      -5.089243   12.529471   26.597934      10.0000    195.0840
  141   1 Pt  78      -2.189243   12.539471   26.907934      10.0000    195.0840
  142   1 Pt  78       0.500757   12.519471   26.937934      10.0000    195.0840
  143   1 Pt  78       3.300757   12.659470   27.047934      10.0000    195.0840
  144   1 Pt  78       6.170757   12.679472   26.957934      10.0000    195.0840
  145   1 Pt  78       0.560757    1.169470   29.217934      10.0000    195.0840
  146   1 Pt  78       3.370757    1.209471   29.017934      10.0000    195.0840
  147   1 Pt  78       6.200758    1.229470   29.117934      10.0000    195.0840
  148   1 Pt  78       9.070758    1.249470   29.157934      10.0000    195.0840
  149   1 Pt  78      11.730758    1.189470   29.347934      10.0000    195.0840
  150   1 Pt  78      14.540757    1.169470   29.287934      10.0000    195.0840
  151   1 Pt  78       1.930757    3.679470   29.207934      10.0000    195.0840
  152   1 Pt  78       4.750757    3.629471   29.057934      10.0000    195.0840
  153   1 Pt  78       7.600758    3.779471   29.187934      10.0000    195.0840
  154   1 Pt  78      10.400758    3.689471   29.187934      10.0000    195.0840
  155   1 Pt  78      13.280758    3.619471   29.147934      10.0000    195.0840
  156   1 Pt  78      -0.759243    3.729471   29.147934      10.0000    195.0840
  157   1 Pt  78       3.460757    6.159471   29.177934      10.0000    195.0840
  158   1 Pt  78       6.130757    6.139471   29.207934      10.0000    195.0840
  159   1 Pt  78       9.010757    6.189471   29.217934      10.0000    195.0840
  160   1 Pt  78      11.880757    6.139471   29.237934      10.0000    195.0840
  161   1 Pt  78      -2.129243    6.049471   29.167934      10.0000    195.0840
  162   1 Pt  78       0.740757    6.089471   29.247934      10.0000    195.0840
  163   1 Pt  78       4.810757    8.569471   29.117934      10.0000    195.0840
  164   1 Pt  78       7.650757    8.619470   29.217934      10.0000    195.0840
  165   1 Pt  78      10.410758    8.499471   29.097934      10.0000    195.0840
  166   1 Pt  78      -3.579243    8.489470   29.187934      10.0000    195.0840
  167   1 Pt  78      -0.779243    8.389471   29.147934      10.0000    195.0840
  168   1 Pt  78       1.980757    8.489470   29.137934      10.0000    195.0840
  169   1 Pt  78       6.300757   10.979471   29.237934      10.0000    195.0840
  170   1 Pt  78       9.180758   10.939471   29.257934      10.0000    195.0840
  171   1 Pt  78      -5.009243   10.949470   29.077934      10.0000    195.0840
  172   1 Pt  78      -2.249243   10.979471   29.147934      10.0000    195.0840
  173   1 Pt  78       0.430757   10.889472   29.297934      10.0000    195.0840
  174   1 Pt  78       3.380757   10.989471   29.217934      10.0000    195.0840
  175   1 Pt  78       7.720757   13.379471   29.307934      10.0000    195.0840
  176   1 Pt  78      -6.389243   13.369471   29.027934      10.0000    195.0840
  177   1 Pt  78      -3.649243   13.519471   29.227934      10.0000    195.0840
  178   1 Pt  78      -0.849243   13.369471   29.287934      10.0000    195.0840
  179   1 Pt  78       1.990757   13.349471   29.247934      10.0000    195.0840
  180   1 Pt  78       4.820757   13.319472   29.367934      10.0000    195.0840
  181   1 Pt  78      -7.799243   14.229471   31.547934      10.0000    195.0840
  182   1 Pt  78      -5.029243   14.279471   31.397934      10.0000    195.0840
  183   1 Pt  78      -2.049243   14.319470   31.477934      10.0000    195.0840
  184   1 Pt  78       0.730757   14.299471   31.507934      10.0000    195.0840
  185   1 Pt  78       3.420757   14.179471   31.767934      10.0000    195.0840
  186   1 Pt  78       6.160758   14.219471   31.607934      10.0000    195.0840
  187   1 Pt  78       2.090757    2.019471   31.457934      10.0000    195.0840
  188   1 Pt  78       4.940757    2.099471   31.467934      10.0000    195.0840
  189   1 Pt  78       7.790757    1.969471   31.527934      10.0000    195.0840
  190   1 Pt  78      10.550757    2.199470   31.587934      10.0000    195.0840
  191   1 Pt  78      13.330758    2.099471   31.657934      10.0000    195.0840
  192   1 Pt  78      -0.819243    2.039471   31.407935      10.0000    195.0840
  193   1 Pt  78       3.490757    4.479470   31.347934      10.0000    195.0840
  194   1 Pt  78       6.300757    4.549471   31.457934      10.0000    195.0840
  195   1 Pt  78       9.110758    4.499470   31.507934      10.0000    195.0840
  196   1 Pt  78      11.960757    4.629471   31.567934      10.0000    195.0840
  197   1 Pt  78      -2.179243    4.559471   31.387934      10.0000    195.0840
  198   1 Pt  78       0.620757    4.439470   31.637934      10.0000    195.0840
  199   1 Pt  78       4.640758    6.839471   31.517934      10.0000    195.0840
  200   1 Pt  78       7.560757    6.959470   31.547934      10.0000    195.0840
  201   1 Pt  78      10.420757    7.039471   31.597934      10.0000    195.0840
  202   1 Pt  78      -3.589243    6.869470   31.457934      10.0000    195.0840
  203   1 Pt  78      -0.759243    6.819471   31.507934      10.0000    195.0840
  204   1 Pt  78       2.030757    6.929471   31.837934      10.0000    195.0840
  205   1 Pt  78       6.050757    9.299471   31.317934      10.0000    195.0840
  206   1 Pt  78       8.950757    9.339471   31.457934      10.0000    195.0840
  207   1 Pt  78      -4.989243    9.379471   31.357934      10.0000    195.0840
  208   1 Pt  78      -2.289243    9.349471   31.457934      10.0000    195.0840
  209   1 Pt  78       0.700757    9.189471   31.457934      10.0000    195.0840
  210   1 Pt  78       3.350757    9.309471   31.667934      10.0000    195.0840
  211   1 Pt  78       7.630757   11.829471   31.627934      10.0000    195.0840
  212   1 Pt  78      -6.429243   11.919470   31.507934      10.0000    195.0840
  213   1 Pt  78      -3.599243   11.849471   31.547934      10.0000    195.0840
  214   1 Pt  78      -0.749243   11.659471   31.537934      10.0000    195.0840
  215   1 Pt  78       2.020757   11.739470   31.447934      10.0000    195.0840
  216   1 Pt  78       4.780757   11.719471   31.657934      10.0000    195.0840




 SCF PARAMETERS         Density guess:                                   RESTART
                        --------------------------------------------------------
                        max_scf:                                             500
                        max_scf_history:                                       0
                        max_diis:                                              4
                        --------------------------------------------------------
                        eps_scf:                                        1.00E-06
                        eps_scf_history:                                0.00E+00
                        eps_diis:                                       1.00E-01
                        eps_eigval:                                     1.00E-05
                        --------------------------------------------------------
                        level_shift [a.u.]:                             0.000000
                        added MOs                                       500    0
                        --------------------------------------------------------
                        Mixing method:                            BROYDEN_MIXING
                                                charge density mixing in g-space
                        --------------------------------------------------------
                        Smear method:                                FERMI_DIRAC
                        Electronic temperature [K]:                        300.0
                        Electronic temperature [a.u.]:                  9.50E-04
                        Accuracy threshold:                             1.00E-10
                        --------------------------------------------------------
                        No outer SCF

 PW_GRID| Information for grid number                                          1
 PW_GRID| Grid distributed over                                    32 processors
 PW_GRID| Real space group dimensions                                    32    1
 PW_GRID| the grid is blocked:                                                NO
 PW_GRID| Cutoff [a.u.]                                                    200.0
 PW_GRID| spherical cutoff:                                                   NO
 PW_GRID|   Bounds   1           -105     104                Points:         210
 PW_GRID|   Bounds   2           -105     104                Points:         210
 PW_GRID|   Bounds   3           -315     314                Points:         630
 PW_GRID| Volume element (a.u.^3)  0.3081E-02     Volume (a.u.^3)     85609.9578
 PW_GRID| Grid span                                                    FULLSPACE
 PW_GRID|   Distribution                         Average         Max         Min
 PW_GRID|   G-Vectors                           868218.8      868350      868140
 PW_GRID|   G-Rays                                4134.4        4135        4134
 PW_GRID|   Real Space Points                   868218.8      926100      793800

 PW_GRID| Information for grid number                                          2
 PW_GRID| Number of the reference grid                                         1
 PW_GRID| Grid distributed over                                    32 processors
 PW_GRID| Real space group dimensions                                    32    1
 PW_GRID| the grid is blocked:                                                NO
 PW_GRID| Cutoff [a.u.]                                                     66.7
 PW_GRID| spherical cutoff:                                                   NO
 PW_GRID|   Bounds   1            -60      59                Points:         120
 PW_GRID|   Bounds   2            -60      59                Points:         120
 PW_GRID|   Bounds   3           -180     179                Points:         360
 PW_GRID| Volume element (a.u.^3)  0.1651E-01     Volume (a.u.^3)     85609.9578
 PW_GRID| Grid span                                                    FULLSPACE
 PW_GRID|   Distribution                         Average         Max         Min
 PW_GRID|   G-Vectors                           162000.0      162840      161280
 PW_GRID|   G-Rays                                1350.0        1357        1344
 PW_GRID|   Real Space Points                   162000.0      172800      129600

 PW_GRID| Information for grid number                                          3
 PW_GRID| Number of the reference grid                                         1
 PW_GRID| Grid distributed over                                    32 processors
 PW_GRID| Real space group dimensions                                    32    1
 PW_GRID| the grid is blocked:                                                NO
 PW_GRID| Cutoff [a.u.]                                                     22.2
 PW_GRID| spherical cutoff:                                                   NO
 PW_GRID|   Bounds   1            -35      34                Points:          70
 PW_GRID|   Bounds   2            -35      34                Points:          70
 PW_GRID|   Bounds   3           -105     104                Points:         210
 PW_GRID| Volume element (a.u.^3)  0.8320E-01     Volume (a.u.^3)     85609.9578
 PW_GRID| Grid span                                                    FULLSPACE
 PW_GRID|   Distribution                         Average         Max         Min
 PW_GRID|   G-Vectors                            32156.2       32340       31990
 PW_GRID|   G-Rays                                 459.4         462         457
 PW_GRID|   Real Space Points                    32156.2       44100       29400

 PW_GRID| Information for grid number                                          4
 PW_GRID| Number of the reference grid                                         1
 PW_GRID| Grid distributed over                                    32 processors
 PW_GRID| Real space group dimensions                                    32    1
 PW_GRID| the grid is blocked:                                                NO
 PW_GRID| Cutoff [a.u.]                                                      7.4
 PW_GRID| spherical cutoff:                                                   NO
 PW_GRID|   Bounds   1            -20      19                Points:          40
 PW_GRID|   Bounds   2            -20      19                Points:          40
 PW_GRID|   Bounds   3            -60      59                Points:         120
 PW_GRID| Volume element (a.u.^3)  0.4459         Volume (a.u.^3)     85609.9578
 PW_GRID| Grid span                                                    FULLSPACE
 PW_GRID|   Distribution                         Average         Max         Min
 PW_GRID|   G-Vectors                             6000.0        6120        5920
 PW_GRID|   G-Rays                                 150.0         153         148
 PW_GRID|   Real Space Points                     6000.0        9600        4800

 POISSON| Solver                                          IMPLICIT (GENERALIZED)
 POISSON| Boundary Condition                                PERIODIC & DIRICHLET
 POISSON| Maximum number of iterations                                        30
 POISSON| Convergence threshold                                         1.00E-08
 POISSON| Dielectric Constant                                              80.00
 POISSON| Relaxation parameter                                          1.00E+00

 RS_GRID| Information for grid number                                          1
 RS_GRID|   Bounds   1           -105     104                Points:         210
 RS_GRID|   Bounds   2           -105     104                Points:         210
 RS_GRID|   Bounds   3           -315     314                Points:         630
 RS_GRID| Real space distribution over                                 32 groups
 RS_GRID| Real space distribution along direction                              3
 RS_GRID| Border size                                                         54
 RS_GRID|   Distribution                         Average         Max         Min
 RS_GRID|   Planes                                 127.7         128         127

 RS_GRID| Information for grid number                                          2
 RS_GRID|   Bounds   1            -60      59                Points:         120
 RS_GRID|   Bounds   2            -60      59                Points:         120
 RS_GRID|   Bounds   3           -180     179                Points:         360
 RS_GRID| Real space distribution over                                 32 groups
 RS_GRID| Real space distribution along direction                              3
 RS_GRID| Border size                                                         36
 RS_GRID|   Distribution                         Average         Max         Min
 RS_GRID|   Planes                                  83.2          84          83

 RS_GRID| Information for grid number                                          3
 RS_GRID|   Bounds   1            -35      34                Points:          70
 RS_GRID|   Bounds   2            -35      34                Points:          70
 RS_GRID|   Bounds   3           -105     104                Points:         210
 RS_GRID| Real space fully replicated
 RS_GRID| Group size                                                           1

 RS_GRID| Information for grid number                                          4
 RS_GRID|   Bounds   1            -20      19                Points:          40
 RS_GRID|   Bounds   2            -20      19                Points:          40
 RS_GRID|   Bounds   3            -60      59                Points:         120
 RS_GRID| Real space fully replicated
 RS_GRID| Group size                                                           1

 Number of electrons:                                                       2160
 Number of occupied orbitals:                                               1080
 Number of molecular orbitals:                                              1580

 Number of orbital functions:                                               4320
 Number of independent orbital functions:                                   4320

 Extrapolation method: initial_guess


 SCF WAVEFUNCTION OPTIMIZATION

  Step     Update method      Time    Convergence         Total energy    Change
  ------------------------------------------------------------------------------

  POISSON| IMPLICIT (GENERALIZED) SOLVER ---------------------------------------
  POISSON| Preparing Dirichlet regions ...
  POISSON| Dirichlet region    1
  POISSON|     type : axis-aligned planar
  POISSON|     applied potential :   0.0000E+00  [Eh/e]
  POISSON| Dirichlet region    2
  POISSON|     type : axis-aligned planar
  POISSON|     applied potential :  -0.3675E-01  [Eh/e]
  POISSON| ... Done. 
  ------------------------------------------------------------------------------

  POISSON|   iter        pres error      nabs error        E_hartree    delta E
  POISSON|      1        0.7337E-03      0.3271E-01    1992.0398231478  0.20E+04
  POISSON|      2        0.7244E-15      0.7337E-03    1992.0433130786  0.35E-02
  POISSON| Poisson solver converged in 2 iterations.
     1 NoMix/Diag. 0.30E+00   11.1     0.26179669     -5670.7301828674 -5.67E+03
  POISSON|   iter        pres error      nabs error        E_hartree    delta E
  POISSON|      1        0.7600E-03      0.3249E-01    1991.9399542030 -0.10E+00
  POISSON|      2        0.8891E-15      0.7600E-03    1991.9435694804  0.36E-02
  POISSON| Poisson solver converged in 2 iterations.
     2 Broy./Diag. 0.30E+00   13.2     0.26677175     -5670.8969064162 -1.67E-01
  POISSON|   iter        pres error      nabs error        E_hartree    delta E
  POISSON|      1        0.5949E-04      0.3797E-03    1992.1515182760  0.21E+00
  POISSON|      2        0.6407E-16      0.5949E-04    1992.1512352800 -0.28E-03
  POISSON| Poisson solver converged in 2 iterations.
     3 Broy./Diag. 0.30E+00   13.2     0.14231239     -5676.0418148308 -5.14E+00
  POISSON|   iter        pres error      nabs error        E_hartree    delta E
  POISSON|      1        0.7734E-04      0.3119E-03    1992.1965992764  0.45E-01
  POISSON|      2        0.1927E-16      0.7734E-04    1992.1969671546  0.37E-03
  POISSON| Poisson solver converged in 2 iterations.
     4 Broy./Diag. 0.30E+00   13.2     0.14187640     -5673.1094672557  2.93E+00
  POISSON|   iter        pres error      nabs error        E_hartree    delta E
  POISSON|      1        0.4920E-04      0.1969E-03    1992.3199939077  0.12E+00
  POISSON|      2        0.3750E-16      0.4920E-04    1992.3197598598 -0.23E-03
  POISSON| Poisson solver converged in 2 iterations.
     5 Broy./Diag. 0.30E+00   13.4     0.10560468     -5672.3696061226  7.40E-01
  POISSON|   iter        pres error      nabs error        E_hartree    delta E
  POISSON|      1        0.5018E-05      0.4625E-04    1992.4653185156  0.15E+00
  POISSON|      2        0.9636E-17      0.5018E-05    1992.4653423853  0.24E-04
  POISSON| Poisson solver converged in 2 iterations.
     6 Broy./Diag. 0.30E+00   13.4     0.03493830     -5672.8226466286 -4.53E-01
  POISSON|   iter        pres error      nabs error        E_hartree    delta E
  POISSON|      1        0.2768E-05      0.3416E-04    1992.5782110583  0.11E+00
  POISSON|      2        0.9309E-17      0.2768E-05    1992.5782242271  0.13E-04
  POISSON| Poisson solver converged in 2 iterations.
     7 Broy./Diag. 0.30E+00   13.5     0.03889134     -5672.2382475724  5.84E-01
  POISSON|   iter        pres error      nabs error        E_hartree    delta E
  POISSON|      1        0.1470E-05      0.3126E-04    1992.6482449979  0.70E-01
  POISSON|      2        0.5392E-17      0.1470E-05    1992.6482519910  0.70E-05
  POISSON| Poisson solver converged in 2 iterations.
     8 Broy./Diag. 0.30E+00   13.5     0.02390363     -5672.1011386335  1.37E-01
  POISSON|   iter        pres error      nabs error        E_hartree    delta E
  POISSON|      1        0.6016E-06      0.1199E-04    1992.6792373062  0.31E-01
  POISSON|      2        0.6288E-17      0.6016E-06    1992.6792344442 -0.29E-05
  POISSON| Poisson solver converged in 2 iterations.
     9 Broy./Diag. 0.30E+00   13.5     0.01046575     -5672.3193402292 -2.18E-01
  POISSON|   iter        pres error      nabs error        E_hartree    delta E
  POISSON|      1        0.2604E-06      0.5368E-05    1992.6913419599  0.12E-01
  POISSON|      2        0.8347E-17      0.2604E-06    1992.6913407210 -0.12E-05
  POISSON| Poisson solver converged in 2 iterations.
    10 Broy./Diag. 0.30E+00   13.5     0.00406656     -5672.2237923834  9.55E-02
  POISSON|   iter        pres error      nabs error        E_hartree    delta E
  POISSON|      1        0.3273E-08      0.5071E-05    1992.6985724490  0.72E-02
  POISSON| Poisson solver converged in 1 iteration. 
    11 Broy./Diag. 0.30E+00   12.1     0.00404162     -5672.1933796062  3.04E-02
  POISSON|   iter        pres error      nabs error        E_hartree    delta E
  POISSON|      1        0.3205E-06      0.5441E-05    1992.7046214013  0.60E-02
  POISSON|      2        0.4957E-17      0.3205E-06    1992.7046229258  0.15E-05
  POISSON| Poisson solver converged in 2 iterations.
    12 Broy./Diag. 0.30E+00   13.5     0.00270383     -5672.1888019095  4.58E-03
  POISSON|   iter        pres error      nabs error        E_hartree    delta E
  POISSON|      1        0.1208E-06      0.3329E-05    1992.7096060002  0.50E-02
  POISSON|      2        0.5838E-18      0.1208E-06    1992.7096065746  0.57E-06
  POISSON| Poisson solver converged in 2 iterations.
    13 Broy./Diag. 0.30E+00   13.6     0.00110648     -5672.2145957949 -2.58E-02
  POISSON|   iter        pres error      nabs error        E_hartree    delta E
  POISSON|      1        0.1204E-06      0.1421E-05    1992.7104025271  0.80E-03
  POISSON|      2        0.1516E-17      0.1204E-06    1992.7104019545 -0.57E-06
  POISSON| Poisson solver converged in 2 iterations.
    14 Broy./Diag. 0.30E+00   13.6     0.00094668     -5672.2080674708  6.53E-03
  POISSON|   iter        pres error      nabs error        E_hartree    delta E
  POISSON|      1        0.7128E-06      0.3144E-05    1992.7113134251  0.91E-03
  POISSON|      2        0.5213E-18      0.7128E-06    1992.7113168157  0.34E-05
  POISSON| Poisson solver converged in 2 iterations.
    15 Broy./Diag. 0.30E+00   13.5     0.00134237     -5672.2071310503  9.36E-04
  POISSON|   iter        pres error      nabs error        E_hartree    delta E
  POISSON|      1        0.6171E-06      0.2697E-05    1992.7110537308 -0.26E-03
  POISSON|      2        0.5582E-17      0.6171E-06    1992.7110507954 -0.29E-05
  POISSON| Poisson solver converged in 2 iterations.
    16 Broy./Diag. 0.30E+00   13.5     0.00174457     -5672.2040246787  3.11E-03
  POISSON|   iter        pres error      nabs error        E_hartree    delta E
  POISSON|      1        0.2149E-06      0.1743E-05    1992.7114069684  0.36E-03
  POISSON|      2        0.2892E-17      0.2149E-06    1992.7114079905  0.10E-05
  POISSON| Poisson solver converged in 2 iterations.
    17 Broy./Diag. 0.30E+00   13.5     0.00052661     -5672.2154122622 -1.14E-02
  POISSON|   iter        pres error      nabs error        E_hartree    delta E
  POISSON|      1        0.4067E-07      0.1113E-05    1992.7118736754  0.47E-03
  POISSON|      2        0.2623E-17      0.4067E-07    1992.7118738688  0.19E-06
  POISSON| Poisson solver converged in 2 iterations.
    18 Broy./Diag. 0.30E+00   13.5     0.00050249     -5672.2122502186  3.16E-03
  POISSON|   iter        pres error      nabs error        E_hartree    delta E
  POISSON|      1        0.7597E-07      0.1021E-05    1992.7120231520  0.15E-03
  POISSON|      2        0.3817E-17      0.7597E-07    1992.7120235134  0.36E-06
  POISSON| Poisson solver converged in 2 iterations.
    19 Broy./Diag. 0.30E+00   13.6     0.00024752     -5672.2095114395  2.74E-03
  POISSON|   iter        pres error      nabs error        E_hartree    delta E
  POISSON|      1        0.4455E-07      0.7379E-06    1992.7122713240  0.25E-03
  POISSON|      2        0.3951E-17      0.4455E-07    1992.7122715360  0.21E-06
  POISSON| Poisson solver converged in 2 iterations.
    20 Broy./Diag. 0.30E+00   13.5     0.00014646     -5672.2135957799 -4.08E-03
  POISSON|   iter        pres error      nabs error        E_hartree    delta E
  POISSON|      1        0.2272E-07      0.7014E-06    1992.7126333077  0.36E-03
  POISSON|      2        0.2107E-17      0.2272E-07    1992.7126334158  0.11E-06
  POISSON| Poisson solver converged in 2 iterations.
    21 Broy./Diag. 0.30E+00   13.5     0.00019592     -5672.2127681942  8.28E-04
  POISSON|   iter        pres error      nabs error        E_hartree    delta E
  POISSON|      1        0.5486E-07      0.8843E-06    1992.7129107630  0.28E-03
  POISSON|      2        0.1302E-17      0.5486E-07    1992.7129110240  0.26E-06
  POISSON| Poisson solver converged in 2 iterations.
    22 Broy./Diag. 0.30E+00   13.5     0.00017824     -5672.2111458793  1.62E-03
  POISSON|   iter        pres error      nabs error        E_hartree    delta E
  POISSON|      1        0.5204E-07      0.8706E-06    1992.7131559993  0.24E-03
  POISSON|      2        0.4195E-17      0.5204E-07    1992.7131562469  0.25E-06
  POISSON| Poisson solver converged in 2 iterations.
    23 Broy./Diag. 0.30E+00   13.6     0.00013436     -5672.2106475894  4.98E-04
  POISSON|   iter        pres error      nabs error        E_hartree    delta E
  POISSON|      1        0.2459E-07      0.6633E-06    1992.7133640267  0.21E-03
  POISSON|      2        0.1837E-17      0.2459E-07    1992.7133641436  0.12E-06
  POISSON| Poisson solver converged in 2 iterations.
    24 Broy./Diag. 0.30E+00   13.5     0.00008172     -5672.2122387922 -1.59E-03
  POISSON|   iter        pres error      nabs error        E_hartree    delta E
  POISSON|      1        0.3468E-07      0.4276E-06    1992.7134343099  0.70E-04
  POISSON|      2        0.1947E-17      0.3468E-07    1992.7134341450 -0.16E-06
  POISSON| Poisson solver converged in 2 iterations.
    25 Broy./Diag. 0.30E+00   13.5     0.00014058     -5672.2116007335  6.38E-04
  POISSON|   iter        pres error      nabs error        E_hartree    delta E
  POISSON|      1        0.9744E-07      0.4775E-06    1992.7135324370  0.98E-04
  POISSON|      2        0.1396E-17      0.9744E-07    1992.7135329005  0.46E-06
  POISSON| Poisson solver converged in 2 iterations.
    26 Broy./Diag. 0.30E+00   13.5     0.00017289     -5672.2116515252 -5.08E-05
  POISSON|   iter        pres error      nabs error        E_hartree    delta E
  POISSON|      1        0.1469E-07      0.6936E-06    1992.7135747283  0.42E-04
  POISSON|      2        0.3153E-18      0.1469E-07    1992.7135746584 -0.70E-07
  POISSON| Poisson solver converged in 2 iterations.
    27 Broy./Diag. 0.30E+00   13.7     0.00011900     -5672.2109736487  6.78E-04
  POISSON|   iter        pres error      nabs error        E_hartree    delta E
  POISSON|      1        0.2467E-07      0.5031E-06    1992.7135814722  0.68E-05
  POISSON|      2        0.7008E-18      0.2467E-07    1992.7135815896  0.12E-06
  POISSON| Poisson solver converged in 2 iterations.
    28 Broy./Diag. 0.30E+00   13.5     0.00008090     -5672.2118736604 -9.00E-04
  POISSON|   iter        pres error      nabs error        E_hartree    delta E
  POISSON|      1        0.1139E-07      0.4187E-06    1992.7136243299  0.43E-04
  POISSON|      2        0.2048E-17      0.1139E-07    1992.7136243840  0.54E-07
  POISSON| Poisson solver converged in 2 iterations.
    29 Broy./Diag. 0.30E+00   13.7     0.00006982     -5672.2123279717 -4.54E-04
  POISSON|   iter        pres error      nabs error        E_hartree    delta E
  POISSON|      1        0.1411E-07      0.4116E-06    1992.7136031580 -0.21E-04
  POISSON|      2        0.2056E-17      0.1411E-07    1992.7136032251  0.67E-07
  POISSON| Poisson solver converged in 2 iterations.
    30 Broy./Diag. 0.30E+00   13.6     0.00004157     -5672.2116356075  6.92E-04
  POISSON|   iter        pres error      nabs error        E_hartree    delta E
  POISSON|      1        0.1456E-07      0.3542E-06    1992.7135713170 -0.32E-04
  POISSON|      2        0.2422E-17      0.1456E-07    1992.7135713863  0.69E-07
  POISSON| Poisson solver converged in 2 iterations.
    31 Broy./Diag. 0.30E+00   13.6     0.00004722     -5672.2120435254 -4.08E-04
  POISSON|   iter        pres error      nabs error        E_hartree    delta E
  POISSON|      1        0.8514E-08      0.3716E-06    1992.7135682138 -0.32E-05
  POISSON| Poisson solver converged in 1 iteration. 
    32 Broy./Diag. 0.30E+00   12.2     0.00004654     -5672.2125798718 -5.36E-04
  POISSON|   iter        pres error      nabs error        E_hartree    delta E
  POISSON|      1        0.1826E-08      0.1746E-06    1992.7135709406  0.27E-05
  POISSON| Poisson solver converged in 1 iteration. 
    33 Broy./Diag. 0.30E+00   12.2     0.00003616     -5672.2125054627  7.44E-05
  POISSON|   iter        pres error      nabs error        E_hartree    delta E
  POISSON|      1        0.1072E-07      0.2470E-06    1992.7135728158  0.19E-05
  POISSON|      2        0.1980E-17      0.1072E-07    1992.7135728668  0.51E-07
  POISSON| Poisson solver converged in 2 iterations.
    34 Broy./Diag. 0.30E+00   13.6     0.00002550     -5672.2120726374  4.33E-04
  POISSON|   iter        pres error      nabs error        E_hartree    delta E
  POISSON|      1        0.1291E-07      0.1609E-06    1992.7135933365  0.20E-04
  POISSON|      2        0.2163E-17      0.1291E-07    1992.7135933979  0.61E-07
  POISSON| Poisson solver converged in 2 iterations.
    35 Broy./Diag. 0.30E+00   13.6     0.00003368     -5672.2124866864 -4.14E-04
  POISSON|   iter        pres error      nabs error        E_hartree    delta E
  POISSON|      1        0.1870E-07      0.9413E-07    1992.7135986343  0.52E-05
  POISSON|      2        0.1078E-17      0.1870E-07    1992.7135985453 -0.89E-07
  POISSON| Poisson solver converged in 2 iterations.
    36 Broy./Diag. 0.30E+00   13.6     0.00004216     -5672.2124005753  8.61E-05
  POISSON|   iter        pres error      nabs error        E_hartree    delta E
  POISSON|      1        0.1664E-07      0.1646E-06    1992.7136455610  0.47E-04
  POISSON|      2        0.5561E-18      0.1664E-07    1992.7136456402  0.79E-07
  POISSON| Poisson solver converged in 2 iterations.
    37 Broy./Diag. 0.30E+00   13.5     0.00003754     -5672.2125075797 -1.07E-04
  POISSON|   iter        pres error      nabs error        E_hartree    delta E
  POISSON|      1        0.4170E-09      0.1372E-06    1992.7136815509  0.36E-04
  POISSON| Poisson solver converged in 1 iteration. 
    38 Broy./Diag. 0.30E+00   12.1     0.00001987     -5672.2122116713  2.96E-04
  POISSON|   iter        pres error      nabs error        E_hartree    delta E
  POISSON|      1        0.3228E-08      0.1068E-06    1992.7137048475  0.23E-04
  POISSON| Poisson solver converged in 1 iteration. 
    39 Broy./Diag. 0.30E+00   12.1     0.00001992     -5672.2122138022 -2.13E-06
  POISSON|   iter        pres error      nabs error        E_hartree    delta E
  POISSON|      1        0.1749E-08      0.1121E-06    1992.7137429707  0.38E-04
  POISSON| Poisson solver converged in 1 iteration. 
    40 Broy./Diag. 0.30E+00   12.2     0.00001433     -5672.2123411303 -1.27E-04
  POISSON|   iter        pres error      nabs error        E_hartree    delta E
  POISSON|      1        0.1653E-08      0.1021E-06    1992.7137674075  0.24E-04
  POISSON| Poisson solver converged in 1 iteration. 
    41 Broy./Diag. 0.30E+00   12.2     0.00001163     -5672.2121761630  1.65E-04
  POISSON|   iter        pres error      nabs error        E_hartree    delta E
  POISSON|      1        0.3378E-08      0.1128E-06    1992.7137780718  0.11E-04
  POISSON| Poisson solver converged in 1 iteration. 
    42 Broy./Diag. 0.30E+00   12.1     0.00001192     -5672.2121045006  7.17E-05
  POISSON|   iter        pres error      nabs error        E_hartree    delta E
  POISSON|      1        0.2047E-08      0.8579E-07    1992.7137773040 -0.77E-06
  POISSON| Poisson solver converged in 1 iteration. 
    43 Broy./Diag. 0.30E+00   12.1     0.00001121     -5672.2121713743 -6.69E-05
  POISSON|   iter        pres error      nabs error        E_hartree    delta E
  POISSON|      1        0.1833E-09      0.7760E-07    1992.7137802455  0.29E-05
  POISSON| Poisson solver converged in 1 iteration. 
    44 Broy./Diag. 0.30E+00   12.1     0.00001031     -5672.2122911221 -1.20E-04
  POISSON|   iter        pres error      nabs error        E_hartree    delta E
  POISSON|      1        0.1814E-09      0.9066E-07    1992.7137676893 -0.13E-04
  POISSON| Poisson solver converged in 1 iteration. 
    45 Broy./Diag. 0.30E+00   12.1     0.00000909     -5672.2121474220  1.44E-04
  POISSON|   iter        pres error      nabs error        E_hartree    delta E
  POISSON|      1        0.6227E-08      0.2731E-07    1992.7137664859 -0.12E-05
  POISSON| Poisson solver converged in 1 iteration. 
    46 Broy./Diag. 0.30E+00   12.2     0.00001403     -5672.2122187784 -7.14E-05
  POISSON|   iter        pres error      nabs error        E_hartree    delta E
  POISSON|      1        0.2826E-08      0.9730E-07    1992.7137504867 -0.16E-04
  POISSON| Poisson solver converged in 1 iteration. 
    47 Broy./Diag. 0.30E+00   12.2     0.00001288     -5672.2121815902  3.72E-05
  POISSON|   iter        pres error      nabs error        E_hartree    delta E
  POISSON|      1        0.2469E-08      0.6050E-07    1992.7137389582 -0.12E-04
  POISSON| Poisson solver converged in 1 iteration. 
    48 Broy./Diag. 0.30E+00   12.2     0.00000702     -5672.2122625708 -8.10E-05
  POISSON|   iter        pres error      nabs error        E_hartree    delta E
  POISSON|      1        0.3528E-11      0.3439E-07    1992.7137312950 -0.77E-05
  POISSON| Poisson solver converged in 1 iteration. 
    49 Broy./Diag. 0.30E+00   12.2     0.00000842     -5672.2122455823  1.70E-05
  POISSON|   iter        pres error      nabs error        E_hartree    delta E
  POISSON|      1        0.1245E-08      0.6133E-07    1992.7137219800 -0.93E-05
  POISSON| Poisson solver converged in 1 iteration. 
    50 Broy./Diag. 0.30E+00   12.1     0.00000557     -5672.2121994784  4.61E-05
  POISSON|   iter        pres error      nabs error        E_hartree    delta E
  POISSON|      1        0.5276E-09      0.3922E-07    1992.7137187985 -0.32E-05
  POISSON| Poisson solver converged in 1 iteration. 
    51 Broy./Diag. 0.30E+00   12.3     0.00000364     -5672.2122693924 -6.99E-05
  POISSON|   iter        pres error      nabs error        E_hartree    delta E
  POISSON|      1        0.8289E-10      0.2579E-07    1992.7137216261  0.28E-05
  POISSON| Poisson solver converged in 1 iteration. 
    52 Broy./Diag. 0.30E+00   12.1     0.00000390     -5672.2122578277  1.16E-05
  POISSON|   iter        pres error      nabs error        E_hartree    delta E
  POISSON|      1        0.6496E-09      0.3910E-07    1992.7137277139  0.61E-05
  POISSON| Poisson solver converged in 1 iteration. 
    53 Broy./Diag. 0.30E+00   12.1     0.00000298     -5672.2122238851  3.39E-05
  POISSON|   iter        pres error      nabs error        E_hartree    delta E
  POISSON|      1        0.6196E-09      0.1806E-07    1992.7137315304  0.38E-05
  POISSON| Poisson solver converged in 1 iteration. 
    54 Broy./Diag. 0.30E+00   12.2     0.00000337     -5672.2122071994  1.67E-05
  POISSON|   iter        pres error      nabs error        E_hartree    delta E
  POISSON|      1        0.5022E-09      0.3468E-07    1992.7137424159  0.11E-04
  POISSON| Poisson solver converged in 1 iteration. 
    55 Broy./Diag. 0.30E+00   12.1     0.00000272     -5672.2122406188 -3.34E-05
  POISSON|   iter        pres error      nabs error        E_hartree    delta E
  POISSON|      1        0.1785E-08      0.8012E-08    1992.7137429421  0.53E-06
  POISSON| Poisson solver converged in 1 iteration. 
    56 Broy./Diag. 0.30E+00   12.2     0.00000439     -5672.2121965469  4.41E-05
  POISSON|   iter        pres error      nabs error        E_hartree    delta E
  POISSON|      1        0.1574E-08      0.2701E-07    1992.7137493434  0.64E-05
  POISSON| Poisson solver converged in 1 iteration. 
    57 Broy./Diag. 0.30E+00   12.1     0.00000306     -5672.2122122869 -1.57E-05
  POISSON|   iter        pres error      nabs error        E_hartree    delta E
  POISSON|      1        0.5661E-09      0.1632E-07    1992.7137536271  0.43E-05
  POISSON| Poisson solver converged in 1 iteration. 
    58 Broy./Diag. 0.30E+00   12.1     0.00000233     -5672.2122023482  9.94E-06
  POISSON|   iter        pres error      nabs error        E_hartree    delta E
  POISSON|      1        0.2831E-09      0.1177E-07    1992.7137557768  0.21E-05
  POISSON| Poisson solver converged in 1 iteration. 
    59 Broy./Diag. 0.30E+00   12.1     0.00000235     -5672.2122021780  1.70E-07
  POISSON|   iter        pres error      nabs error        E_hartree    delta E
  POISSON|      1        0.2173E-10      0.1284E-07    1992.7137577346  0.20E-05
  POISSON| Poisson solver converged in 1 iteration. 
    60 Broy./Diag. 0.30E+00   12.2     0.00000159     -5672.2122162923 -1.41E-05
  POISSON|   iter        pres error      nabs error        E_hartree    delta E
  POISSON|      1        0.1068E-09      0.1271E-07    1992.7137578309  0.96E-07
  POISSON| Poisson solver converged in 1 iteration. 
    61 Broy./Diag. 0.30E+00   12.1     0.00000097     -5672.2122003683  1.59E-05

  *** SCF run converged in    61 steps ***


  Electronic density on regular grids:      -2159.9999999992        0.0000000008
  Core density on regular grids:             2159.9999999995       -0.0000000005
  Total charge density on r-space grids:        0.0000000003
  Total charge density g-space grids:           0.0000000003

  Overlap energy of the core charge distribution:               0.00003520808398
  Self energy of the core charge distribution:              -9891.63555570741482
  Core Hamiltonian energy:                                   3202.73600360148339
  Hartree energy:                                            1992.71375783089979
  Electric enthalpy:                                         1992.70673512279836
  Exchange-correlation energy:                               -971.28214166489488
  Dispersion energy:                                           -4.70401378076281
  Electronic entropic energy:                                  -0.03326310368862
  Fermi energy:                                                -0.18966984594170

  Total energy:                                             -5672.21220036827071

 The electron density is written in cube file format to the file:

 cp2k-ELECTRON_DENSITY-1_0.cube

 !-----------------------------------------------------------------------------!
                     Mulliken Population Analysis

 #  Atom  Element  Kind  Atomic population                           Net charge
       1     Pt       1         10.037266                             -0.037266
       2     Pt       1         10.059813                             -0.059813
       3     Pt       1         10.049406                             -0.049406
       4     Pt       1         10.062460                             -0.062460
       5     Pt       1         10.050202                             -0.050202
       6     Pt       1         10.048161                             -0.048161
       7     Pt       1         10.030935                             -0.030935
       8     Pt       1         10.045072                             -0.045072
       9     Pt       1         10.052796                             -0.052796
      10     Pt       1         10.067295                             -0.067295
      11     Pt       1         10.055800                             -0.055800
      12     Pt       1         10.038428                             -0.038428
      13     Pt       1         10.046717                             -0.046717
      14     Pt       1         10.061260                             -0.061260
      15     Pt       1         10.048316                             -0.048316
      16     Pt       1         10.038925                             -0.038925
      17     Pt       1         10.049469                             -0.049469
      18     Pt       1         10.041519                             -0.041519
      19     Pt       1         10.070704                             -0.070704
      20     Pt       1         10.040834                             -0.040834
      21     Pt       1         10.053140                             -0.053140
[...]
    191      1      Pt         -0.00999745     0.00077126    -0.00715627
    192      1      Pt          0.00387663     0.00226447     0.01118739
    193      1      Pt         -0.01291018    -0.01467428     0.01882682
    194      1      Pt         -0.00465572    -0.01006372     0.00379650
    195      1      Pt         -0.00337628     0.00903770     0.00305235
    196      1      Pt         -0.01838911    -0.02569016    -0.00422669
    197      1      Pt          0.00107007    -0.02033235     0.01922424
    198      1      Pt          0.00675936    -0.00059557    -0.00904644
    199      1      Pt          0.02870330     0.01661120     0.00750639
    200      1      Pt          0.00427843    -0.00470676    -0.00376883
    201      1      Pt         -0.00011876    -0.00950766    -0.00782182
    202      1      Pt          0.00437034     0.02267528     0.01030134
    203      1      Pt          0.00466112     0.01656775     0.00669043
    204      1      Pt         -0.01323831    -0.01628807    -0.01431644
    205      1      Pt          0.01109312     0.00243372     0.03499791
    206      1      Pt          0.01113967     0.00764809     0.01342039
    207      1      Pt         -0.01655836     0.00532751     0.01198016
    208      1      Pt          0.01680403     0.00020705    -0.00059447
    209      1      Pt         -0.02194997     0.00934675     0.01110511
    210      1      Pt          0.00647795    -0.00022512    -0.01178728
    211      1      Pt         -0.00361953    -0.00649019    -0.00537457
    212      1      Pt          0.00671208    -0.01332242    -0.00038265
    213      1      Pt          0.00200921    -0.00051540    -0.01184823
    214      1      Pt         -0.01132265     0.01024572     0.00875431
    215      1      Pt         -0.00313596     0.00376551     0.01553154
    216      1      Pt          0.00381444     0.00348661    -0.00495232
 SUM OF ATOMIC FORCES          -0.00000642    -0.00001029     0.00000537     0.00001327

 -------------------------------------------------------------------------------
 -                                                                             -
 -                                DBCSR STATISTICS                             -
 -                                                                             -
 -------------------------------------------------------------------------------
 COUNTER                                    TOTAL       BLAS       SMM       ACC
 flops    20 x    12 x    20            447897600       0.0%    100.0%      0.0%
 flops    20 x    32 x    20          58525286400       0.0%    100.0%      0.0%
 flops    20 x    20 x   204         240959577600       0.0%    100.0%      0.0%
 flops    20 x    20 x   224         264583065600       0.0%    100.0%      0.0%
 flops    20 x    20 x   192        1360712908800       0.0%    100.0%      0.0%
 flops inhomo. stacks                           0       0.0%      0.0%      0.0%
 flops total                         1.925229E+12       0.0%    100.0%      0.0%
 flops max/rank                     61.786829E+09       0.0%    100.0%      0.0%
 matmuls inhomo. stacks                         0       0.0%      0.0%      0.0%
 matmuls total                           14144544       0.0%    100.0%      0.0%
 number of processed stacks                 18560       0.0%    100.0%      0.0%
 average stack size                                     0.0     762.1       0.0
 marketing flops                     2.740088E+12
 -------------------------------------------------------------------------------
 # multiplications                             64
 max memory usage/rank               1.811059E+09
 # max total images/rank                        2
 # max 3D layers                                1
 # MPI messages exchanged                   26624
 MPI messages size (bytes):
  total size                        35.609932E+09
  min size                         829.440000E+03
  max size                           4.665600E+06
  average size                       1.337512E+06
 MPI breakdown and total messages size (bytes):
             size <=      128                   0                        0
       128 < size <=     8192                   0                        0
      8192 < size <=    32768                   0                        0
     32768 < size <=   131072                   0                        0
    131072 < size <=  4194304               26400              34564838400
   4194304 < size <= 16777216                 224               1045094400
  16777216 < size                               0                        0
 -------------------------------------------------------------------------------

 *** WARNING in dbcsr_mm.F:290 :: Using a non-square number of MPI ranks ***
 *** might lead to poor performance. Used ranks: 32 Suggested: 36 64     ***

 -------------------------------------------------------------------------------
 -                                                                             -
 -                      DBCSR MESSAGE PASSING PERFORMANCE                      -
 -                                                                             -
 -------------------------------------------------------------------------------
 ROUTINE             CALLS      AVE VOLUME [Bytes]
 MP_Bcast                6                     12.
 MP_Allreduce          471                      9.
 MP_Alltoall          1773                1274992.
 MP_ISend             2048                 578838.
 MP_IRecv             2048                 561858.
 -------------------------------------------------------------------------------

 -------------------------------------------------------------------------------
 -                                                                             -
 -                                DBM STATISTICS                               -
 -                                                                             -
 -------------------------------------------------------------------------------
    M  x    N  x    K                                          COUNT     PERCENT
 -------------------------------------------------------------------------------

 -------------------------------------------------------------------------------
 -                                                                             -
 -                                GRID STATISTICS                              -
 -                                                                             -
 -------------------------------------------------------------------------------
 LP    KERNEL             BACKEND                              COUNT     PERCENT
 4     collocate general  REF                               21134126      49.97%
 4     integrate general  REF                               20793253      49.16%
 5     integrate general  REF                                 340873       0.81%
 0     collocate general  REF                                  13824       0.03%
 0     integrate general  REF                                   6912       0.02%
 1     integrate general  REF                                   6912       0.02%
 -------------------------------------------------------------------------------

 MEMORY| Estimated peak process memory [MiB]                                2159

 -------------------------------------------------------------------------------
 ----                             MULTIGRID INFO                            ----
 -------------------------------------------------------------------------------
 count for grid        1:          17564          cutoff [a.u.]          200.00
 count for grid        2:         177712          cutoff [a.u.]           66.67
 count for grid        3:         109784          cutoff [a.u.]           22.22
 count for grid        4:         155434          cutoff [a.u.]            7.41
 total gridlevel count  :         460494

 -------------------------------------------------------------------------------
 -                                                                             -
 -                         MESSAGE PASSING PERFORMANCE                         -
 -                                                                             -
 -------------------------------------------------------------------------------

 ROUTINE             CALLS      AVE VOLUME [Bytes]
 MP_Group                4
 MP_Bcast             1766                 164901.
 MP_Allreduce         1620                   1560.
 MP_Sync                67
 MP_Alltoall          3097               49529074.
 MP_SendRecv           124                  14976.
 MP_ISendRecv         7688                 214800.
 MP_Wait             18644
 MP_comm_split           1
 MP_ISend             9824                 715239.
 MP_IRecv             9824                 715239.
 MP_Recv               192                1105920.
 MP_Write_All            3                4213860.
 -------------------------------------------------------------------------------


 -------------------------------------------------------------------------------
 -                                                                             -
 -                           R E F E R E N C E S                               -
 -                                                                             -
 -------------------------------------------------------------------------------
 
 CP2K version 2022.1, the CP2K developers group (2022).
 CP2K is freely available from https://www.cp2k.org/ .

 Kuehne,Thomas D.; Iannuzzi,Marcella; Del Ben,Mauro;
 Rybkin,Vladimir V.; Seewald,Patrick; Stein,Frederick; Laino,Teodoro;
 Khaliullin,Rustam Z.; Schuett,Ole; Schiffmann,Florian; Golze,Dorothea;
 Wilhelm,Jan; Chulkov,Sergey; Bani-Hashemian,Mohammad Hossein;
 Weber,Valery; Borstnik,Urban; Taillefumier,Mathieu;
 Jakobovits,Alice Shoshana; Lazzaro,Alfio; Pabst,Hans; Mueller,Tiziano;
 Schade,Robert; Guidon,Manuel; Andermatt,Samuel; Holmberg,Nico;
 Schenter,Gregory K.; Hehn,Anna; Bussy,Augustin; Belleflamme,Fabian;
 Tabacchi,Gloria; Gloess,Andreas; Lass,Michael; Bethune,Iain;
 Mundy,Christopher J.; Plessl,Christian; Watkins,Matt;
 VandeVondele,Joost; Krack,Matthias; Hutter,Juerg. 
 The Journal of Chemical Physics, 152 (19), (2020). 
 CP2K: An electronic structure and molecular dynamics software package -
 Quickstep: Efficient and accurate electronic structure calculations.
 https://doi.org/10.1063/5.0007045

 Goerigk, Lars; Hansen, Andreas; Bauer, Christoph; Ehrlich, Stephan;
 Najibi, Asim; Grimme, Stefan. , 19 (48), (2017). 
 A look at the density functional theory zoo with the advanced GMTKN55 database
 for general main group thermochemistry, kinetics and noncovalent interactions.
 https://doi.org/10.1039/C7CP04913G

 Bani-Hashemian, MH; Bruck, S; Luisier, M; VandeVondele, J. 
 JOURNAL OF CHEMICAL PHYSICS, 144 (4), 044113 (2016). 
 A generalized Poisson solver for first-principles device simulations.
 https://doi.org/10.1063/1.4940796

 Schuett, Ole; Messmer, Peter; Hutter, Juerg; VandeVondele, Joost. 
 Electronic Structure Calculations on Graphics Processing Units, John
 Wiley & Sons, Ltd, 173-190 (2016). 
 GPU-Accelerated Sparse Matrix-Matrix Multiplication for
 Linear Scaling Density Functional Theory.
 https://doi.org/10.1002/9781118670712.ch8

 Heinecke, A; Henry, G; Hutchinson, M; Pabst, H. 
 Proceedings of Intl. Supercomputing Conference, 981-991 (2016). 
 LIBXSMM: Accelerating Small Matrix Multiplications
 by Runtime Code Generation.
 https://doi.org/10.1109/SC.2016.83

 Borstnik, U; VandeVondele, J; Weber, V; Hutter, J. 
 PARALLEL COMPUTING, 40 (5-6), 47-58 (2014). 
 Sparse matrix multiplication: The distributed block-compressed sparse
 row library.
 https://doi.org/10.1016/j.parco.2014.03.012

 Hutter, J; Iannuzzi, M; Schiffmann, F; VandeVondele, J. 
 WIREs Comput Mol Sci., 4 (1), 15-25 (2014). 
 CP2K: atomistic simulations of condensed matter systems.
 https://doi.org/10.1002/wcms.1159

 Marek, A; Blum, V; Johanni, R; Havu, V; Lang, B; Auckenthaler, T;
 Heinecke, A; Bungartz, H; Lederer, H. 
 Journal of Physics: Condensed Matter, 26 (21), (2014). 
 The ELPA library: scalable parallel eigenvalue solutions for
 electronic structure
 theory and computational science.
 https://doi.org/10.1088/0953-8984/26/21/213201

 Grimme, S; Ehrlich, S; Goerigk, L. 
 JOURNAL OF COMPUTATIONAL CHEMISTRY, 32, 1456 (2011). 
 Effect of the damping function in dispersion corrected density functional theory.
 https://doi.org/10.1002/jcc.21759

 Grimme, S; Antony, J; Ehrlich, S; Krieg, H. 
 JOURNAL OF CHEMICAL PHYSICS, 132 (15), 154104 (2010). 
 A consistent and accurate ab initio parametrization of density
 functional dispersion correction (DFT-D) for the 94 elements H-Pu.
 https://doi.org/10.1063/1.3382344

 VandeVondele, J; Hutter, J. 
 JOURNAL OF CHEMICAL PHYSICS, 127 (11), 114105 (2007). 
 Gaussian basis sets for accurate calculations on molecular systems in
 gas and condensed phases.
 https://doi.org/10.1063/1.2770708

 Krack, M. 
 THEORETICAL CHEMISTRY ACCOUNTS, 114 (1-3), 145-152 (2005). 
 Pseudopotentials for H to Kr optimized for gradient-corrected
 exchange-correlation functionals.
 https://doi.org/10.1007/s00214-005-0655-y

 VandeVondele, J; Krack, M; Mohamed, F; Parrinello, M; Chassaing, T;
 Hutter, J. COMPUTER PHYSICS COMMUNICATIONS, 167 (2), 103-128 (2005). 
 QUICKSTEP: Fast and accurate density functional calculations using a
 mixed Gaussian and plane waves approach.
 https://doi.org/10.1016/j.cpc.2004.12.014

 Frigo, M; Johnson, SG. 
 PROCEEDINGS OF THE IEEE, 93 (2), 216-231 (2005). 
 The design and implementation of FFTW3.
 https://doi.org/10.1109/JPROC.2004.840301

 Hartwigsen, C; Goedecker, S; Hutter, J. 
 PHYSICAL REVIEW B, 58 (7), 3641-3662 (1998). 
 Relativistic separable dual-space Gaussian pseudopotentials from H to Rn.
 https://doi.org/10.1103/PhysRevB.58.3641

 Lippert, G; Hutter, J; Parrinello, M. 
 MOLECULAR PHYSICS, 92 (3), 477-487 (1997). 
 A hybrid Gaussian and plane wave density functional scheme.
 https://doi.org/10.1080/002689797170220

 Perdew, JP; Burke, K; Ernzerhof, M. 
 PHYSICAL REVIEW LETTERS, 77 (18), 3865-3868 (1996). 
 Generalized gradient approximation made simple.
 https://doi.org/10.1103/PhysRevLett.77.3865

 Goedecker, S; Teter, M; Hutter, J. 
 PHYSICAL REVIEW B, 54 (3), 1703-1710 (1996). 
 Separable dual-space Gaussian pseudopotentials.
 https://doi.org/10.1103/PhysRevB.54.1703


 -------------------------------------------------------------------------------
 -                                                                             -
 -                                T I M I N G                                  -
 -                                                                             -
 -------------------------------------------------------------------------------
 SUBROUTINE                       CALLS  ASD         SELF TIME        TOTAL TIME
                                MAXIMUM       AVERAGE  MAXIMUM  AVERAGE  MAXIMUM
 CP2K                                 1  1.0    0.018    0.033  811.438  811.439
 qs_forces                            1  2.0    0.001    0.001  811.034  811.035
 qs_energies                          1  3.0    0.000    0.000  796.850  796.853
 scf_env_do_scf                       1  4.0    0.000    0.002  788.543  788.645
 scf_env_do_scf_inner_loop           61  5.0    0.003    0.006  788.541  788.641
 rebuild_ks_matrix                   62  7.0    0.000    0.000  506.305  506.337
 qs_ks_build_kohn_sham_matrix        62  8.0    0.009    0.010  506.305  506.336
 qs_ks_update_qs_env                 61  6.0    0.000    0.001  496.566  496.597
 pw_transfer                       2958 12.1    0.226    0.319  285.980  288.262
 fft_wrap_pw1pw2                   2958 13.1    0.031    0.038  285.753  288.039
 fft_wrap_pw1pw2_200               2586 14.4   24.209   27.027  282.994  285.250
 pw_poisson_solve                    62  9.0    0.019    0.026  247.766  247.805
 implicit_poisson_solver_mixed_      62 10.0    6.654    7.161  233.409  233.682
 fft3d_ps                          2958 15.1  121.695  131.103  213.324  216.125
 qs_rho_update_rho_low               62  6.0    0.000    0.001  188.464  188.480
 calculate_rho_elec                  62  7.0    0.339    0.376  188.464  188.480
 sum_up_and_integrate                62  9.0    0.965    1.041  177.114  177.155
 integrate_v_rspace                  62 10.0    0.002    0.002  176.149  176.246
 derive_fft                         318 12.1    0.022    0.025  164.553  165.734
 grid_collocate_task_list            62  8.0   83.284  162.905   83.284  162.905
 grid_integrate_task_list            62 11.0   77.260  151.122   77.260  151.122
 apply_P_operator                   256 11.2    2.391    2.745  135.002  135.905
 rs_pw_transfer                     500 10.5    0.006    0.007  104.394  130.762
 density_rs2pw                       62  8.0    0.004    0.005  103.446  129.613
 mp_waitany                        9824 12.4   87.120  113.252   87.120  113.252
 rs_pw_transfer_RS2PW_200            64 10.0    3.589    4.105   85.564  111.946
 mp_alltoall_d11v                   884 10.3   76.164  100.384   76.164  100.384
 rs_gather_matrices                  62 11.0    0.238    0.281   74.973   99.222
 qs_scf_new_mos                      61  6.0    0.006    0.009   76.779   76.881
 qs_vxc_create                       62  9.0    0.002    0.003   73.261   74.141
 xc_vxc_pw_create                    62 10.0    1.659    2.073   73.259   74.139
 eigensolver                         61  7.0    0.005    0.007   69.193   69.268
 x_to_yz                           1858 16.3   40.543   46.663   63.024   66.127
 mp_alltoall_z22v                  2958 17.1   39.606   61.144   39.606   61.144
 xc_pw_derive                       372 12.0    0.006    0.007   49.386   52.141
 apply_poisson_operator_fft          62 11.0    0.001    0.001   47.186   47.425
 cp_fm_diag_elpa                     62  8.0    0.001    0.001   43.870   44.000
 cp_fm_diag_elpa_base                62  9.0   42.956   43.084   43.770   43.835
 yz_to_x                           1100 15.8   11.411   12.253   28.535   40.458
 xc_rho_set_and_dset_create          62 11.0    0.706    0.880   38.187   38.972
 apply_inv_laplace_operator_fft     161 11.6    1.344    1.472   35.485   36.585
 pw_scatter_p                      1858 15.3   31.382   34.958   31.382   34.958
 xc_pw_divergence                    62 11.0    0.003    0.004   32.411   34.229
 ps_implicit_compute_veps            62 11.0    0.747    0.882   32.693   33.538
 gspace_mixing                       60  6.0    0.330    0.351   29.286   29.286
 pw_derive                         1326 13.1   25.274   26.202   25.274   26.202
 ps_implicit_compute_error_fft       97 10.9    1.796    1.928   23.932   25.642
 cp_fm_triangular_multiply          183  8.0   24.583   24.827   24.583   24.827
 potential_pw2rs                     62 11.0    0.050    0.056   23.904   24.006
 broyden_mixing                      60  7.0   21.227   21.627   21.764   21.947
 pw_gather_p                       1100 14.8   16.530   17.128   16.530   17.128
 -------------------------------------------------------------------------------

 The number of warnings for this run is : 1
 
 -------------------------------------------------------------------------------
  **** **** ******  **  PROGRAM ENDED AT                 2023-12-03 02:33:32.780
 ***** ** ***  *** **   PROGRAM RAN ON                                     cu042
 **    ****   ******    PROGRAM RAN BY                                     jxzhu
 ***** **    ** ** **   PROGRAM PROCESS ID                                  4838
  **** **  *******  **  PROGRAM STOPPED IN /public/home/jxzhu/tmp_calc/04c0855f9
                                           8753fac23fde4df51ba20f3741a9e9a/calc/
                                           task.000.000000
