 DBCSR| CPU Multiplication driver                                           XSMM
 DBCSR| Multrec recursion limit                                              512
 DBCSR| Multiplication stack size                                           1000
 DBCSR| Maximum elements for images                                    UNLIMITED
 DBCSR| Multiplicative factor virtual images                                   1
 DBCSR| Use multiplication densification                                       T
 DBCSR| Multiplication size stacks                                             3
 DBCSR| Use memory pool for CPU allocation                                     F
 DBCSR| Number of 3D layers                                               SINGLE
 DBCSR| Use MPI memory allocation                                              F
 DBCSR| Use RMA algorithm                                                      F
 DBCSR| Use Communication thread                                               T
 DBCSR| Communication thread load                                             87
 DBCSR| MPI: My node id                                                        0
 DBCSR| MPI: Number of nodes                                                 128
 DBCSR| OMP: Current number of threads                                         1
 DBCSR| OMP: Max number of threads                                             1
 DBCSR| Split modifier for TAS multiplication algorithm                  1.0E+00


  **** **** ******  **  PROGRAM STARTED AT               2023-12-03 04:18:30.646
 ***** ** ***  *** **   PROGRAM STARTED ON                                 cu001
 **    ****   ******    PROGRAM STARTED BY                                 jxzhu
 ***** **    ** ** **   PROGRAM PROCESS ID                                  7618
  **** **  *******  **  PROGRAM STARTED IN /public/home/jxzhu/tmp_calc/838b9d930
                                           817b6ecb12a03eba75006846ce0baca/calc/
                                           002600.000/search_hi.000000

 CP2K| version string:                                       CP2K version 2022.1
 CP2K| source code revision number:                                  git:2caeb6f
 CP2K| cp2kflags: omp libint fftw3 libxc elpa parallel mpi3 scalapack cosma xsmm
 CP2K|             plumed2 spglib mkl sirius libvori libbqb
 CP2K| is freely available from                            https://www.cp2k.org/
 CP2K| Program compiled at                           Mon Jul 3 17:37:06 CST 2023
 CP2K| Program compiled on                                                 mu003
 CP2K| Program compiled for                                                local
 CP2K| Data directory path                             /public/home/jxzhu/basis/
 CP2K| Input file name                                                 input.inp
 
 GLOBAL| Force Environment number                                              1
 GLOBAL| Basis set file name                                        BASIS_MOLOPT
 GLOBAL| Potential file name                                      GTH_POTENTIALS
 GLOBAL| MM Potential file name                                     MM_POTENTIAL
 GLOBAL| Coordinate file name                                          coord.xyz
 GLOBAL| Method name                                                        CP2K
 GLOBAL| Project name                                                       cp2k
 GLOBAL| Run type                                                   ENERGY_FORCE
 GLOBAL| FFT library                                                       FFTW3
 GLOBAL| Diagonalization library                                            ELPA
 GLOBAL| Minimum number of eigenvectors for ELPA usage                        16
 GLOBAL| Orthonormality check for eigenvectors                          DISABLED
 GLOBAL| Matrix multiplication library                                     COSMA
 GLOBAL| All-to-all communication in single precision                          F
 GLOBAL| FFTs using library dependent lengths                                  T
 GLOBAL| Grid backend                                                       AUTO
 GLOBAL| Global print level                                               MEDIUM
 GLOBAL| MPI I/O enabled                                                       T
 GLOBAL| Total number of message passing processes                           128
 GLOBAL| Number of threads for this process                                    1
 GLOBAL| This output is from process                                           0
 GLOBAL| Stack size for threads created by OpenMP (OMP_STACKSIZE)        default
 GLOBAL| CPU model name                 Intel(R) Xeon(R) Gold 6338 CPU @ 2.00GHz
 GLOBAL| CPUID                                                              1003

 MEMORY| system memory details [Kb]
 MEMORY|                        rank 0           min           max       average
 MEMORY| MemTotal            263619172     263619172     263619172     263619172
 MEMORY| MemFree             218629108     215779820     218629852     217205210
 MEMORY| Buffers                    20            20            36            28
 MEMORY| Cached                1612556        735544       1612556       1174041
 MEMORY| Slab                  1406900       1406900       1424164       1415532
 MEMORY| SReclaimable           244236        230624        244236        237430
 MEMORY| MemLikelyFree       220485920     216746024     220486540     218616710


 *** Fundamental physical constants (SI units) ***

 *** Literature: B. J. Mohr and B. N. Taylor,
 ***             CODATA recommended values of the fundamental physical
 ***             constants: 2006, Web Version 5.1
 ***             http://physics.nist.gov/constants

 Speed of light in vacuum [m/s]                             2.99792458000000E+08
 Magnetic constant or permeability of vacuum [N/A**2]       1.25663706143592E-06
 Electric constant or permittivity of vacuum [F/m]          8.85418781762039E-12
 Planck constant (h) [J*s]                                  6.62606896000000E-34
 Planck constant (h-bar) [J*s]                              1.05457162825177E-34
 Elementary charge [C]                                      1.60217648700000E-19
 Electron mass [kg]                                         9.10938215000000E-31
 Electron g factor [ ]                                     -2.00231930436220E+00
 Proton mass [kg]                                           1.67262163700000E-27
 Fine-structure constant                                    7.29735253760000E-03
 Rydberg constant [1/m]                                     1.09737315685270E+07
 Avogadro constant [1/mol]                                  6.02214179000000E+23
 Boltzmann constant [J/K]                                   1.38065040000000E-23
 Atomic mass unit [kg]                                      1.66053878200000E-27
 Bohr radius [m]                                            5.29177208590000E-11

 *** Conversion factors ***

 [u] -> [a.u.]                                              1.82288848426455E+03
 [Angstrom] -> [Bohr] = [a.u.]                              1.88972613288564E+00
 [a.u.] = [Bohr] -> [Angstrom]                              5.29177208590000E-01
 [a.u.] -> [s]                                              2.41888432650478E-17
 [a.u.] -> [fs]                                             2.41888432650478E-02
 [a.u.] -> [J]                                              4.35974393937059E-18
 [a.u.] -> [N]                                              8.23872205491840E-08
 [a.u.] -> [K]                                              3.15774647902944E+05
 [a.u.] -> [kJ/mol]                                         2.62549961709828E+03
 [a.u.] -> [kcal/mol]                                       6.27509468713739E+02
 [a.u.] -> [Pa]                                             2.94210107994716E+13
 [a.u.] -> [bar]                                            2.94210107994716E+08
 [a.u.] -> [atm]                                            2.90362800883016E+08
 [a.u.] -> [eV]                                             2.72113838565563E+01
 [a.u.] -> [Hz]                                             6.57968392072181E+15
 [a.u.] -> [1/cm] (wave numbers)                            2.19474631370540E+05
 [a.u./Bohr**2] -> [1/cm]                                   5.14048714338585E+03
 

 CELL_TOP| Volume [angstrom^3]:                                     17614.982639
 CELL_TOP| Vector a [angstrom    16.869     0.000     0.000   |a| =    16.869000
 CELL_TOP| Vector b [angstrom    -8.434    14.609     0.000   |b| =    16.869015
 CELL_TOP| Vector c [angstrom     0.000     0.000    71.478   |c| =    71.478000
 CELL_TOP| Angle (b,c), alpha [degree]:                                90.000000
 CELL_TOP| Angle (a,c), beta  [degree]:                                90.000000
 CELL_TOP| Angle (a,b), gamma [degree]:                               119.999970
 CELL_TOP| Numerically orthorhombic:                                          NO
 
 GENERATE|  Preliminary Number of Bonds generated:                             0
 GENERATE|  Achieved consistency in connectivity generation.

 CELL| Volume [angstrom^3]:                                         17614.982639
 CELL| Vector a [angstrom]:      16.869     0.000     0.000   |a| =    16.869000
 CELL| Vector b [angstrom]:      -8.434    14.609     0.000   |b| =    16.869015
 CELL| Vector c [angstrom]:       0.000     0.000    71.478   |c| =    71.478000
 CELL| Angle (b,c), alpha [degree]:                                    90.000000
 CELL| Angle (a,c), beta  [degree]:                                    90.000000
 CELL| Angle (a,b), gamma [degree]:                                   119.999970
 CELL| Numerically orthorhombic:                                              NO

 CELL_REF| Volume [angstrom^3]:                                     17614.982639
 CELL_REF| Vector a [angstrom    16.869     0.000     0.000   |a| =    16.869000
 CELL_REF| Vector b [angstrom    -8.434    14.609     0.000   |b| =    16.869015
 CELL_REF| Vector c [angstrom     0.000     0.000    71.478   |c| =    71.478000
 CELL_REF| Angle (b,c), alpha [degree]:                                90.000000
 CELL_REF| Angle (a,c), beta  [degree]:                                90.000000
 CELL_REF| Angle (a,b), gamma [degree]:                               119.999970
 CELL_REF| Numerically orthorhombic:                                          NO

 *******************************************************************************
 *******************************************************************************
 **                                                                           **
 **     #####                         ##              ##                      **
 **    ##   ##            ##          ##              ##                      **
 **   ##     ##                       ##            ######                    **
 **   ##     ##  ##   ##  ##   #####  ##  ##   ####   ##    #####    #####    **
 **   ##     ##  ##   ##  ##  ##      ## ##   ##      ##   ##   ##  ##   ##   **
 **   ##  ## ##  ##   ##  ##  ##      ####     ###    ##   ######   ######    **
 **    ##  ###   ##   ##  ##  ##      ## ##      ##   ##   ##       ##        **
 **     #######   #####   ##   #####  ##  ##  ####    ##    #####   ##        **
 **           ##                                                    ##        **
 **                                                                           **
 **                                                ... make the atoms dance   **
 **                                                                           **
 **            Copyright (C) by CP2K developers group (2000-2022)             **
 **                      J. Chem. Phys. 152, 194103 (2020)                    **
 **                                                                           **
 *******************************************************************************

 DFT| Spin restricted Kohn-Sham (RKS) calculation                            RKS
 DFT| Multiplicity                                                             1
 DFT| Number of spin states                                                    1
 DFT| Charge                                                                   0
 DFT| Self-interaction correction (SIC)                                       NO
 DFT| Cutoffs: density                                              1.000000E-10
 DFT|          gradient                                             1.000000E-10
 DFT|          tau                                                  1.000000E-10
 DFT|          cutoff_smoothing_range                               0.000000E+00
 DFT| XC density smoothing                                                  NONE
 DFT| XC derivatives                                                          PW

 FUNCTIONAL| PBE:
 FUNCTIONAL| J.P.Perdew, K.Burke, M.Ernzerhof, Phys. Rev. Letter, vol. 77, n 18,
 FUNCTIONAL|  pp. 3865-3868, (1996){spin unpolarized}                           

 vdW POTENTIAL|                                                   Pair Potential
 vdW POTENTIAL|          DFT-D3 (Version 3.1)
 vdW POTENTIAL|          Potential Form: S. Grimme et al, JCP 132: 154104 (2010)
 vdW POTENTIAL|          Zero Damping
 vdW POTENTIAL|          Cutoff Radius [Bohr]:                             20.00
 vdW POTENTIAL|          s6 Scaling Factor:                               1.0000
 vdW POTENTIAL|          sr6 Scaling Factor:                              1.2170
 vdW POTENTIAL|          s8 Scaling Factor:                               0.7220
 vdW POTENTIAL|          Cutoff for CN calculation:                   0.1000E-05

 QS| Method:                                                                 GPW
 QS| Density plane wave grid type                        NON-SPHERICAL FULLSPACE
 QS| Number of grid levels:                                                    4
 QS| Density cutoff [a.u.]:                                                200.0
 QS| Multi grid cutoff [a.u.]: 1) grid level                               200.0
 QS|                           2) grid level                                66.7
 QS|                           3) grid level                                22.2
 QS|                           4) grid level                                 7.4
 QS| Grid level progression factor:                                          3.0
 QS| Relative density cutoff [a.u.]:                                        20.0
 QS| Interaction thresholds: eps_pgf_orb:                                3.2E-07
 QS|                         eps_filter_matrix:                          0.0E+00
 QS|                         eps_core_charge:                            1.0E-15
 QS|                         eps_rho_gspace:                             1.0E-13
 QS|                         eps_rho_rspace:                             1.0E-13
 QS|                         eps_gvg_rspace:                             3.2E-07
 QS|                         eps_ppl:                                    1.0E-02
 QS|                         eps_ppnl:                                   3.2E-09


 ATOMIC KIND INFORMATION

  1. Atomic kind: O                                     Number of atoms:     100

     Orbital Basis Set                                        DZVP-MOLOPT-SR-GTH

       Number of orbital shell sets:                                           1
       Number of orbital shells:                                               5
       Number of primitive Cartesian functions:                                5
       Number of Cartesian basis functions:                                   14
       Number of spherical basis functions:                                   13
       Norm type:                                                              2

       Normalised Cartesian orbitals:

                        Set   Shell   Orbital            Exponent    Coefficient

                          1       1    2s               10.389228       0.396646
                                                         3.849621       0.208811
                                                         1.388401      -0.301641
                                                         0.496955      -0.274061
                                                         0.162492      -0.033677

                          1       2    3s               10.389228       0.303673
                                                         3.849621       0.240943
                                                         1.388401      -0.313066
                                                         0.496955      -0.043055
                                                         0.162492       0.213991

                          1       3    3px              10.389228      -1.530415
                                                         3.849621      -1.371928
                                                         1.388401      -0.761951
                                                         0.496955      -0.253695
                                                         0.162492      -0.035541
                          1       3    3py              10.389228      -1.530415
                                                         3.849621      -1.371928
                                                         1.388401      -0.761951
                                                         0.496955      -0.253695
                                                         0.162492      -0.035541
                          1       3    3pz              10.389228      -1.530415
                                                         3.849621      -1.371928
                                                         1.388401      -0.761951
                                                         0.496955      -0.253695
                                                         0.162492      -0.035541

                          1       4    4px              10.389228      -0.565392
                                                         3.849621      -0.038231
                                                         1.388401      -0.382373
                                                         0.496955       0.179070
                                                         0.162492       0.122714
                          1       4    4py              10.389228      -0.565392
                                                         3.849621      -0.038231
                                                         1.388401      -0.382373
                                                         0.496955       0.179070
                                                         0.162492       0.122714
                          1       4    4pz              10.389228      -0.565392
                                                         3.849621      -0.038231
                                                         1.388401      -0.382373
                                                         0.496955       0.179070
                                                         0.162492       0.122714

                          1       5    4dx2             10.389228       1.867377
                                                         3.849621       0.670994
                                                         1.388401       1.353441
                                                         0.496955       0.273538
                                                         0.162492       0.006620
                          1       5    4dxy             10.389228       3.234392
                                                         3.849621       1.162195
                                                         1.388401       2.344229
                                                         0.496955       0.473781
                                                         0.162492       0.011466
                          1       5    4dxz             10.389228       3.234392
                                                         3.849621       1.162195
                                                         1.388401       2.344229
                                                         0.496955       0.473781
                                                         0.162492       0.011466
                          1       5    4dy2             10.389228       1.867377
                                                         3.849621       0.670994
                                                         1.388401       1.353441
                                                         0.496955       0.273538
                                                         0.162492       0.006620
                          1       5    4dyz             10.389228       3.234392
                                                         3.849621       1.162195
                                                         1.388401       2.344229
                                                         0.496955       0.473781
                                                         0.162492       0.011466
                          1       5    4dz2             10.389228       1.867377
                                                         3.849621       0.670994
                                                         1.388401       1.353441
                                                         0.496955       0.273538
                                                         0.162492       0.006620

       Atomic covalent radius [Angstrom]:                                  0.730

       Atomic van der Waals radius [Angstrom]:                             1.520

     GTH Potential information for                                    GTH-PBE-q6

       Description:                       Goedecker-Teter-Hutter pseudopotential
                                           Goedecker et al., PRB 54, 1703 (1996)
                                          Hartwigsen et al., PRB 58, 3641 (1998)
                                                      Krack, TCA 114, 145 (2005)

       Gaussian exponent of the core charge distribution:               8.360253
       Electronic configuration (s p d ...):                               2   4

       Parameters of the local part of the GTH pseudopotential:

                          rloc        C1          C2          C3          C4
                        0.244554  -16.667215    2.487311

       Parameters of the non-local part of the GTH pseudopotential:

                   l      r(l)      h(i,j,l)

                   0    0.220956   18.337458
                   1    0.211332

  2. Atomic kind: H                                     Number of atoms:     200

     Orbital Basis Set                                        DZVP-MOLOPT-SR-GTH

       Number of orbital shell sets:                                           1
       Number of orbital shells:                                               3
       Number of primitive Cartesian functions:                                5
       Number of Cartesian basis functions:                                    5
       Number of spherical basis functions:                                    5
       Norm type:                                                              2

       Normalised Cartesian orbitals:

                        Set   Shell   Orbital            Exponent    Coefficient

                          1       1    2s               10.068468      -0.133023
                                                         2.680223      -0.177618
                                                         0.791502      -0.258419
                                                         0.239116      -0.107525
                                                         0.082193      -0.014019

                          1       2    3s               10.068468       0.344673
                                                         2.680223       1.819821
                                                         0.791502      -0.999069
                                                         0.239116       0.017430
                                                         0.082193       0.082660

                          1       3    3px              10.068468       0.155326
                                                         2.680223       0.367157
                                                         0.791502       0.311480
                                                         0.239116       0.080105
                                                         0.082193       0.033440
                          1       3    3py              10.068468       0.155326
                                                         2.680223       0.367157
                                                         0.791502       0.311480
                                                         0.239116       0.080105
                                                         0.082193       0.033440
                          1       3    3pz              10.068468       0.155326
                                                         2.680223       0.367157
                                                         0.791502       0.311480
                                                         0.239116       0.080105
                                                         0.082193       0.033440

       Atomic covalent radius [Angstrom]:                                  0.320

       Atomic van der Waals radius [Angstrom]:                             1.090

     GTH Potential information for                                    GTH-PBE-q1

       Description:                       Goedecker-Teter-Hutter pseudopotential
                                           Goedecker et al., PRB 54, 1703 (1996)
                                          Hartwigsen et al., PRB 58, 3641 (1998)
                                                      Krack, TCA 114, 145 (2005)

       Gaussian exponent of the core charge distribution:              12.500000
       Electronic configuration (s p d ...):                                   1

       Parameters of the local part of the GTH pseudopotential:

                          rloc        C1          C2          C3          C4
                        0.200000   -4.178900    0.724463

  3. Atomic kind: Pt                                    Number of atoms:     216

     Orbital Basis Set                      DZVP-A5-Q10-323-MOL-T1-DERIVED_SET-1

       Number of orbital shell sets:                                           1
       Number of orbital shells:                                               6
       Number of primitive Cartesian functions:                                5
       Number of Cartesian basis functions:                                   23
       Number of spherical basis functions:                                   20
       Norm type:                                                              2

       Normalised Cartesian orbitals:

                        Set   Shell   Orbital            Exponent    Coefficient

                          1       1    2s                2.521825       0.177473
                                                         1.453920      -0.063399
                                                         0.614053      -0.407089
                                                         0.232656       0.262254
                                                         0.074788       0.047371

                          1       2    3s                2.521825      -0.049056
                                                         1.453920       0.044904
                                                         0.614053      -0.009756
                                                         0.232656      -0.144709
                                                         0.074788       0.144085

                          1       3    3px               2.521825      -0.317572
                                                         1.453920       0.534826
                                                         0.614053      -0.489458
                                                         0.232656       0.245631
                                                         0.074788       0.018221
                          1       3    3py               2.521825      -0.317572
                                                         1.453920       0.534826
                                                         0.614053      -0.489458
                                                         0.232656       0.245631
                                                         0.074788       0.018221
                          1       3    3pz               2.521825      -0.317572
                                                         1.453920       0.534826
                                                         0.614053      -0.489458
                                                         0.232656       0.245631
                                                         0.074788       0.018221

                          1       4    4dx2              2.521825       3.008522
                                                         1.453920      -1.224251
                                                         0.614053       0.225691
                                                         0.232656       0.125144
                                                         0.074788      -0.015348
                          1       4    4dxy              2.521825       5.210912
                                                         1.453920      -2.120465
                                                         0.614053       0.390909
                                                         0.232656       0.216756
                                                         0.074788      -0.026584
                          1       4    4dxz              2.521825       5.210912
                                                         1.453920      -2.120465
                                                         0.614053       0.390909
                                                         0.232656       0.216756
                                                         0.074788      -0.026584
                          1       4    4dy2              2.521825       3.008522
                                                         1.453920      -1.224251
                                                         0.614053       0.225691
                                                         0.232656       0.125144
                                                         0.074788      -0.015348
                          1       4    4dyz              2.521825       5.210912
                                                         1.453920      -2.120465
                                                         0.614053       0.390909
                                                         0.232656       0.216756
                                                         0.074788      -0.026584
                          1       4    4dz2              2.521825       3.008522
                                                         1.453920      -1.224251
                                                         0.614053       0.225691
                                                         0.232656       0.125144
                                                         0.074788      -0.015348

                          1       5    5dx2              2.521825       0.698026
                                                         1.453920      -1.511486
                                                         0.614053      -0.335394
                                                         0.232656      -0.025564
                                                         0.074788      -0.002699
                          1       5    5dxy              2.521825       1.209017
                                                         1.453920      -2.617970
                                                         0.614053      -0.580920
                                                         0.232656      -0.044277
                                                         0.074788      -0.004674
                          1       5    5dxz              2.521825       1.209017
                                                         1.453920      -2.617970
                                                         0.614053      -0.580920
                                                         0.232656      -0.044277
                                                         0.074788      -0.004674
                          1       5    5dy2              2.521825       0.698026
                                                         1.453920      -1.511486
                                                         0.614053      -0.335394
                                                         0.232656      -0.025564
                                                         0.074788      -0.002699
                          1       5    5dyz              2.521825       1.209017
                                                         1.453920      -2.617970
                                                         0.614053      -0.580920
                                                         0.232656      -0.044277
                                                         0.074788      -0.004674
                          1       5    5dz2              2.521825       0.698026
                                                         1.453920      -1.511486
                                                         0.614053      -0.335394
                                                         0.232656      -0.025564
                                                         0.074788      -0.002699

                          1       6    6dx2              2.521825       0.831079
                                                         1.453920      -0.709226
                                                         0.614053      -0.137351
                                                         0.232656       0.068642
                                                         0.074788       0.011745
                          1       6    6dxy              2.521825       1.439472
                                                         1.453920      -1.228415
                                                         0.614053      -0.237899
                                                         0.232656       0.118891
                                                         0.074788       0.020343
                          1       6    6dxz              2.521825       1.439472
                                                         1.453920      -1.228415
                                                         0.614053      -0.237899
                                                         0.232656       0.118891
                                                         0.074788       0.020343
                          1       6    6dy2              2.521825       0.831079
                                                         1.453920      -0.709226
                                                         0.614053      -0.137351
                                                         0.232656       0.068642
                                                         0.074788       0.011745
                          1       6    6dyz              2.521825       1.439472
                                                         1.453920      -1.228415
                                                         0.614053      -0.237899
                                                         0.232656       0.118891
                                                         0.074788       0.020343
                          1       6    6dz2              2.521825       0.831079
                                                         1.453920      -0.709226
                                                         0.614053      -0.137351
                                                         0.232656       0.068642
                                                         0.074788       0.011745

       Atomic covalent radius [Angstrom]:                                  1.300

       Atomic van der Waals radius [Angstrom]:                             1.750

     GTH Potential information for                                   GTH-PBE-q10

       Description:                       Goedecker-Teter-Hutter pseudopotential
                                           Goedecker et al., PRB 54, 1703 (1996)
                                          Hartwigsen et al., PRB 58, 3641 (1998)
                                                      Krack, TCA 114, 145 (2005)

       Gaussian exponent of the core charge distribution:               1.317676
       Electronic configuration (s p d ...):                           1   0   9

       Parameters of the local part of the GTH pseudopotential:

                          rloc        C1          C2          C3          C4
                        0.616000   11.313635

       Parameters of the non-local part of the GTH pseudopotential:

                   l      r(l)      h(i,j,l)

                   0    0.550904    4.733491   -1.784594
                                   -1.784594    2.303901
                   1    0.674138    2.534798   -1.778066
                                   -1.778066    2.103836
                   2    0.457392   -7.264011    2.558665
                                    2.558665   -2.901253


 MOLECULE KIND INFORMATION


 All atoms are their own molecule, skipping detailed information


 TOTAL NUMBERS AND MAXIMUM NUMBERS

  Total number of            - Atomic kinds:                                   3
                             - Atoms:                                        516
                             - Shell sets:                                   516
                             - Shells:                                      2396
                             - Primitive Cartesian functions:               2580
                             - Cartesian basis functions:                   7368
                             - Spherical basis functions:                   6620

  Maximum angular momentum of- Orbital basis functions:                        2
                             - Local part of the GTH pseudopotential:          2
                             - Non-local part of the GTH pseudopotential:      4


 MODULE QUICKSTEP:  ATOMIC COORDINATES IN angstrom

 Atom  Kind  Element       X           Y           Z          Z(eff)       Mass
    1   1 O    8      16.180000   34.580002   38.488001       6.0000     15.9994
    2   2 H    1      15.440001   34.910004   38.007999       1.0000      1.0079
    3   2 H    1      15.940001   33.670002   38.818001       1.0000      1.0079
    4   1 O    8     -17.900002    3.810000   31.537998       6.0000     15.9994
    5   2 H    1     -18.790001    3.710000   31.997999       1.0000      1.0079
    6   2 H    1     -18.020000    4.580000   30.927999       1.0000      1.0079
    7   1 O    8      -7.690001  -15.920001   38.997999       6.0000     15.9994
    8   2 H    1      -7.840000  -15.970001   39.957998       1.0000      1.0079
    9   2 H    1      -8.550000  -15.560001   38.617998       1.0000      1.0079
   10   1 O    8      -6.060000  -17.680000   29.948000       6.0000     15.9994
   11   2 H    1      -6.870000  -17.850000   29.407999       1.0000      1.0079
   12   2 H    1      -6.030001  -16.730001   30.187998       1.0000      1.0079
   13   1 O    8       2.740000   20.970001   33.817999       6.0000     15.9994
   14   2 H    1       2.380000   21.770000   34.337999       1.0000      1.0079
   15   2 H    1       3.560000   20.650002   34.327999       1.0000      1.0079
   16   1 O    8     -18.900002   22.470001   30.037996       6.0000     15.9994
   17   2 H    1     -18.440001   22.660000   29.167997       1.0000      1.0079
   18   2 H    1     -19.600000   23.090000   30.267996       1.0000      1.0079
   19   1 O    8       4.960000  -10.900001   32.878000       6.0000     15.9994
   20   2 H    1       4.380000  -11.200000   32.197998       1.0000      1.0079
   21   2 H    1       4.910000  -11.490001   33.667999       1.0000      1.0079
   22   1 O    8     -18.630001   46.119999   35.087999       6.0000     15.9994
   23   2 H    1     -19.510000   46.470001   35.357998       1.0000      1.0079
   24   2 H    1      -1.370000   46.720005   34.367998       1.0000      1.0079
   25   1 O    8      -4.340000    9.660000   35.747999       6.0000     15.9994
   26   2 H    1     -12.430000   24.010000   34.827999       1.0000      1.0079
   27   2 H    1      -4.290000   10.630001   35.677999       1.0000      1.0079
   28   1 O    8       4.900000   12.420001   29.707998       6.0000     15.9994
   29   2 H    1       5.150001   12.160001   28.828001       1.0000      1.0079
   30   2 H    1       3.970000   12.710000   29.777998       1.0000      1.0079
   31   1 O    8     -27.180002   -2.940000   30.347998       6.0000     15.9994
   32   2 H    1     -27.230000   -2.970000   31.297998       1.0000      1.0079
   33   2 H    1     -26.240002   -2.980000   30.207998       1.0000      1.0079
   34   1 O    8     -11.590000    5.380001   37.487999       6.0000     15.9994
   35   2 H    1     -10.860001    5.830000   37.957998       1.0000      1.0079
   36   2 H    1     -12.190001    5.200000   38.237999       1.0000      1.0079
   37   1 O    8     -30.150002   25.940001   39.738001       6.0000     15.9994
   38   2 H    1     -30.389999   25.000000   39.508001       1.0000      1.0079
   39   2 H    1     -30.950001   26.200001   40.198000       1.0000      1.0079
   40   1 O    8     -21.970001   15.760001   32.687998       6.0000     15.9994
   41   2 H    1     -29.770002   30.120001   33.447998       1.0000      1.0079
   42   2 H    1     -21.380001   15.770000   31.897999       1.0000      1.0079
   43   1 O    8     -36.920002   14.960001   34.077997       6.0000     15.9994
   44   2 H    1     -36.360001   15.670000   34.478000       1.0000      1.0079
   45   2 H    1     -36.970001   14.180001   34.697998       1.0000      1.0079
   46   1 O    8     -12.270001   -3.910000   29.108000       6.0000     15.9994
   47   2 H    1     -11.380000   -3.400000   29.367998       1.0000      1.0079
   48   2 H    1     -13.050001   -3.600000   29.648001       1.0000      1.0079
   49   1 O    8     -27.650002   14.710001   35.677999       6.0000     15.9994
   50   2 H    1     -28.170002   15.550001   35.457998       1.0000      1.0079
   51   2 H    1     -26.750002   14.930000   35.337999       1.0000      1.0079
   52   1 O    8      -4.940000   -0.050000   38.837999       6.0000     15.9994
   53   2 H    1      -5.120000   -0.570000   38.007999       1.0000      1.0079
   54   2 H    1      -4.730000    0.850000   38.488001       1.0000      1.0079
   55   1 O    8       5.880000   -3.000000   33.198000       6.0000     15.9994
   56   2 H    1       5.650000   -3.920000   32.878000       1.0000      1.0079
   57   2 H    1       5.100000   -2.740000   33.717998       1.0000      1.0079
   58   1 O    8     -11.050000   23.720001   37.657999       6.0000     15.9994
   59   2 H    1     -10.280000   23.750000   37.027998       1.0000      1.0079
   60   2 H    1     -11.870001   24.030001   37.167997       1.0000      1.0079
   61   1 O    8       5.230000   -6.660000   30.177999       6.0000     15.9994
   62   2 H    1       6.110000   -6.420000   30.577999       1.0000      1.0079
   63   2 H    1       4.870000   -5.890000   29.567999       1.0000      1.0079
   64   1 O    8     -25.110001   15.470000   34.927999       6.0000     15.9994
   65   2 H    1     -24.950001   16.060001   34.107998       1.0000      1.0079
   66   2 H    1     -24.720001   16.100002   35.637998       1.0000      1.0079
   67   1 O    8       4.970000    6.230001   34.627998       6.0000     15.9994
   68   2 H    1       4.790000    5.730000   35.427997       1.0000      1.0079
   69   2 H    1       4.610000    5.710001   33.837999       1.0000      1.0079
   70   1 O    8      27.980001   10.250001   32.308000       6.0000     15.9994
   71   2 H    1      27.820000   10.780001   31.507997       1.0000      1.0079
   72   2 H    1      27.140003    9.880000   32.608000       1.0000      1.0079
   73   1 O    8      38.690002    5.580000   29.297998       6.0000     15.9994
   74   2 H    1      39.320000    6.340000   29.667997       1.0000      1.0079
   75   2 H    1      39.250000    4.730000   29.288000       1.0000      1.0079
   76   1 O    8      20.590000   46.370003   38.337999       6.0000     15.9994
   77   2 H    1      19.880001   47.080002   38.017999       1.0000      1.0079
   78   2 H    1      37.520000   46.650005   39.317999       1.0000      1.0079
   79   1 O    8     -14.830000   37.450001   30.067999       6.0000     15.9994
   80   2 H    1     -13.950001   37.810001   29.977999       1.0000      1.0079
   81   2 H    1     -15.040001   37.010002   29.218000       1.0000      1.0079
   82   1 O    8      10.110001    4.230000   37.997999       6.0000     15.9994
   83   2 H    1       9.630001    3.860000   37.188000       1.0000      1.0079
   84   2 H    1      10.130000    5.220000   37.787998       1.0000      1.0079
   85   1 O    8       1.460000   27.830002   34.797998       6.0000     15.9994
   86   2 H    1       1.600000   27.920000   33.847997       1.0000      1.0079
   87   2 H    1       1.000000   28.690002   35.097997       1.0000      1.0079
   88   1 O    8      17.910002   -5.930000   29.858000       6.0000     15.9994
   89   2 H    1      18.260000   -5.720000   28.977999       1.0000      1.0079
   90   2 H    1      18.710001   -6.230001   30.277998       1.0000      1.0079
   91   1 O    8      13.250000    0.610000   32.608000       6.0000     15.9994
   92   2 H    1      13.900002    0.400000   33.277998       1.0000      1.0079
   93   2 H    1      12.430000    0.230000   32.927997       1.0000      1.0079
   94   1 O    8      -2.050000    2.720000   37.608000       6.0000     15.9994
   95   2 H    1      -1.650000    2.170000   38.277998       1.0000      1.0079
   96   2 H    1      -3.010000    2.700000   37.738001       1.0000      1.0079
   97   1 O    8      11.350001   -1.630000   36.358000       6.0000     15.9994
   98   2 H    1      10.840001   -2.450000   36.657999       1.0000      1.0079
   99   2 H    1      12.050000   -1.890000   35.728000       1.0000      1.0079
  100   1 O    8      -5.750000   -9.760000   30.117998       6.0000     15.9994
  101   2 H    1      -6.170001  -10.640000   29.937998       1.0000      1.0079
  102   2 H    1      -4.950000   -9.630001   29.567999       1.0000      1.0079
  103   1 O    8      44.060001  -15.610001   31.957998       6.0000     15.9994
  104   2 H    1      44.430004  -14.740001   32.107998       1.0000      1.0079
  105   2 H    1      43.209999  -15.430001   31.517999       1.0000      1.0079
  106   1 O    8      11.840000   -9.570000   39.727999       6.0000     15.9994
  107   2 H    1       2.630000    5.240001   39.177999       1.0000      1.0079
  108   2 H    1      12.080001   -8.560000   40.047998       1.0000      1.0079
  109   1 O    8     -26.330002   36.270000   38.538000       6.0000     15.9994
  110   2 H    1      -9.640000   37.120003   38.977999       1.0000      1.0079
  111   2 H    1     -25.380001   36.170002   38.368000       1.0000      1.0079
  112   1 O    8      27.170002  -14.200001   29.007997       6.0000     15.9994
  113   2 H    1      26.550003  -14.950001   29.177999       1.0000      1.0079
  114   2 H    1      26.660002  -13.440001   29.328001       1.0000      1.0079
  115   1 O    8       3.610000   10.280000   33.337999       6.0000     15.9994
  116   2 H    1       3.770000   11.160001   33.707998       1.0000      1.0079
  117   2 H    1       2.610000   10.350000   33.217998       1.0000      1.0079
  118   1 O    8     -15.980000   10.910001   29.827997       6.0000     15.9994
  119   2 H    1     -16.080000   10.710001   28.847998       1.0000      1.0079
  120   2 H    1     -15.680000   10.070001   30.227999       1.0000      1.0079
  121   1 O    8       3.120000   -7.710000   31.207998       6.0000     15.9994
  122   2 H    1       3.110000   -7.920001   32.227999       1.0000      1.0079
  123   2 H    1       3.900000   -7.180000   31.067999       1.0000      1.0079
  124   1 O    8      35.240002   -7.730001   37.677999       6.0000     15.9994
  125   2 H    1      35.130001   -7.330000   36.788000       1.0000      1.0079
  126   2 H    1      35.770000   -7.170000   38.307999       1.0000      1.0079
  127   1 O    8      -1.720000   -0.630000   38.267999       6.0000     15.9994
  128   2 H    1      -2.110000   -0.370000   37.407999       1.0000      1.0079
  129   2 H    1      -2.490000   -0.370000   38.867998       1.0000      1.0079
  130   1 O    8     -21.200001   44.840004   37.417999       6.0000     15.9994
  131   2 H    1     -20.559999   44.110001   37.468000       1.0000      1.0079
  132   2 H    1     -22.080002   44.470001   37.468000       1.0000      1.0079
  133   1 O    8      -9.170000  -10.380001   35.357998       6.0000     15.9994
  134   2 H    1      -9.320001  -10.630001   36.337999       1.0000      1.0079
  135   2 H    1      -9.300001  -11.260000   34.967998       1.0000      1.0079
  136   1 O    8      14.390000   29.730000   29.887998       6.0000     15.9994
  137   2 H    1      22.400000   14.880000   30.747999       1.0000      1.0079
  138   2 H    1      -2.800000   29.139999   29.207998       1.0000      1.0079
  139   1 O    8       1.840000   -6.180000   35.267999       6.0000     15.9994
  140   2 H    1       2.610000   -5.730000   35.628000       1.0000      1.0079
  141   2 H    1       1.130000   -5.470000   35.138000       1.0000      1.0079
  142   1 O    8       4.330000   16.830002   35.257997       6.0000     15.9994
  143   2 H    1       4.360000   17.720001   35.717998       1.0000      1.0079
  144   2 H    1       3.480000   16.370001   35.417999       1.0000      1.0079
  145   1 O    8     -24.470001    4.770000   34.948000       6.0000     15.9994
  146   2 H    1     -24.990002    5.590000   35.217998       1.0000      1.0079
  147   2 H    1     -23.660002    5.150001   34.448000       1.0000      1.0079
  148   1 O    8      -8.230000    1.880000   36.837999       6.0000     15.9994
  149   2 H    1      -8.450001    1.340000   37.668001       1.0000      1.0079
  150   2 H    1      -9.000000    2.220000   36.337999       1.0000      1.0079
  151   1 O    8      -4.070000   -4.900000   30.747999       6.0000     15.9994
  152   2 H    1      -4.290000   -4.700000   31.757999       1.0000      1.0079
  153   2 H    1      -3.960000   -3.960000   30.277998       1.0000      1.0079
  154   1 O    8       8.800000   -4.160000   33.167999       6.0000     15.9994
  155   2 H    1       8.280001   -3.380000   33.038000       1.0000      1.0079
  156   2 H    1       8.280001   -4.850000   32.687998       1.0000      1.0079
  157   1 O    8      -0.500000   13.360001   32.387998       6.0000     15.9994
  158   2 H    1      -0.700000   14.010000   31.637998       1.0000      1.0079
  159   2 H    1      -1.260000   13.370000   32.927997       1.0000      1.0079
  160   1 O    8      29.600000   17.920000   35.767999       6.0000     15.9994
  161   2 H    1      29.430000   17.120001   36.358000       1.0000      1.0079
  162   2 H    1      29.880001   18.570002   36.427999       1.0000      1.0079
  163   1 O    8      21.660002   49.430004   28.988001       6.0000     15.9994
  164   2 H    1      22.540001   48.900002   29.027998       1.0000      1.0079
  165   2 H    1      21.970001   50.380001   29.347998       1.0000      1.0079
  166   1 O    8     -31.650002  -14.760000   32.868000       6.0000     15.9994
  167   2 H    1     -32.550003  -15.070001   32.907999       1.0000      1.0079
  168   2 H    1     -31.570000  -14.490002   33.847997       1.0000      1.0079
  169   1 O    8     -12.760000    8.770000   35.577999       6.0000     15.9994
  170   2 H    1     -12.980001    9.360001   34.817999       1.0000      1.0079
  171   2 H    1     -12.390001    8.000000   35.097997       1.0000      1.0079
  172   1 O    8     -10.050000   -0.190000   29.917997       6.0000     15.9994
  173   2 H    1     -10.270000   -1.120000   29.698000       1.0000      1.0079
  174   2 H    1      -9.630001    0.020000   29.077997       1.0000      1.0079
  175   1 O    8     -17.630001   18.290001   33.067999       6.0000     15.9994
  176   2 H    1     -17.840000   19.220001   32.708000       1.0000      1.0079
  177   2 H    1     -16.890001   18.370001   33.667999       1.0000      1.0079
  178   1 O    8       6.320000   21.190002   33.217998       6.0000     15.9994
  179   2 H    1       7.100000   21.080000   33.858000       1.0000      1.0079
  180   2 H    1      14.290000    5.760000   33.067999       1.0000      1.0079
  181   1 O    8      -3.750000   16.010000   30.078001       6.0000     15.9994
  182   2 H    1      -4.540000   15.700001   29.567999       1.0000      1.0079
  183   2 H    1      -3.040000   15.350000   30.017999       1.0000      1.0079
  184   1 O    8     -20.950001   12.560000   35.487999       6.0000     15.9994
  185   2 H    1     -20.700001   12.730000   36.447998       1.0000      1.0079
  186   2 H    1     -21.920002   12.770000   35.417999       1.0000      1.0079
  187   1 O    8      32.870003    8.300000   31.718000       6.0000     15.9994
  188   2 H    1      33.440002    7.820001   31.067999       1.0000      1.0079
  189   2 H    1      32.370003    7.540000   32.237997       1.0000      1.0079
  190   1 O    8      -4.870000    3.060000   30.027998       6.0000     15.9994
  191   2 H    1      -5.390000    2.330000   29.577997       1.0000      1.0079
  192   2 H    1      -5.410000    3.930000   29.917997       1.0000      1.0079
  193   1 O    8      15.070001   -3.970000   34.827999       6.0000     15.9994
  194   2 H    1      14.680000   -4.730000   35.267999       1.0000      1.0079
  195   2 H    1      15.560001   -4.420000   34.077997       1.0000      1.0079
  196   1 O    8      20.900002    9.350000   38.247999       6.0000     15.9994
  197   2 H    1      21.140001    8.920000   37.397999       1.0000      1.0079
  198   2 H    1       4.810000    9.910001   38.458000       1.0000      1.0079
  199   1 O    8     -25.250000   29.650002   39.137998       6.0000     15.9994
  200   2 H    1     -24.400002   29.300001   39.567999       1.0000      1.0079
  201   2 H    1     -25.420000   30.540001   39.677999       1.0000      1.0079
  202   1 O    8      13.290001   13.060001   38.108000       6.0000     15.9994
  203   2 H    1      14.100000   12.980001   38.617998       1.0000      1.0079
  204   2 H    1      12.740001   12.440001   38.628000       1.0000      1.0079
  205   1 O    8      -0.200000   -7.940001   31.977999       6.0000     15.9994
  206   2 H    1      -7.870001    6.110000   31.667999       1.0000      1.0079
  207   2 H    1      -0.680000   -7.590001   31.147999       1.0000      1.0079
  208   1 O    8      16.830002    9.170000   35.807998       6.0000     15.9994
  209   2 H    1      16.820000    9.640000   34.878000       1.0000      1.0079
  210   2 H    1      17.080000    8.220000   35.567999       1.0000      1.0079
  211   1 O    8       1.500000   10.630001   37.427999       6.0000     15.9994
  212   2 H    1       0.940000    9.980000   36.887998       1.0000      1.0079
  213   2 H    1       2.350000   10.030001   37.597997       1.0000      1.0079
  214   1 O    8     -40.260002   30.370003   29.077997       6.0000     15.9994
  215   2 H    1     -40.340004   29.360001   29.358000       1.0000      1.0079
  216   2 H    1     -41.119999   30.780001   29.358000       1.0000      1.0079
  217   1 O    8       0.130000    6.030001   29.977999       6.0000     15.9994
  218   2 H    1      -0.190000    6.050000   29.038000       1.0000      1.0079
  219   2 H    1       1.040000    5.630000   29.878000       1.0000      1.0079
  220   1 O    8      -1.610000   24.400002   39.708000       6.0000     15.9994
  221   2 H    1      -0.840000   24.790001   39.198000       1.0000      1.0079
  222   2 H    1      -1.130000   24.260002   40.547998       1.0000      1.0079
  223   1 O    8      14.380001  -26.300001   28.917997       6.0000     15.9994
  224   2 H    1      13.420000  -26.240002   29.347998       1.0000      1.0079
  225   2 H    1      14.620000  -27.210003   29.237997       1.0000      1.0079
  226   1 O    8      -2.900000    6.350000   37.727999       6.0000     15.9994
  227   2 H    1      -3.480000    6.180000   38.497999       1.0000      1.0079
  228   2 H    1      -2.830000    7.360001   37.647999       1.0000      1.0079
  229   1 O    8     -15.970001   31.990002   33.137998       6.0000     15.9994
  230   2 H    1     -16.500000   32.250000   32.327999       1.0000      1.0079
  231   2 H    1     -15.040001   31.830002   32.948000       1.0000      1.0079
  232   1 O    8      16.500000   24.120003   32.887998       6.0000     15.9994
  233   2 H    1      16.280001   24.540003   31.997999       1.0000      1.0079
  234   2 H    1      16.540001   23.140001   32.778000       1.0000      1.0079
  235   1 O    8       7.680000   10.559999   30.517999       6.0000     15.9994
  236   2 H    1       8.330001    9.800000   30.337999       1.0000      1.0079
  237   2 H    1       6.810000   10.260000   30.177999       1.0000      1.0079
  238   1 O    8      33.850002    6.680000   34.677999       6.0000     15.9994
  239   2 H    1      33.920002    5.710001   34.878000       1.0000      1.0079
  240   2 H    1      34.480003    6.890000   33.847997       1.0000      1.0079
  241   1 O    8       4.670000   -9.510000   35.387998       6.0000     15.9994
  242   2 H    1       5.590000   -9.660000   35.187998       1.0000      1.0079
  243   2 H    1       4.830000   -9.120001   36.297998       1.0000      1.0079
  244   1 O    8       4.880000   12.350000   34.527998       6.0000     15.9994
  245   2 H    1       5.190001   13.280001   34.317999       1.0000      1.0079
  246   2 H    1       5.660000   11.690001   34.667997       1.0000      1.0079
  247   1 O    8      -7.710000   10.590000   38.407999       6.0000     15.9994
  248   2 H    1     -16.090000   25.290001   37.367998       1.0000      1.0079
  249   2 H    1      -7.510000   11.520000   38.797998       1.0000      1.0079
  250   1 O    8     -31.840002    7.090001   32.727999       6.0000     15.9994
  251   2 H    1     -31.960001    7.320001   31.757999       1.0000      1.0079
  252   2 H    1     -31.120003    6.460000   32.647999       1.0000      1.0079
  253   1 O    8      12.990000  -20.440002   33.137998       6.0000     15.9994
  254   2 H    1      12.140001  -20.150002   32.708000       1.0000      1.0079
  255   2 H    1      13.220000  -21.420002   33.237999       1.0000      1.0079
  256   1 O    8     -23.630001   16.830002   36.797998       6.0000     15.9994
  257   2 H    1     -23.730001   16.680000   37.808000       1.0000      1.0079
  258   2 H    1     -23.660002   17.860001   36.727999       1.0000      1.0079
  259   1 O    8     -12.620001    4.710000   32.567999       6.0000     15.9994
  260   2 H    1     -12.430000    3.760000   32.778000       1.0000      1.0079
  261   2 H    1     -13.060001    4.770000   31.667999       1.0000      1.0079
  262   1 O    8       0.730000   25.550001   35.858000       6.0000     15.9994
  263   2 H    1      -0.280000   25.590000   35.647999       1.0000      1.0079
  264   2 H    1       1.060000   26.460001   35.448000       1.0000      1.0079
  265   1 O    8      14.540001   17.889999   29.087999       6.0000     15.9994
  266   2 H    1      13.940001   17.090000   29.358000       1.0000      1.0079
  267   2 H    1      15.520000   17.850000   29.358000       1.0000      1.0079
  268   1 O    8      -1.430000   12.920000   39.578001       6.0000     15.9994
  269   2 H    1      -0.730000   12.320002   39.847999       1.0000      1.0079
  270   2 H    1      -0.940000   13.730000   39.397999       1.0000      1.0079
  271   1 O    8     -15.060000    5.120000   37.367998       6.0000     15.9994
  272   2 H    1     -14.780001    5.780000   36.747999       1.0000      1.0079
  273   2 H    1     -15.980000    5.270000   37.727999       1.0000      1.0079
  274   1 O    8       8.450001   32.430004   30.238001       6.0000     15.9994
  275   2 H    1       8.210000   32.370003   31.227999       1.0000      1.0079
  276   2 H    1       8.940001   33.270000   30.137998       1.0000      1.0079
  277   1 O    8      10.440001  -28.610001   35.378000       6.0000     15.9994
  278   2 H    1      10.760001  -29.370001   35.997999       1.0000      1.0079
  279   2 H    1       9.630001  -28.170002   35.807998       1.0000      1.0079
  280   1 O    8      -0.810000   21.660002   35.427997       6.0000     15.9994
  281   2 H    1      -0.930000   21.630001   36.388000       1.0000      1.0079
  282   2 H    1      -1.660000   21.470001   35.007999       1.0000      1.0079
  283   1 O    8      -7.820001   17.350002   29.827997       6.0000     15.9994
  284   2 H    1      -8.040000   17.680000   28.898001       1.0000      1.0079
  285   2 H    1      -8.730000   17.360001   30.247999       1.0000      1.0079
  286   1 O    8      -0.280000   -1.420000   29.718000       6.0000     15.9994
  287   2 H    1     -17.500002   -2.280000   30.127996       1.0000      1.0079
  288   2 H    1      -0.990000   -0.760000   29.517999       1.0000      1.0079
  289   1 O    8       1.410000   30.650002   39.508001       6.0000     15.9994
  290   2 H    1       1.280000   29.700001   39.378000       1.0000      1.0079
  291   2 H    1       2.360000   30.760002   39.897999       1.0000      1.0079
  292   1 O    8      10.920000  -20.490000   39.408001       6.0000     15.9994
  293   2 H    1      10.710001  -20.700001   40.347999       1.0000      1.0079
  294   2 H    1      10.170001  -19.900002   39.058000       1.0000      1.0079
  295   1 O    8     -14.860001   19.730000   29.817999       6.0000     15.9994
  296   2 H    1     -14.430000   20.510002   30.247999       1.0000      1.0079
  297   2 H    1     -14.650001   19.950001   28.847998       1.0000      1.0079
  298   1 O    8       2.270000   13.340001   30.317999       6.0000     15.9994
  299   2 H    1       2.330000   13.610001   31.307999       1.0000      1.0079
  300   2 H    1       1.870000   12.390001   30.167997       1.0000      1.0079
  301   3 Pt  78       1.800000    0.730000   26.758001      10.0000    195.0840
  302   3 Pt  78       4.500000    0.760000   26.828001      10.0000    195.0840
  303   3 Pt  78       7.280001    0.780000   26.788000      10.0000    195.0840
  304   3 Pt  78      10.060000    0.750000   26.608000      10.0000    195.0840
  305   3 Pt  78      12.910000    0.720000   26.688001      10.0000    195.0840
  306   3 Pt  78      15.760001    0.730000   26.727999      10.0000    195.0840
  307   3 Pt  78       3.150000    3.190000   26.767999      10.0000    195.0840
  308   3 Pt  78       5.980001    3.170000   26.828001      10.0000    195.0840
  309   3 Pt  78       8.780001    3.120000   26.918001      10.0000    195.0840
  310   3 Pt  78      11.460000    3.250000   26.698000      10.0000    195.0840
  311   3 Pt  78      14.290000    3.210000   26.747999      10.0000    195.0840
  312   3 Pt  78       0.130000    3.140000   26.727999      10.0000    195.0840
  313   3 Pt  78       4.460000    5.560000   26.788000      10.0000    195.0840
  314   3 Pt  78       7.240000    5.810000   26.698000      10.0000    195.0840
  315   3 Pt  78      10.040001    5.550000   26.617998      10.0000    195.0840
  316   3 Pt  78      12.910000    5.750000   26.807997      10.0000    195.0840
  317   3 Pt  78      -1.180000    5.750000   26.747999      10.0000    195.0840
  318   3 Pt  78       1.520000    5.450000   26.877996      10.0000    195.0840
  319   3 Pt  78       5.780000    8.160001   26.667997      10.0000    195.0840
  320   3 Pt  78       8.640000    8.010000   26.647997      10.0000    195.0840
  321   3 Pt  78      11.440001    8.050001   26.807997      10.0000    195.0840
  322   3 Pt  78      -2.560000    8.030001   26.777998      10.0000    195.0840
  323   3 Pt  78       0.310000    8.060000   26.887998      10.0000    195.0840
  324   3 Pt  78       2.960000    8.120001   26.957998      10.0000    195.0840
  325   3 Pt  78       7.300000   10.490000   26.937998      10.0000    195.0840
  326   3 Pt  78      10.020000   10.400001   27.007997      10.0000    195.0840
  327   3 Pt  78      -4.120000   10.460000   26.898001      10.0000    195.0840
  328   3 Pt  78      -1.220000   10.520000   26.707998      10.0000    195.0840
  329   3 Pt  78       1.590000   10.510000   26.608000      10.0000    195.0840
  330   3 Pt  78       4.500000   10.510000   26.937998      10.0000    195.0840
  331   3 Pt  78       8.670000   12.840000   26.797998      10.0000    195.0840
  332   3 Pt  78      -5.410000   12.900001   26.727999      10.0000    195.0840
  333   3 Pt  78      -2.600000   12.970000   26.597998      10.0000    195.0840
  334   3 Pt  78       0.230000   12.940001   26.828001      10.0000    195.0840
  335   3 Pt  78       3.130000   12.970000   26.737997      10.0000    195.0840
  336   3 Pt  78       5.900001   12.970000   26.797998      10.0000    195.0840
  337   3 Pt  78       0.340000    1.530000   24.558000      10.0000    195.0840
  338   3 Pt  78       3.080000    1.660000   24.477999      10.0000    195.0840
  339   3 Pt  78       5.790000    1.400000   24.387998      10.0000    195.0840
  340   3 Pt  78       8.490001    1.560000   24.337999      10.0000    195.0840
  341   3 Pt  78      11.470001    1.460000   24.288000      10.0000    195.0840
  342   3 Pt  78      14.240000    1.600000   24.367998      10.0000    195.0840
  343   3 Pt  78       1.600000    4.050000   24.507997      10.0000    195.0840
  344   3 Pt  78       4.560000    4.050000   24.418001      10.0000    195.0840
  345   3 Pt  78       7.200000    3.960000   24.457998      10.0000    195.0840
  346   3 Pt  78      10.070001    3.840000   24.297998      10.0000    195.0840
  347   3 Pt  78      12.880001    3.990000   24.367998      10.0000    195.0840
  348   3 Pt  78      -1.170000    3.920000   24.377996      10.0000    195.0840
  349   3 Pt  78       3.040000    6.430000   24.567999      10.0000    195.0840
  350   3 Pt  78       5.820000    6.540000   24.427999      10.0000    195.0840
  351   3 Pt  78       8.640000    6.480000   24.387998      10.0000    195.0840
  352   3 Pt  78      11.460000    6.390000   24.387998      10.0000    195.0840
  353   3 Pt  78      -2.610000    6.480000   24.387998      10.0000    195.0840
  354   3 Pt  78       0.260000    6.440001   24.488001      10.0000    195.0840
  355   3 Pt  78       4.410000    9.010000   24.457998      10.0000    195.0840
  356   3 Pt  78       7.100000    9.020000   24.468000      10.0000    195.0840
  357   3 Pt  78      10.090000    8.820001   24.477999      10.0000    195.0840
  358   3 Pt  78      -4.010000    8.770000   24.477999      10.0000    195.0840
  359   3 Pt  78      -1.140000    8.790001   24.427999      10.0000    195.0840
  360   3 Pt  78       1.690000    8.910000   24.418001      10.0000    195.0840
  361   3 Pt  78       5.750000   11.450001   24.407999      10.0000    195.0840
  362   3 Pt  78       8.650001   11.280001   24.617998      10.0000    195.0840
  363   3 Pt  78      -5.450000   11.310000   24.527998      10.0000    195.0840
  364   3 Pt  78      -2.690000   11.210001   24.468000      10.0000    195.0840
  365   3 Pt  78       0.260000   11.220001   24.337999      10.0000    195.0840
  366   3 Pt  78       3.070000   11.390000   24.377996      10.0000    195.0840
  367   3 Pt  78       7.200000   13.830000   24.457998      10.0000    195.0840
  368   3 Pt  78      -6.830000   13.760000   24.437998      10.0000    195.0840
  369   3 Pt  78      -4.060000   13.680000   24.447996      10.0000    195.0840
  370   3 Pt  78      -1.250000   13.510000   24.447996      10.0000    195.0840
  371   3 Pt  78       1.560000   13.650000   24.328001      10.0000    195.0840
  372   3 Pt  78       4.410000   13.720001   24.337999      10.0000    195.0840
  373   3 Pt  78      -8.310000   14.570000   22.207998      10.0000    195.0840
  374   3 Pt  78      -5.450000   14.470000   22.257997      10.0000    195.0840
  375   3 Pt  78      -2.620000   14.440001   22.148001      10.0000    195.0840
  376   3 Pt  78       0.190000   14.390000   22.087999      10.0000    195.0840
  377   3 Pt  78       3.020000   14.540001   22.127996      10.0000    195.0840
  378   3 Pt  78       5.780000   14.560001   22.017999      10.0000    195.0840
  379   3 Pt  78       1.540000    2.390000   22.197996      10.0000    195.0840
  380   3 Pt  78       4.460000    2.420000   22.137998      10.0000    195.0840
  381   3 Pt  78       7.280001    2.380000   22.008001      10.0000    195.0840
  382   3 Pt  78      10.040001    2.230000   22.067999      10.0000    195.0840
  383   3 Pt  78      12.880001    2.320000   21.957998      10.0000    195.0840
  384   3 Pt  78      -1.200000    2.280000   22.078001      10.0000    195.0840
  385   3 Pt  78       3.080000    4.800000   22.187998      10.0000    195.0840
  386   3 Pt  78       5.870000    4.810000   22.157999      10.0000    195.0840
  387   3 Pt  78       8.740000    4.740000   22.038000      10.0000    195.0840
  388   3 Pt  78      11.420001    4.710000   22.067999      10.0000    195.0840
  389   3 Pt  78      -2.600000    4.730000   22.157999      10.0000    195.0840
  390   3 Pt  78       0.200000    4.740000   22.177999      10.0000    195.0840
  391   3 Pt  78       4.380000    7.340000   22.127996      10.0000    195.0840
  392   3 Pt  78       7.240000    7.190001   22.127996      10.0000    195.0840
  393   3 Pt  78      10.000000    7.300000   22.137998      10.0000    195.0840
  394   3 Pt  78      -4.160000    7.210000   22.097998      10.0000    195.0840
  395   3 Pt  78      -1.200000    7.200000   22.017999      10.0000    195.0840
  396   3 Pt  78       1.580000    7.180000   22.177999      10.0000    195.0840
  397   3 Pt  78       5.760000    9.720000   22.078001      10.0000    195.0840
  398   3 Pt  78       8.650001    9.640000   22.267999      10.0000    195.0840
  399   3 Pt  78      -5.460000    9.670001   22.218000      10.0000    195.0840
  400   3 Pt  78      -2.630000    9.520000   22.137998      10.0000    195.0840
  401   3 Pt  78       0.290000    9.570000   22.078001      10.0000    195.0840
  402   3 Pt  78       3.030000    9.690001   21.987997      10.0000    195.0840
  403   3 Pt  78       7.190001   12.080001   22.117998      10.0000    195.0840
  404   3 Pt  78      -6.950001   12.110001   22.237997      10.0000    195.0840
  405   3 Pt  78      -3.960000   12.030001   22.117998      10.0000    195.0840
  406   3 Pt  78      -1.250000   11.980001   22.097998      10.0000    195.0840
  407   3 Pt  78       1.530000   12.150001   22.038000      10.0000    195.0840
  408   3 Pt  78       4.390000   12.140001   22.027998      10.0000    195.0840
  409   3 Pt  78       1.610000    0.700000   19.940000      10.0000    195.0840
  410   3 Pt  78       4.430000    0.650000   19.930000      10.0000    195.0840
  411   3 Pt  78       7.210000    0.640000   19.790000      10.0000    195.0840
  412   3 Pt  78       9.900001    0.640000   19.790000      10.0000    195.0840
  413   3 Pt  78      12.740001    0.660000   19.790000      10.0000    195.0840
  414   3 Pt  78      15.540000    0.660000   19.810000      10.0000    195.0840
  415   3 Pt  78       3.010000    3.080000   19.880000      10.0000    195.0840
  416   3 Pt  78       5.730000    3.140000   19.740000      10.0000    195.0840
  417   3 Pt  78       8.520000    3.190000   19.820000      10.0000    195.0840
  418   3 Pt  78      11.350001    3.100000   19.710000      10.0000    195.0840
  419   3 Pt  78      14.230001    3.080000   19.750000      10.0000    195.0840
  420   3 Pt  78       0.160000    3.090000   19.770000      10.0000    195.0840
  421   3 Pt  78       4.360000    5.610001   19.900000      10.0000    195.0840
  422   3 Pt  78       7.140000    5.690000   19.860000      10.0000    195.0840
  423   3 Pt  78       9.960001    5.670000   19.740000      10.0000    195.0840
  424   3 Pt  78      12.700001    5.480001   19.820000      10.0000    195.0840
  425   3 Pt  78      -1.280000    5.490000   19.880000      10.0000    195.0840
  426   3 Pt  78       1.630000    5.400000   19.840000      10.0000    195.0840
  427   3 Pt  78       5.760000    8.060000   19.730000      10.0000    195.0840
  428   3 Pt  78       8.560000    8.080000   19.800000      10.0000    195.0840
  429   3 Pt  78      11.420001    7.990000   19.820000      10.0000    195.0840
  430   3 Pt  78      -2.690000    7.940001   19.810000      10.0000    195.0840
  431   3 Pt  78       0.190000    7.870001   19.750000      10.0000    195.0840
  432   3 Pt  78       2.970000    7.990000   19.820000      10.0000    195.0840
  433   3 Pt  78       7.200000   10.480001   19.940000      10.0000    195.0840
  434   3 Pt  78       9.990001   10.410000   20.000000      10.0000    195.0840
  435   3 Pt  78      -4.030000   10.380001   19.900000      10.0000    195.0840
  436   3 Pt  78      -1.270000   10.300001   19.760000      10.0000    195.0840
  437   3 Pt  78       1.500000   10.430001   19.710000      10.0000    195.0840
  438   3 Pt  78       4.360000   10.450001   19.860000      10.0000    195.0840
  439   3 Pt  78       8.570001   12.920000   19.830000      10.0000    195.0840
  440   3 Pt  78      -5.540000   12.830001   20.000000      10.0000    195.0840
  441   3 Pt  78      -2.660000   12.810000   19.820000      10.0000    195.0840
  442   3 Pt  78       0.080000   12.760000   19.710000      10.0000    195.0840
  443   3 Pt  78       2.910000   12.860001   19.730000      10.0000    195.0840
  444   3 Pt  78       5.750000   12.900001   19.740000      10.0000    195.0840
  445   3 Pt  78       0.010000    1.520000   17.540000      10.0000    195.0840
  446   3 Pt  78       3.020000    1.440000   17.680000      10.0000    195.0840
  447   3 Pt  78       5.790000    1.400000   17.480000      10.0000    195.0840
  448   3 Pt  78       8.560000    1.480000   17.390000      10.0000    195.0840
  449   3 Pt  78      11.420001    1.440000   17.460000      10.0000    195.0840
  450   3 Pt  78      14.130001    1.370000   17.560000      10.0000    195.0840
  451   3 Pt  78       1.550000    3.770000   17.580000      10.0000    195.0840
  452   3 Pt  78       4.360000    3.910000   17.460000      10.0000    195.0840
  453   3 Pt  78       7.100000    3.930000   17.410000      10.0000    195.0840
  454   3 Pt  78       9.930000    3.900000   17.430000      10.0000    195.0840
  455   3 Pt  78      12.760000    3.880000   17.470000      10.0000    195.0840
  456   3 Pt  78      -1.320000    3.840000   17.480000      10.0000    195.0840
  457   3 Pt  78       2.890000    6.330000   17.510000      10.0000    195.0840
  458   3 Pt  78       5.750000    6.360001   17.430000      10.0000    195.0840
  459   3 Pt  78       8.580000    6.370000   17.420000      10.0000    195.0840
  460   3 Pt  78      11.360001    6.310000   17.510000      10.0000    195.0840
  461   3 Pt  78      -2.670000    6.270000   17.620000      10.0000    195.0840
  462   3 Pt  78       0.100000    6.160001   17.550000      10.0000    195.0840
  463   3 Pt  78       4.260000    8.830000   17.500000      10.0000    195.0840
  464   3 Pt  78       7.100000    8.750001   17.530000      10.0000    195.0840
  465   3 Pt  78       9.860001    8.890000   17.650000      10.0000    195.0840
  466   3 Pt  78      -4.090000    8.750001   17.440000      10.0000    195.0840
  467   3 Pt  78      -1.240000    8.800000   17.430000      10.0000    195.0840
  468   3 Pt  78       1.440000    8.730000   17.620000      10.0000    195.0840
  469   3 Pt  78       5.630000   11.230000   17.640000      10.0000    195.0840
  470   3 Pt  78       8.500000   11.180000   17.600000      10.0000    195.0840
  471   3 Pt  78      -5.420001   11.080000   17.720000      10.0000    195.0840
  472   3 Pt  78      -2.740000   11.200000   17.520000      10.0000    195.0840
  473   3 Pt  78       0.110000   11.190001   17.400000      10.0000    195.0840
  474   3 Pt  78       2.880000   11.170001   17.470000      10.0000    195.0840
  475   3 Pt  78       7.100000   13.630000   17.560000      10.0000    195.0840
  476   3 Pt  78      -6.830000   13.760000   17.620000      10.0000    195.0840
  477   3 Pt  78      -4.050000   13.590001   17.510000      10.0000    195.0840
  478   3 Pt  78      -1.260000   13.630000   17.440000      10.0000    195.0840
  479   3 Pt  78       1.530000   13.610001   17.400000      10.0000    195.0840
  480   3 Pt  78       4.240000   13.590001   17.510000      10.0000    195.0840
  481   3 Pt  78      -8.270000   14.340000   15.320000      10.0000    195.0840
  482   3 Pt  78      -5.530000   14.450001   15.080000      10.0000    195.0840
  483   3 Pt  78      -2.660000   14.510001   15.190000      10.0000    195.0840
  484   3 Pt  78       0.100000   14.500000   15.040000      10.0000    195.0840
  485   3 Pt  78       2.930000   14.440001   15.060000      10.0000    195.0840
  486   3 Pt  78       5.750000   14.410001   15.140000      10.0000    195.0840
  487   3 Pt  78       1.570000    2.140000   15.210000      10.0000    195.0840
  488   3 Pt  78       4.250000    2.300000   15.200000      10.0000    195.0840
  489   3 Pt  78       7.190001    2.270000   15.150000      10.0000    195.0840
  490   3 Pt  78       9.960001    2.210000   15.020000      10.0000    195.0840
  491   3 Pt  78      12.800001    2.180000   15.090000      10.0000    195.0840
  492   3 Pt  78      -1.310000    2.090000   15.180000      10.0000    195.0840
  493   3 Pt  78       2.910000    4.660000   15.150000      10.0000    195.0840
  494   3 Pt  78       5.650000    4.670000   15.090000      10.0000    195.0840
  495   3 Pt  78       8.510000    4.700000   15.170000      10.0000    195.0840
  496   3 Pt  78      11.510000    4.650001   15.180000      10.0000    195.0840
  497   3 Pt  78      -2.640000    4.710000   15.050000      10.0000    195.0840
  498   3 Pt  78       0.180000    4.520000   15.210000      10.0000    195.0840
  499   3 Pt  78       4.210001    7.130001   15.100000      10.0000    195.0840
  500   3 Pt  78       7.010000    7.170000   15.220000      10.0000    195.0840
  501   3 Pt  78      10.010000    7.210000   15.270000      10.0000    195.0840
  502   3 Pt  78      -4.070000    7.130001   15.200000      10.0000    195.0840
  503   3 Pt  78      -1.280000    6.980000   15.320000      10.0000    195.0840
  504   3 Pt  78       1.430000    7.030000   15.250000      10.0000    195.0840
  505   3 Pt  78       5.660000    9.540001   15.230000      10.0000    195.0840
[...]
 flops     5 x    13 x    96           5627132160       0.0%    100.0%      0.0%
 flops    13 x     5 x    96           5630576640       0.0%    100.0%      0.0%
 flops    13 x    32 x    13           5898397440       0.0%    100.0%      0.0%
 flops    20 x    13 x   124           6135336480       0.0%    100.0%      0.0%
 flops    13 x    20 x   124           6148683840       0.0%    100.0%      0.0%
 flops     5 x    20 x   124           6610936000       0.0%    100.0%      0.0%
 flops    20 x     5 x   124           6620062400       0.0%    100.0%      0.0%
 flops    13 x    13 x    96           6746588160       0.0%    100.0%      0.0%
 flops    13 x    32 x    20           8407576320       0.0%    100.0%      0.0%
 flops    20 x    32 x    13           8407576320       0.0%    100.0%      0.0%
 flops     5 x    32 x    20           9055718400       0.0%    100.0%      0.0%
 flops    20 x    32 x     5           9055718400       0.0%    100.0%      0.0%
 flops    20 x    13 x    96           9499875840       0.0%    100.0%      0.0%
 flops    13 x    20 x    96           9520542720       0.0%    100.0%      0.0%
 flops     5 x    20 x    96          10236288000       0.0%    100.0%      0.0%
 flops    20 x     5 x    96          10250419200       0.0%    100.0%      0.0%
 flops     5 x     5 x   128          38444224000       0.0%    100.0%      0.0%
 flops     5 x    13 x   128          48768478720       0.0%    100.0%      0.0%
 flops    13 x     5 x   128          48798330880       0.0%    100.0%      0.0%
 flops    20 x    20 x   124          53471577600       0.0%    100.0%      0.0%
 flops    13 x    13 x   128          58470430720       0.0%    100.0%      0.0%
 flops    20 x    32 x    20          72858009600       0.0%    100.0%      0.0%
 flops    20 x    13 x   128          82332257280       0.0%    100.0%      0.0%
 flops    13 x    20 x   128          82511370240       0.0%    100.0%      0.0%
 flops    20 x    20 x    96          82794700800       0.0%    100.0%      0.0%
 flops     5 x    20 x   128          88714496000       0.0%    100.0%      0.0%
 flops    20 x     5 x   128          88836966400       0.0%    100.0%      0.0%
 flops    20 x    20 x   128         717554073600       0.0%    100.0%      0.0%
 flops inhomo. stacks                           0       0.0%      0.0%      0.0%
 flops total                         1.622019E+12       0.0%    100.0%      0.0%
 flops max/rank                     15.693991E+09       0.0%    100.0%      0.0%
 matmuls inhomo. stacks                         0       0.0%      0.0%      0.0%
 matmuls total                           48742428       0.0%    100.0%      0.0%
 number of processed stacks                444057       0.0%    100.0%      0.0%
 average stack size                                     0.0     109.8       0.0
 marketing flops                     3.280607E+12
 -------------------------------------------------------------------------------
 # multiplications                             24
 max memory usage/rank               1.583239E+09
 # max total images/rank                        2
 # max 3D layers                                1
 # MPI messages exchanged                   89088
 MPI messages size (bytes):
  total size                        57.713803E+09
  min size                         276.480000E+03
  max size                           2.262896E+06
  average size                     647.829125E+03
 MPI breakdown and total messages size (bytes):
             size <=      128                   0                        0
       128 < size <=     8192                   0                        0
      8192 < size <=    32768                   0                        0
     32768 < size <=   131072                   0                        0
    131072 < size <=  4194304               89088              57713800800
   4194304 < size <= 16777216                   0                        0
  16777216 < size                               0                        0
 -------------------------------------------------------------------------------

 *** WARNING in dbcsr_mm.F:290 :: Using a non-square number of MPI ranks ***
 *** might lead to poor performance. Used ranks: 128 Suggested: 121 256  ***

 -------------------------------------------------------------------------------
 -                                                                             -
 -                      DBCSR MESSAGE PASSING PERFORMANCE                      -
 -                                                                             -
 -------------------------------------------------------------------------------
 ROUTINE             CALLS      AVE VOLUME [Bytes]
 MP_Bcast               46                     12.
 MP_Allreduce          271                     15.
 MP_Alltoall           665                 556582.
 MP_ISend             1536                 306367.
 MP_IRecv             1536                 300098.
 -------------------------------------------------------------------------------

 -------------------------------------------------------------------------------
 -                                                                             -
 -                                DBM STATISTICS                               -
 -                                                                             -
 -------------------------------------------------------------------------------
    M  x    N  x    K                                          COUNT     PERCENT
 -------------------------------------------------------------------------------

 -------------------------------------------------------------------------------
 -                                                                             -
 -                                GRID STATISTICS                              -
 -                                                                             -
 -------------------------------------------------------------------------------
 LP    KERNEL             BACKEND                              COUNT     PERCENT
 4     collocate general  REF                                8945002      22.12%
 4     integrate general  REF                                8821087      21.81%
 3     collocate general  REF                                6218872      15.38%
 3     integrate general  REF                                6159925      15.23%
 2     collocate general  REF                                4922038      12.17%
 2     integrate general  REF                                4698309      11.62%
 5     integrate general  REF                                 406591       1.01%
 0     collocate general  REF                                 132096       0.33%
 0     integrate general  REF                                  66048       0.16%
 1     integrate general  REF                                  66048       0.16%
 -------------------------------------------------------------------------------

 MEMORY| Estimated peak process memory [MiB]                                1779

 -------------------------------------------------------------------------------
 ----                             MULTIGRID INFO                            ----
 -------------------------------------------------------------------------------
 count for grid        1:        1096183          cutoff [a.u.]          200.00
 count for grid        2:        1091741          cutoff [a.u.]           66.67
 count for grid        3:         715831          cutoff [a.u.]           22.22
 count for grid        4:         554593          cutoff [a.u.]            7.41
 total gridlevel count  :        3458348

 -------------------------------------------------------------------------------
 -                                                                             -
 -                         MESSAGE PASSING PERFORMANCE                         -
 -                                                                             -
 -------------------------------------------------------------------------------

 ROUTINE             CALLS      AVE VOLUME [Bytes]
 MP_Group                4
 MP_Bcast             2158                 312792.
 MP_Allreduce         2999                  36166.
 MP_Sync                50
 MP_Alltoall          1342               16697182.
 MP_SendRecv           508                   5808.
 MP_ISendRecv        11176                  61740.
 MP_Wait             20056
 MP_comm_split          23
 MP_ISend             8376                 256784.
 MP_IRecv             8376                 256784.
 MP_Recv               122                1694720.
 MP_Write_All            3                1797408.
 -------------------------------------------------------------------------------


 -------------------------------------------------------------------------------
 -                                                                             -
 -                           R E F E R E N C E S                               -
 -                                                                             -
 -------------------------------------------------------------------------------
 
 CP2K version 2022.1, the CP2K developers group (2022).
 CP2K is freely available from https://www.cp2k.org/ .

 Kuehne,Thomas D.; Iannuzzi,Marcella; Del Ben,Mauro;
 Rybkin,Vladimir V.; Seewald,Patrick; Stein,Frederick; Laino,Teodoro;
 Khaliullin,Rustam Z.; Schuett,Ole; Schiffmann,Florian; Golze,Dorothea;
 Wilhelm,Jan; Chulkov,Sergey; Bani-Hashemian,Mohammad Hossein;
 Weber,Valery; Borstnik,Urban; Taillefumier,Mathieu;
 Jakobovits,Alice Shoshana; Lazzaro,Alfio; Pabst,Hans; Mueller,Tiziano;
 Schade,Robert; Guidon,Manuel; Andermatt,Samuel; Holmberg,Nico;
 Schenter,Gregory K.; Hehn,Anna; Bussy,Augustin; Belleflamme,Fabian;
 Tabacchi,Gloria; Gloess,Andreas; Lass,Michael; Bethune,Iain;
 Mundy,Christopher J.; Plessl,Christian; Watkins,Matt;
 VandeVondele,Joost; Krack,Matthias; Hutter,Juerg. 
 The Journal of Chemical Physics, 152 (19), (2020). 
 CP2K: An electronic structure and molecular dynamics software package -
 Quickstep: Efficient and accurate electronic structure calculations.
 https://doi.org/10.1063/5.0007045

 Goerigk, Lars; Hansen, Andreas; Bauer, Christoph; Ehrlich, Stephan;
 Najibi, Asim; Grimme, Stefan. , 19 (48), (2017). 
 A look at the density functional theory zoo with the advanced GMTKN55 database
 for general main group thermochemistry, kinetics and noncovalent interactions.
 https://doi.org/10.1039/C7CP04913G

 Bani-Hashemian, MH; Bruck, S; Luisier, M; VandeVondele, J. 
 JOURNAL OF CHEMICAL PHYSICS, 144 (4), 044113 (2016). 
 A generalized Poisson solver for first-principles device simulations.
 https://doi.org/10.1063/1.4940796

 Schuett, Ole; Messmer, Peter; Hutter, Juerg; VandeVondele, Joost. 
 Electronic Structure Calculations on Graphics Processing Units, John
 Wiley & Sons, Ltd, 173-190 (2016). 
 GPU-Accelerated Sparse Matrix-Matrix Multiplication for
 Linear Scaling Density Functional Theory.
 https://doi.org/10.1002/9781118670712.ch8

 Heinecke, A; Henry, G; Hutchinson, M; Pabst, H. 
 Proceedings of Intl. Supercomputing Conference, 981-991 (2016). 
 LIBXSMM: Accelerating Small Matrix Multiplications
 by Runtime Code Generation.
 https://doi.org/10.1109/SC.2016.83

 Borstnik, U; VandeVondele, J; Weber, V; Hutter, J. 
 PARALLEL COMPUTING, 40 (5-6), 47-58 (2014). 
 Sparse matrix multiplication: The distributed block-compressed sparse
 row library.
 https://doi.org/10.1016/j.parco.2014.03.012

 Hutter, J; Iannuzzi, M; Schiffmann, F; VandeVondele, J. 
 WIREs Comput Mol Sci., 4 (1), 15-25 (2014). 
 CP2K: atomistic simulations of condensed matter systems.
 https://doi.org/10.1002/wcms.1159

 Marek, A; Blum, V; Johanni, R; Havu, V; Lang, B; Auckenthaler, T;
 Heinecke, A; Bungartz, H; Lederer, H. 
 Journal of Physics: Condensed Matter, 26 (21), (2014). 
 The ELPA library: scalable parallel eigenvalue solutions for
 electronic structure
 theory and computational science.
 https://doi.org/10.1088/0953-8984/26/21/213201

 Grimme, S; Ehrlich, S; Goerigk, L. 
 JOURNAL OF COMPUTATIONAL CHEMISTRY, 32, 1456 (2011). 
 Effect of the damping function in dispersion corrected density functional theory.
 https://doi.org/10.1002/jcc.21759

 Grimme, S; Antony, J; Ehrlich, S; Krieg, H. 
 JOURNAL OF CHEMICAL PHYSICS, 132 (15), 154104 (2010). 
 A consistent and accurate ab initio parametrization of density
 functional dispersion correction (DFT-D) for the 94 elements H-Pu.
 https://doi.org/10.1063/1.3382344

 VandeVondele, J; Hutter, J. 
 JOURNAL OF CHEMICAL PHYSICS, 127 (11), 114105 (2007). 
 Gaussian basis sets for accurate calculations on molecular systems in
 gas and condensed phases.
 https://doi.org/10.1063/1.2770708

 Krack, M. 
 THEORETICAL CHEMISTRY ACCOUNTS, 114 (1-3), 145-152 (2005). 
 Pseudopotentials for H to Kr optimized for gradient-corrected
 exchange-correlation functionals.
 https://doi.org/10.1007/s00214-005-0655-y

 VandeVondele, J; Krack, M; Mohamed, F; Parrinello, M; Chassaing, T;
 Hutter, J. COMPUTER PHYSICS COMMUNICATIONS, 167 (2), 103-128 (2005). 
 QUICKSTEP: Fast and accurate density functional calculations using a
 mixed Gaussian and plane waves approach.
 https://doi.org/10.1016/j.cpc.2004.12.014

 Frigo, M; Johnson, SG. 
 PROCEEDINGS OF THE IEEE, 93 (2), 216-231 (2005). 
 The design and implementation of FFTW3.
 https://doi.org/10.1109/JPROC.2004.840301

 Hartwigsen, C; Goedecker, S; Hutter, J. 
 PHYSICAL REVIEW B, 58 (7), 3641-3662 (1998). 
 Relativistic separable dual-space Gaussian pseudopotentials from H to Rn.
 https://doi.org/10.1103/PhysRevB.58.3641

 Lippert, G; Hutter, J; Parrinello, M. 
 MOLECULAR PHYSICS, 92 (3), 477-487 (1997). 
 A hybrid Gaussian and plane wave density functional scheme.
 https://doi.org/10.1080/002689797170220

 Perdew, JP; Burke, K; Ernzerhof, M. 
 PHYSICAL REVIEW LETTERS, 77 (18), 3865-3868 (1996). 
 Generalized gradient approximation made simple.
 https://doi.org/10.1103/PhysRevLett.77.3865

 Goedecker, S; Teter, M; Hutter, J. 
 PHYSICAL REVIEW B, 54 (3), 1703-1710 (1996). 
 Separable dual-space Gaussian pseudopotentials.
 https://doi.org/10.1103/PhysRevB.54.1703


 -------------------------------------------------------------------------------
 -                                                                             -
 -                                T I M I N G                                  -
 -                                                                             -
 -------------------------------------------------------------------------------
 SUBROUTINE                       CALLS  ASD         SELF TIME        TOTAL TIME
                                MAXIMUM       AVERAGE  MAXIMUM  AVERAGE  MAXIMUM
 CP2K                                 1  1.0    0.024    0.037  159.951  159.952
 qs_forces                            1  2.0    0.002    0.002  159.573  159.574
 qs_energies                          1  3.0    0.000    0.001  153.380  153.385
 scf_env_do_scf                       1  4.0    0.000    0.000  144.299  144.441
 scf_env_do_scf_inner_loop           21  5.0    0.002    0.004  144.296  144.437
 rebuild_ks_matrix                   22  6.9    0.000    0.000   80.051   80.071
 qs_ks_build_kohn_sham_matrix        22  7.9    0.004    0.004   80.051   80.070
 qs_ks_update_qs_env                 21  6.0    0.000    0.000   75.963   75.981
 pw_transfer                       1148 12.1    0.084    0.098   50.579   51.634
 fft_wrap_pw1pw2                   1148 13.1    0.011    0.013   50.495   51.536
 fft_wrap_pw1pw2_200               1016 14.4    3.380    4.045   49.849   50.896
 pw_poisson_solve                    22  8.9    0.002    0.005   43.124   43.141
 fft3d_ps                          1148 15.1   14.438   16.137   40.674   42.278
 qs_scf_new_mos                      21  6.0    0.001    0.004   41.206   41.259
 implicit_poisson_solver_mixed_      22  9.9    0.907    1.103   40.644   40.674
 eigensolver                         21  7.0    0.002    0.002   38.868   38.989
 derive_fft                         132 12.0    0.008    0.014   28.524   28.596
 cp_fm_diag_elpa                     23  8.1    0.000    0.000   28.090   28.162
 cp_fm_redistribute_end              23  9.1    3.771   27.837    3.818   27.863
 cp_fm_diag_elpa_base                23  9.1   23.685   27.227   23.911   27.464
 mp_alltoall_z22v                  1148 17.1   22.041   27.281   22.041   27.281
 qs_rho_update_rho_low               22  6.0    0.000    0.000   24.966   24.980
 calculate_rho_elec                  22  7.0    0.043    0.053   24.966   24.980
 sum_up_and_integrate                22  8.9    0.118    0.143   24.652   24.675
 integrate_v_rspace                  22  9.9    0.001    0.002   24.534   24.588
 apply_P_operator                   110 11.1    0.589    0.654   24.398   24.463
 grid_collocate_task_list            22  8.0   16.016   19.718   16.016   19.718
 grid_integrate_task_list            22 10.9   14.952   18.006   14.952   18.006
 x_to_yz                            661 16.4    2.819    3.639   16.705   17.291
 rs_pw_transfer                     180 10.4    0.002    0.003   11.434   13.279
 cp_fm_triangular_multiply           63  8.0   12.375   12.505   12.375   12.505
 yz_to_x                            355 16.4    0.970    1.133    9.042   12.325
 qs_vxc_create                       22  8.9    0.001    0.001   10.905   11.041
 xc_vxc_pw_create                    22  9.9    0.188    0.232   10.905   11.040
 density_rs2pw                       22  8.0    0.001    0.002    8.409   10.327
 xc_pw_derive                       132 11.9    0.002    0.002    7.638    8.488
 mp_waitany                        8376 12.2    5.184    7.331    5.184    7.331
 apply_poisson_operator_fft          22 10.9    0.000    0.000    7.146    7.266
 rs_pw_transfer_RS2PW_200            24  9.9    1.553    1.775    5.271    7.127
 apply_inv_laplace_operator_fft      68 11.6    0.166    0.190    6.617    6.850
 potential_pw2rs                     22 10.9    0.006    0.007    6.259    6.312
 mp_alltoall_d11v                   330 10.2    4.043    5.911    4.043    5.911
 xc_pw_divergence                    22 10.9    0.001    0.001    5.182    5.806
 scf_post_calculation_gpw             1  4.0    0.000    0.001    5.652    5.657
 write_available_results              1  5.0    0.000    0.000    5.652    5.657
 xc_rho_set_and_dset_create          22 10.9    0.109    0.135    5.300    5.621
 ps_implicit_compute_error_fft       44 10.9    0.276    0.335    4.787    5.136
 rs_gather_matrices                  22 10.9    0.027    0.035    3.311    5.130
 ps_implicit_compute_veps            22 10.9    0.129    0.152    4.845    4.923
 pw_scatter_p                       727 15.3    4.080    4.762    4.080    4.762
 qs_ks_update_qs_env_forces           1  3.0    0.000    0.000    4.120    4.121
 rs_pw_transfer_PW2RS_200            24 12.5    1.816    1.927    3.796    3.892
 write_mo_dependent_results           1  6.0    0.000    0.000    2.597    3.778
 calculate_projected_dos              1  7.0    0.363    1.685    2.597    3.778
 pw_derive                          528 13.0    3.339    3.583    3.339    3.583
 -------------------------------------------------------------------------------

 The number of warnings for this run is : 1
 
 -------------------------------------------------------------------------------
  **** **** ******  **  PROGRAM ENDED AT                 2023-12-03 04:21:14.951
 ***** ** ***  *** **   PROGRAM RAN ON                                     cu001
 **    ****   ******    PROGRAM RAN BY                                     jxzhu
 ***** **    ** ** **   PROGRAM PROCESS ID                                  7618
  **** **  *******  **  PROGRAM STOPPED IN /public/home/jxzhu/tmp_calc/838b9d930
                                           817b6ecb12a03eba75006846ce0baca/calc/
                                           002600.000/search_hi.000000
