 DBCSR| CPU Multiplication driver                                           XSMM
 DBCSR| Multrec recursion limit                                              512
 DBCSR| Multiplication stack size                                           1000
 DBCSR| Maximum elements for images                                    UNLIMITED
 DBCSR| Multiplicative factor virtual images                                   1
 DBCSR| Use multiplication densification                                       T
 DBCSR| Multiplication size stacks                                             3
 DBCSR| Number of 3D layers                                               SINGLE
 DBCSR| Use MPI memory allocation                                              T
 DBCSR| Use RMA algorithm                                                      F
 DBCSR| Use Communication thread                                               T
 DBCSR| Communication thread load                                             87


  **** **** ******  **  PROGRAM STARTED AT               2024-11-01 22:09:51.608
 ***** ** ***  *** **   PROGRAM STARTED ON                               c53-012
 **    ****   ******    PROGRAM STARTED BY                                 jxzhu
 ***** **    ** ** **   PROGRAM PROCESS ID                                257073
  **** **  *******  **  PROGRAM STARTED IN /data/jxzhu/nnp/dp_workdir/d1f764b96e
                                           9a01b62c3e35b0c4f5198f3ba3ed59/calc.0
                                           00/task.000.000007

 CP2K| version string:                                          CP2K version 7.1
 CP2K| source code revision number:                                  git:e635599
 CP2K| cp2kflags: libint fftw3 libxc elpa parallel mpi3 scalapack xsmm spglib   
 CP2K| is freely available from                            https://www.cp2k.org/
 CP2K| Program compiled at                           Mon Mar 8 20:53:19 CST 2021
 CP2K| Program compiled on                                                 mgt01
 CP2K| Program compiled for                                                local
 CP2K| Data directory path                                    /data/jxzhu/basis/
 CP2K| Input file name                                                 input.inp

 GLOBAL| Force Environment number                                              1
 GLOBAL| Basis set file name                                        BASIS_MOLOPT
 GLOBAL| Potential file name                                      GTH_POTENTIALS
 GLOBAL| MM Potential file name                                     MM_POTENTIAL
 GLOBAL| Coordinate file name                                          coord.xyz
 GLOBAL| Method name                                                        CP2K
 GLOBAL| Project name                                                       cp2k
 GLOBAL| Preferred FFT library                                             FFTW3
 GLOBAL| Preferred diagonalization lib.                                     ELPA
 GLOBAL| Run type                                                   ENERGY_FORCE
 GLOBAL| All-to-all communication in single precision                          F
 GLOBAL| FFTs using library dependent lengths                                  F
 GLOBAL| Global print level                                               MEDIUM
 GLOBAL| MPI I/O enabled                                                       T
 GLOBAL| Total number of message passing processes                            32
 GLOBAL| Number of threads for this process                                    1
 GLOBAL| This output is from process                                           0
 GLOBAL| CPU model name                Intel(R) Xeon(R) Gold 6226R CPU @ 2.90GHz
 GLOBAL| CPUID                                                              1003
 GLOBAL| Compiled for CPUID                                                 1002
 HINT in environment.F:814 The compiler target flags (x86_avx2) used to build
   this binary cannot exploit all extensions of this CPU model (x86_avx512).
   Consider compiler target flags as part of FCFLAGS and CFLAGS (ARCH file).

 MEMORY| system memory details [Kb]
 MEMORY|                        rank 0           min           max       average
 MEMORY| MemTotal            196472820     196472820     196472820     196472820
 MEMORY| MemFree             182934684     182934684     182934684     182934684
 MEMORY| Buffers                  2196          2196          2196          2196
 MEMORY| Cached                 794732        794732        794732        794732
 MEMORY| Slab                   429028        429028        429028        429028
 MEMORY| SReclaimable           137160        137160        137160        137160
 MEMORY| MemLikelyFree       183868772     183868772     183868772     183868772


 *** Fundamental physical constants (SI units) ***

 *** Literature: B. J. Mohr and B. N. Taylor,
 ***             CODATA recommended values of the fundamental physical
 ***             constants: 2006, Web Version 5.1
 ***             http://physics.nist.gov/constants

 Speed of light in vacuum [m/s]                             2.99792458000000E+08
 Magnetic constant or permeability of vacuum [N/A**2]       1.25663706143592E-06
 Electric constant or permittivity of vacuum [F/m]          8.85418781762039E-12
 Planck constant (h) [J*s]                                  6.62606896000000E-34
 Planck constant (h-bar) [J*s]                              1.05457162825177E-34
 Elementary charge [C]                                      1.60217648700000E-19
 Electron mass [kg]                                         9.10938215000000E-31
 Electron g factor [ ]                                     -2.00231930436220E+00
 Proton mass [kg]                                           1.67262163700000E-27
 Fine-structure constant                                    7.29735253760000E-03
 Rydberg constant [1/m]                                     1.09737315685270E+07
 Avogadro constant [1/mol]                                  6.02214179000000E+23
 Boltzmann constant [J/K]                                   1.38065040000000E-23
 Atomic mass unit [kg]                                      1.66053878200000E-27
 Bohr radius [m]                                            5.29177208590000E-11

 *** Conversion factors ***

 [u] -> [a.u.]                                              1.82288848426455E+03
 [Angstrom] -> [Bohr] = [a.u.]                              1.88972613288564E+00
 [a.u.] = [Bohr] -> [Angstrom]                              5.29177208590000E-01
 [a.u.] -> [s]                                              2.41888432650478E-17
 [a.u.] -> [fs]                                             2.41888432650478E-02
 [a.u.] -> [J]                                              4.35974393937059E-18
 [a.u.] -> [N]                                              8.23872205491840E-08
 [a.u.] -> [K]                                              3.15774647902944E+05
 [a.u.] -> [kJ/mol]                                         2.62549961709828E+03
 [a.u.] -> [kcal/mol]                                       6.27509468713739E+02
 [a.u.] -> [Pa]                                             2.94210107994716E+13
 [a.u.] -> [bar]                                            2.94210107994716E+08
 [a.u.] -> [atm]                                            2.90362800883016E+08
 [a.u.] -> [eV]                                             2.72113838565563E+01
 [a.u.] -> [Hz]                                             6.57968392072181E+15
 [a.u.] -> [1/cm] (wave numbers)                            2.19474631370540E+05
 [a.u./Bohr**2] -> [1/cm]                                   5.14048714338585E+03
 

 CELL_TOP| Volume [angstrom^3]:                                         4542.849
 CELL_TOP| Vector a [angstrom    11.246     0.000     0.000    |a| =      11.246
 CELL_TOP| Vector b [angstrom     0.000     9.739     0.000    |b| =       9.739
 CELL_TOP| Vector c [angstrom     0.000     0.000    41.478    |c| =      41.478
 CELL_TOP| Angle (b,c), alpha [degree]:                                   90.000
 CELL_TOP| Angle (a,c), beta  [degree]:                                   90.000
 CELL_TOP| Angle (a,b), gamma [degree]:                                   90.000
 CELL_TOP| Numerically orthorhombic:                                         YES

 GENERATE|  Preliminary Number of Bonds generated:                             0
 GENERATE|  Achieved consistency in connectivity generation.

 CELL| Volume [angstrom^3]:                                             4542.849
 CELL| Vector a [angstrom]:      11.246     0.000     0.000    |a| =      11.246
 CELL| Vector b [angstrom]:       0.000     9.739     0.000    |b| =       9.739
 CELL| Vector c [angstrom]:       0.000     0.000    41.478    |c| =      41.478
 CELL| Angle (b,c), alpha [degree]:                                       90.000
 CELL| Angle (a,c), beta  [degree]:                                       90.000
 CELL| Angle (a,b), gamma [degree]:                                       90.000
 CELL| Numerically orthorhombic:                                             YES

 CELL_REF| Volume [angstrom^3]:                                         4542.849
 CELL_REF| Vector a [angstrom    11.246     0.000     0.000    |a| =      11.246
 CELL_REF| Vector b [angstrom     0.000     9.739     0.000    |b| =       9.739
 CELL_REF| Vector c [angstrom     0.000     0.000    41.478    |c| =      41.478
 CELL_REF| Angle (b,c), alpha [degree]:                                   90.000
 CELL_REF| Angle (a,c), beta  [degree]:                                   90.000
 CELL_REF| Angle (a,b), gamma [degree]:                                   90.000
 CELL_REF| Numerically orthorhombic:                                         YES

 *******************************************************************************
 *******************************************************************************
 **                                                                           **
 **     #####                         ##              ##                      **
 **    ##   ##            ##          ##              ##                      **
 **   ##     ##                       ##            ######                    **
 **   ##     ##  ##   ##  ##   #####  ##  ##   ####   ##    #####    #####    **
 **   ##     ##  ##   ##  ##  ##      ## ##   ##      ##   ##   ##  ##   ##   **
 **   ##  ## ##  ##   ##  ##  ##      ####     ###    ##   ######   ######    **
 **    ##  ###   ##   ##  ##  ##      ## ##      ##   ##   ##       ##        **
 **     #######   #####   ##   #####  ##  ##  ####    ##    #####   ##        **
 **           ##                                                    ##        **
 **                                                                           **
 **                                                ... make the atoms dance   **
 **                                                                           **
 **            Copyright (C) by CP2K developers group (2000 - 2019)           **
 **                                                                           **
 *******************************************************************************

 DFT| Spin restricted Kohn-Sham (RKS) calculation                            RKS
 DFT| Multiplicity                                                             1
 DFT| Number of spin states                                                    1
 DFT| Charge                                                                   0
 DFT| Self-interaction correction (SIC)                                       NO
 DFT| Cutoffs: density                                              1.000000E-10
 DFT|          gradient                                             1.000000E-10
 DFT|          tau                                                  1.000000E-10
 DFT|          cutoff_smoothing_range                               0.000000E+00
 DFT| XC density smoothing                                                  NONE
 DFT| XC derivatives                                                          PW
 FUNCTIONAL| ROUTINE=NEW
 FUNCTIONAL| PBE:
 FUNCTIONAL| J.P.Perdew, K.Burke, M.Ernzerhof, Phys. Rev. Letter, vol. 77, n 18,
 FUNCTIONAL|  pp. 3865-3868, (1996){spin unpolarized}                           
 vdW POTENTIAL|                                                   Pair Potential
 vdW POTENTIAL|          DFT-D3 (Version 3.1)
 vdW POTENTIAL|          Potential Form: S. Grimme et al, JCP 132: 154104 (2010)
 vdW POTENTIAL|          Zero Damping
 vdW POTENTIAL|          Cutoff Radius [Bohr]:                             20.00
 vdW POTENTIAL|          s6 Scaling Factor:                               1.0000
 vdW POTENTIAL|          sr6 Scaling Factor:                              1.2170
 vdW POTENTIAL|          s8 Scaling Factor:                               0.7220
 vdW POTENTIAL|          Cutoff for CN calculation:                   0.1000E-05

 QS| Method:                                                                 GPW
 QS| Density plane wave grid type                        NON-SPHERICAL FULLSPACE
 QS| Number of grid levels:                                                    4
 QS| Density cutoff [a.u.]:                                                200.0
 QS| Multi grid cutoff [a.u.]: 1) grid level                               200.0
 QS|                           2) grid level                                66.7
 QS|                           3) grid level                                22.2
 QS|                           4) grid level                                 7.4
 QS| Grid level progression factor:                                          3.0
 QS| Relative density cutoff [a.u.]:                                        20.0
 QS| Consistent realspace mapping and integration 
 QS| Interaction thresholds: eps_pgf_orb:                                3.2E-07
 QS|                         eps_filter_matrix:                          0.0E+00
 QS|                         eps_core_charge:                            1.0E-15
 QS|                         eps_rho_gspace:                             1.0E-13
 QS|                         eps_rho_rspace:                             1.0E-13
 QS|                         eps_gvg_rspace:                             3.2E-07
 QS|                         eps_ppl:                                    1.0E-02
 QS|                         eps_ppnl:                                   3.2E-09


 ATOMIC KIND INFORMATION

  1. Atomic kind: Pt                                    Number of atoms:      96

     Orbital Basis Set                      DZVP-A5-Q10-323-MOL-T1-DERIVED_SET-1

       Number of orbital shell sets:                                           1
       Number of orbital shells:                                               6
       Number of primitive Cartesian functions:                                5
       Number of Cartesian basis functions:                                   23
       Number of spherical basis functions:                                   20
       Norm type:                                                              2

       Normalised Cartesian orbitals:

                        Set   Shell   Orbital            Exponent    Coefficient

                          1       1    2s                2.521825       0.177473
                                                         1.453920      -0.063399
                                                         0.614053      -0.407089
                                                         0.232656       0.262254
                                                         0.074788       0.047371

                          1       2    3s                2.521825      -0.049056
                                                         1.453920       0.044904
                                                         0.614053      -0.009756
                                                         0.232656      -0.144709
                                                         0.074788       0.144085

                          1       3    3px               2.521825      -0.317572
                                                         1.453920       0.534826
                                                         0.614053      -0.489458
                                                         0.232656       0.245631
                                                         0.074788       0.018221
                          1       3    3py               2.521825      -0.317572
                                                         1.453920       0.534826
                                                         0.614053      -0.489458
                                                         0.232656       0.245631
                                                         0.074788       0.018221
                          1       3    3pz               2.521825      -0.317572
                                                         1.453920       0.534826
                                                         0.614053      -0.489458
                                                         0.232656       0.245631
                                                         0.074788       0.018221

                          1       4    4dx2              2.521825       3.008522
                                                         1.453920      -1.224251
                                                         0.614053       0.225691
                                                         0.232656       0.125144
                                                         0.074788      -0.015348
                          1       4    4dxy              2.521825       5.210912
                                                         1.453920      -2.120465
                                                         0.614053       0.390909
                                                         0.232656       0.216756
                                                         0.074788      -0.026584
                          1       4    4dxz              2.521825       5.210912
                                                         1.453920      -2.120465
                                                         0.614053       0.390909
                                                         0.232656       0.216756
                                                         0.074788      -0.026584
                          1       4    4dy2              2.521825       3.008522
                                                         1.453920      -1.224251
                                                         0.614053       0.225691
                                                         0.232656       0.125144
                                                         0.074788      -0.015348
                          1       4    4dyz              2.521825       5.210912
                                                         1.453920      -2.120465
                                                         0.614053       0.390909
                                                         0.232656       0.216756
                                                         0.074788      -0.026584
                          1       4    4dz2              2.521825       3.008522
                                                         1.453920      -1.224251
                                                         0.614053       0.225691
                                                         0.232656       0.125144
                                                         0.074788      -0.015348

                          1       5    5dx2              2.521825       0.698026
                                                         1.453920      -1.511486
                                                         0.614053      -0.335394
                                                         0.232656      -0.025564
                                                         0.074788      -0.002699
                          1       5    5dxy              2.521825       1.209017
                                                         1.453920      -2.617970
                                                         0.614053      -0.580920
                                                         0.232656      -0.044277
                                                         0.074788      -0.004674
                          1       5    5dxz              2.521825       1.209017
                                                         1.453920      -2.617970
                                                         0.614053      -0.580920
                                                         0.232656      -0.044277
                                                         0.074788      -0.004674
                          1       5    5dy2              2.521825       0.698026
                                                         1.453920      -1.511486
                                                         0.614053      -0.335394
                                                         0.232656      -0.025564
                                                         0.074788      -0.002699
                          1       5    5dyz              2.521825       1.209017
                                                         1.453920      -2.617970
                                                         0.614053      -0.580920
                                                         0.232656      -0.044277
                                                         0.074788      -0.004674
                          1       5    5dz2              2.521825       0.698026
                                                         1.453920      -1.511486
                                                         0.614053      -0.335394
                                                         0.232656      -0.025564
                                                         0.074788      -0.002699

                          1       6    6dx2              2.521825       0.831079
                                                         1.453920      -0.709226
                                                         0.614053      -0.137351
                                                         0.232656       0.068642
                                                         0.074788       0.011745
                          1       6    6dxy              2.521825       1.439472
                                                         1.453920      -1.228415
                                                         0.614053      -0.237899
                                                         0.232656       0.118891
                                                         0.074788       0.020343
                          1       6    6dxz              2.521825       1.439472
                                                         1.453920      -1.228415
                                                         0.614053      -0.237899
                                                         0.232656       0.118891
                                                         0.074788       0.020343
                          1       6    6dy2              2.521825       0.831079
                                                         1.453920      -0.709226
                                                         0.614053      -0.137351
                                                         0.232656       0.068642
                                                         0.074788       0.011745
                          1       6    6dyz              2.521825       1.439472
                                                         1.453920      -1.228415
                                                         0.614053      -0.237899
                                                         0.232656       0.118891
                                                         0.074788       0.020343
                          1       6    6dz2              2.521825       0.831079
                                                         1.453920      -0.709226
                                                         0.614053      -0.137351
                                                         0.232656       0.068642
                                                         0.074788       0.011745

     GTH Potential information for                                   GTH-PBE-q10

       Description:                       Goedecker-Teter-Hutter pseudopotential
                                           Goedecker et al., PRB 54, 1703 (1996)
                                          Hartwigsen et al., PRB 58, 3641 (1998)
                                                      Krack, TCA 114, 145 (2005)

       Gaussian exponent of the core charge distribution:               1.317676
       Electronic configuration (s p d ...):                           1   0   9

       Parameters of the local part of the GTH pseudopotential:

                          rloc        C1          C2          C3          C4
                        0.616000   11.313635

       Parameters of the non-local part of the GTH pseudopotential:

                   l      r(l)      h(i,j,l)

                   0    0.550904    4.733491   -1.784594
                                   -1.784594    2.303901
                   1    0.674138    2.534798   -1.778066
                                   -1.778066    2.103836
                   2    0.457392   -7.264011    2.558665
                                    2.558665   -2.901253

  2. Atomic kind: O                                     Number of atoms:       1

     Orbital Basis Set                                        DZVP-MOLOPT-SR-GTH

       Number of orbital shell sets:                                           1
       Number of orbital shells:                                               5
       Number of primitive Cartesian functions:                                5
       Number of Cartesian basis functions:                                   14
       Number of spherical basis functions:                                   13
       Norm type:                                                              2

       Normalised Cartesian orbitals:

                        Set   Shell   Orbital            Exponent    Coefficient

                          1       1    2s               10.389228       0.396646
                                                         3.849621       0.208811
                                                         1.388401      -0.301641
                                                         0.496955      -0.274061
                                                         0.162492      -0.033677

                          1       2    3s               10.389228       0.303673
                                                         3.849621       0.240943
                                                         1.388401      -0.313066
                                                         0.496955      -0.043055
                                                         0.162492       0.213991

                          1       3    3px              10.389228      -1.530415
                                                         3.849621      -1.371928
                                                         1.388401      -0.761951
                                                         0.496955      -0.253695
                                                         0.162492      -0.035541
                          1       3    3py              10.389228      -1.530415
                                                         3.849621      -1.371928
                                                         1.388401      -0.761951
                                                         0.496955      -0.253695
                                                         0.162492      -0.035541
                          1       3    3pz              10.389228      -1.530415
                                                         3.849621      -1.371928
                                                         1.388401      -0.761951
                                                         0.496955      -0.253695
                                                         0.162492      -0.035541

                          1       4    4px              10.389228      -0.565392
                                                         3.849621      -0.038231
                                                         1.388401      -0.382373
                                                         0.496955       0.179070
                                                         0.162492       0.122714
                          1       4    4py              10.389228      -0.565392
                                                         3.849621      -0.038231
                                                         1.388401      -0.382373
                                                         0.496955       0.179070
                                                         0.162492       0.122714
                          1       4    4pz              10.389228      -0.565392
                                                         3.849621      -0.038231
                                                         1.388401      -0.382373
                                                         0.496955       0.179070
                                                         0.162492       0.122714

                          1       5    4dx2             10.389228       1.867377
                                                         3.849621       0.670994
                                                         1.388401       1.353441
                                                         0.496955       0.273538
                                                         0.162492       0.006620
                          1       5    4dxy             10.389228       3.234392
                                                         3.849621       1.162195
                                                         1.388401       2.344229
                                                         0.496955       0.473781
                                                         0.162492       0.011466
                          1       5    4dxz             10.389228       3.234392
                                                         3.849621       1.162195
                                                         1.388401       2.344229
                                                         0.496955       0.473781
                                                         0.162492       0.011466
                          1       5    4dy2             10.389228       1.867377
                                                         3.849621       0.670994
                                                         1.388401       1.353441
                                                         0.496955       0.273538
                                                         0.162492       0.006620
                          1       5    4dyz             10.389228       3.234392
                                                         3.849621       1.162195
                                                         1.388401       2.344229
                                                         0.496955       0.473781
                                                         0.162492       0.011466
                          1       5    4dz2             10.389228       1.867377
                                                         3.849621       0.670994
                                                         1.388401       1.353441
                                                         0.496955       0.273538
                                                         0.162492       0.006620

     GTH Potential information for                                    GTH-PBE-q6

       Description:                       Goedecker-Teter-Hutter pseudopotential
                                           Goedecker et al., PRB 54, 1703 (1996)
                                          Hartwigsen et al., PRB 58, 3641 (1998)
                                                      Krack, TCA 114, 145 (2005)

       Gaussian exponent of the core charge distribution:               8.360253
       Electronic configuration (s p d ...):                               2   4

       Parameters of the local part of the GTH pseudopotential:

                          rloc        C1          C2          C3          C4
                        0.244554  -16.667215    2.487311

       Parameters of the non-local part of the GTH pseudopotential:

                   l      r(l)      h(i,j,l)

                   0    0.220956   18.337458
                   1    0.211332

  3. Atomic kind: H                                     Number of atoms:       2

     Orbital Basis Set                                        DZVP-MOLOPT-SR-GTH

       Number of orbital shell sets:                                           1
       Number of orbital shells:                                               3
       Number of primitive Cartesian functions:                                5
       Number of Cartesian basis functions:                                    5
       Number of spherical basis functions:                                    5
       Norm type:                                                              2

       Normalised Cartesian orbitals:

                        Set   Shell   Orbital            Exponent    Coefficient

                          1       1    2s               10.068468      -0.133023
                                                         2.680223      -0.177618
                                                         0.791502      -0.258419
                                                         0.239116      -0.107525
                                                         0.082193      -0.014019

                          1       2    3s               10.068468       0.344673
                                                         2.680223       1.819821
                                                         0.791502      -0.999069
                                                         0.239116       0.017430
                                                         0.082193       0.082660

                          1       3    3px              10.068468       0.155326
                                                         2.680223       0.367157
                                                         0.791502       0.311480
                                                         0.239116       0.080105
                                                         0.082193       0.033440
                          1       3    3py              10.068468       0.155326
                                                         2.680223       0.367157
                                                         0.791502       0.311480
                                                         0.239116       0.080105
                                                         0.082193       0.033440
                          1       3    3pz              10.068468       0.155326
                                                         2.680223       0.367157
                                                         0.791502       0.311480
                                                         0.239116       0.080105
                                                         0.082193       0.033440

     GTH Potential information for                                    GTH-PBE-q1

       Description:                       Goedecker-Teter-Hutter pseudopotential
                                           Goedecker et al., PRB 54, 1703 (1996)
                                          Hartwigsen et al., PRB 58, 3641 (1998)
                                                      Krack, TCA 114, 145 (2005)

       Gaussian exponent of the core charge distribution:              12.500000
       Electronic configuration (s p d ...):                                   1

       Parameters of the local part of the GTH pseudopotential:

                          rloc        C1          C2          C3          C4
                        0.200000   -4.178900    0.724463


 MOLECULE KIND INFORMATION


 All atoms are their own molecule, skipping detailed information


 TOTAL NUMBERS AND MAXIMUM NUMBERS

  Total number of            - Atomic kinds:                                   3
                             - Atoms:                                         99
                             - Shell sets:                                    99
                             - Shells:                                       587
                             - Primitive Cartesian functions:                495
                             - Cartesian basis functions:                   2232
                             - Spherical basis functions:                   1943

  Maximum angular momentum of- Orbital basis functions:                        2
                             - Local part of the GTH pseudopotential:          2
                             - Non-local part of the GTH pseudopotential:      4


 MODULE QUICKSTEP:  ATOMIC COORDINATES IN angstrom

  Atom  Kind  Element       X           Y           Z          Z(eff)       Mass

       1     1 Pt  78    1.405728    0.811598   15.000000     10.00     195.0840
       2     1 Pt  78    4.217185    0.811598   15.000000     10.00     195.0840
       3     1 Pt  78    7.028641    0.811598   15.000000     10.00     195.0840
       4     1 Pt  78    9.840098    0.811598   15.000000     10.00     195.0840
       5     1 Pt  78    0.000000    3.246390   15.000000     10.00     195.0840
       6     1 Pt  78    2.811457    3.246390   15.000000     10.00     195.0840
       7     1 Pt  78    5.622913    3.246390   15.000000     10.00     195.0840
       8     1 Pt  78    8.434370    3.246390   15.000000     10.00     195.0840
       9     1 Pt  78    1.405728    5.681183   15.000000     10.00     195.0840
      10     1 Pt  78    4.217185    5.681183   15.000000     10.00     195.0840
      11     1 Pt  78    7.028641    5.681183   15.000000     10.00     195.0840
      12     1 Pt  78    9.840098    5.681183   15.000000     10.00     195.0840
      13     1 Pt  78    0.000000    8.115976   15.000000     10.00     195.0840
      14     1 Pt  78    2.811457    8.115976   15.000000     10.00     195.0840
      15     1 Pt  78    5.622913    8.115976   15.000000     10.00     195.0840
      16     1 Pt  78    8.434370    8.115976   15.000000     10.00     195.0840
      17     1 Pt  78    0.000000    1.623195   17.295545     10.00     195.0840
      18     1 Pt  78    2.811457    1.623195   17.295545     10.00     195.0840
      19     1 Pt  78    5.622913    1.623195   17.295545     10.00     195.0840
      20     1 Pt  78    8.434370    1.623195   17.295545     10.00     195.0840
      21     1 Pt  78    1.405728    4.057988   17.295545     10.00     195.0840
      22     1 Pt  78    4.217185    4.057988   17.295545     10.00     195.0840
      23     1 Pt  78    7.028641    4.057988   17.295545     10.00     195.0840
      24     1 Pt  78    9.840098    4.057988   17.295545     10.00     195.0840
      25     1 Pt  78    0.000000    6.492781   17.295545     10.00     195.0840
      26     1 Pt  78    2.811457    6.492781   17.295545     10.00     195.0840
      27     1 Pt  78    5.622913    6.492781   17.295545     10.00     195.0840
      28     1 Pt  78    8.434370    6.492781   17.295545     10.00     195.0840
      29     1 Pt  78    1.405728    8.927574   17.295545     10.00     195.0840
      30     1 Pt  78    4.217185    8.927574   17.295545     10.00     195.0840
      31     1 Pt  78    7.028641    8.927574   17.295545     10.00     195.0840
      32     1 Pt  78    9.840098    8.927574   17.295545     10.00     195.0840
      33     1 Pt  78    0.000000    0.000000   19.591089     10.00     195.0840
      34     1 Pt  78    2.811457    0.000000   19.591089     10.00     195.0840
      35     1 Pt  78    5.622913    0.000000   19.591089     10.00     195.0840
      36     1 Pt  78    8.434370    0.000000   19.591089     10.00     195.0840
      37     1 Pt  78    1.405728    2.434793   19.591089     10.00     195.0840
      38     1 Pt  78    4.217185    2.434793   19.591089     10.00     195.0840
      39     1 Pt  78    7.028641    2.434793   19.591089     10.00     195.0840
      40     1 Pt  78    9.840098    2.434793   19.591089     10.00     195.0840
      41     1 Pt  78    0.000000    4.869586   19.591089     10.00     195.0840
      42     1 Pt  78    2.811457    4.869586   19.591089     10.00     195.0840
      43     1 Pt  78    5.622913    4.869586   19.591089     10.00     195.0840
      44     1 Pt  78    8.434370    4.869586   19.591089     10.00     195.0840
      45     1 Pt  78    1.405728    7.304378   19.591089     10.00     195.0840
      46     1 Pt  78    4.217185    7.304378   19.591089     10.00     195.0840
      47     1 Pt  78    7.028641    7.304378   19.591089     10.00     195.0840
      48     1 Pt  78    9.840098    7.304378   19.591089     10.00     195.0840
      49     1 Pt  78    1.405728    0.811598   21.886634     10.00     195.0840
      50     1 Pt  78    4.217185    0.811598   21.886634     10.00     195.0840
      51     1 Pt  78    7.028641    0.811598   21.886634     10.00     195.0840
      52     1 Pt  78    9.840098    0.811598   21.886634     10.00     195.0840
      53     1 Pt  78    0.000000    3.246390   21.886634     10.00     195.0840
      54     1 Pt  78    2.811457    3.246390   21.886634     10.00     195.0840
      55     1 Pt  78    5.622913    3.246390   21.886634     10.00     195.0840
      56     1 Pt  78    8.434370    3.246390   21.886634     10.00     195.0840
      57     1 Pt  78    1.405728    5.681183   21.886634     10.00     195.0840
      58     1 Pt  78    4.217185    5.681183   21.886634     10.00     195.0840
      59     1 Pt  78    7.028641    5.681183   21.886634     10.00     195.0840
      60     1 Pt  78    9.840098    5.681183   21.886634     10.00     195.0840
      61     1 Pt  78    0.000000    8.115976   21.886634     10.00     195.0840
      62     1 Pt  78    2.811457    8.115976   21.886634     10.00     195.0840
      63     1 Pt  78    5.622913    8.115976   21.886634     10.00     195.0840
      64     1 Pt  78    8.434370    8.115976   21.886634     10.00     195.0840
      65     1 Pt  78    0.000000    1.623195   24.182179     10.00     195.0840
      66     1 Pt  78    2.811457    1.623195   24.182179     10.00     195.0840
      67     1 Pt  78    5.622913    1.623195   24.182179     10.00     195.0840
      68     1 Pt  78    8.434370    1.623195   24.182179     10.00     195.0840
      69     1 Pt  78    1.405728    4.057988   24.182179     10.00     195.0840
      70     1 Pt  78    4.217185    4.057988   24.182179     10.00     195.0840
      71     1 Pt  78    7.028641    4.057988   24.182179     10.00     195.0840
      72     1 Pt  78    9.840098    4.057988   24.182179     10.00     195.0840
      73     1 Pt  78    0.000000    6.492781   24.182179     10.00     195.0840
      74     1 Pt  78    2.811457    6.492781   24.182179     10.00     195.0840
      75     1 Pt  78    5.622913    6.492781   24.182179     10.00     195.0840
      76     1 Pt  78    8.434370    6.492781   24.182179     10.00     195.0840
      77     1 Pt  78    1.405728    8.927574   24.182179     10.00     195.0840
      78     1 Pt  78    4.217185    8.927574   24.182179     10.00     195.0840
      79     1 Pt  78    7.028641    8.927574   24.182179     10.00     195.0840
      80     1 Pt  78    9.840098    8.927574   24.182179     10.00     195.0840
      81     1 Pt  78    0.000000    0.000000   26.477723     10.00     195.0840
      82     1 Pt  78    2.811457    0.000000   26.477723     10.00     195.0840
      83     1 Pt  78    5.622913    0.000000   26.477723     10.00     195.0840
      84     1 Pt  78    8.434370    0.000000   26.477723     10.00     195.0840
      85     1 Pt  78    1.405728    2.434793   26.477723     10.00     195.0840
      86     1 Pt  78    4.217185    2.434793   26.477723     10.00     195.0840
      87     1 Pt  78    7.028641    2.434793   26.477723     10.00     195.0840
      88     1 Pt  78    9.840098    2.434793   26.477723     10.00     195.0840
      89     1 Pt  78    0.000000    4.869586   26.477723     10.00     195.0840
      90     1 Pt  78    2.811457    4.869586   26.477723     10.00     195.0840
      91     1 Pt  78    5.622913    4.869586   26.477723     10.00     195.0840
      92     1 Pt  78    8.434370    4.869586   26.477723     10.00     195.0840
      93     1 Pt  78    1.405728    7.304378   26.477723     10.00     195.0840
      94     1 Pt  78    4.217185    7.304378   26.477723     10.00     195.0840
      95     1 Pt  78    7.028641    7.304378   26.477723     10.00     195.0840
      96     1 Pt  78    9.840098    7.304378   26.477723     10.00     195.0840
      97     2 O    8    5.622913    4.869586   29.377723      6.00      15.9994
      98     3 H    1    5.062566    5.632825   29.581673      1.00       1.0079
      99     3 H    1    5.062566    4.106347   29.581673      1.00       1.0079




 SCF PARAMETERS         Density guess:                                   RESTART
                        --------------------------------------------------------
                        max_scf:                                             500
                        max_scf_history:                                       0
                        max_diis:                                              4
                        --------------------------------------------------------
                        eps_scf:                                        1.00E-06
                        eps_scf_history:                                0.00E+00
                        eps_diis:                                       1.00E-01
                        eps_eigval:                                     1.00E-05
                        --------------------------------------------------------
                        level_shift [a.u.]:                                 0.00
                        added MOs                                       500    0
                        --------------------------------------------------------
                        Mixing method:                            BROYDEN_MIXING
                                                charge density mixing in g-space
                        --------------------------------------------------------
                        Smear method:                                FERMI_DIRAC
                        Electronic temperature [K]:                        300.0
                        Electronic temperature [a.u.]:                  9.50E-04
                        Accuracy threshold:                             1.00E-10
                        --------------------------------------------------------
                        No outer SCF

 PW_GRID| Information for grid number                                          1
 PW_GRID| Grid distributed over                                    32 processors
 PW_GRID| Real space group dimensions                                    32    1
 PW_GRID| the grid is blocked:                                                NO
 PW_GRID| Cutoff [a.u.]                                                    200.0
 PW_GRID| spherical cutoff:                                                   NO
 PW_GRID|   Bounds   1            -67      67                Points:         135
 PW_GRID|   Bounds   2            -60      59                Points:         120
 PW_GRID|   Bounds   3           -250     249                Points:         500
 PW_GRID| Volume element (a.u.^3)  0.3785E-02     Volume (a.u.^3)     30656.6653
 PW_GRID| Grid span                                                    FULLSPACE
 PW_GRID|   Distribution                         Average         Max         Min
 PW_GRID|   G-Vectors                           253125.0      253125      253125
 PW_GRID|   G-Rays                                1875.0        1875        1875
 PW_GRID|   Real Space Points                   253125.0      300000      240000

 PW_GRID| Information for grid number                                          2
 PW_GRID| Number of the reference grid                                         1
 PW_GRID| Grid distributed over                                    32 processors
 PW_GRID| Real space group dimensions                                    32    1
 PW_GRID| the grid is blocked:                                                NO
 PW_GRID| Cutoff [a.u.]                                                     66.7
 PW_GRID| spherical cutoff:                                                   NO
 PW_GRID|   Bounds   1            -40      39                Points:          80
 PW_GRID|   Bounds   2            -36      35                Points:          72
 PW_GRID|   Bounds   3           -150     149                Points:         300
 PW_GRID| Volume element (a.u.^3)  0.1774E-01     Volume (a.u.^3)     30656.6653
 PW_GRID| Grid span                                                    FULLSPACE
 PW_GRID|   Distribution                         Average         Max         Min
 PW_GRID|   G-Vectors                            54000.0       54640       53520
 PW_GRID|   G-Rays                                 675.0         683         669
 PW_GRID|   Real Space Points                    54000.0       64800       43200

 PW_GRID| Information for grid number                                          3
 PW_GRID| Number of the reference grid                                         1
 PW_GRID| Grid distributed over                                    32 processors
 PW_GRID| Real space group dimensions                                    32    1
 PW_GRID| the grid is blocked:                                                NO
 PW_GRID| Cutoff [a.u.]                                                     22.2
 PW_GRID| spherical cutoff:                                                   NO
 PW_GRID|   Bounds   1            -22      22                Points:          45
 PW_GRID|   Bounds   2            -20      19                Points:          40
 PW_GRID|   Bounds   3            -90      89                Points:         180
 PW_GRID| Volume element (a.u.^3)  0.9462E-01     Volume (a.u.^3)     30656.6653
 PW_GRID| Grid span                                                    FULLSPACE
 PW_GRID|   Distribution                         Average         Max         Min
 PW_GRID|   G-Vectors                            10125.0       10260       10035
 PW_GRID|   G-Rays                                 225.0         228         223
 PW_GRID|   Real Space Points                    10125.0       14400        7200

 PW_GRID| Information for grid number                                          4
 PW_GRID| Number of the reference grid                                         1
 PW_GRID| Grid distributed over                                    32 processors
 PW_GRID| Real space group dimensions                                     4    8
 PW_GRID| the grid is blocked:                                                NO
 PW_GRID| Cutoff [a.u.]                                                      7.4
 PW_GRID| spherical cutoff:                                                   NO
 PW_GRID|   Bounds   1            -13      13                Points:          27
 PW_GRID|   Bounds   2            -12      11                Points:          24
 PW_GRID|   Bounds   3            -50      49                Points:         100
 PW_GRID| Volume element (a.u.^3)  0.4731         Volume (a.u.^3)     30656.6653
 PW_GRID| Grid span                                                    FULLSPACE
 PW_GRID|   Distribution                         Average         Max         Min
 PW_GRID|   G-Vectors                             2025.0        2133        1890
 PW_GRID|   G-Rays                                  75.0          79          70
 PW_GRID|   Real Space Points                     2025.0        2100        1800

 POISSON| Solver                                                        PERIODIC
 POISSON| Periodicity                                                        XYZ

 RS_GRID| Information for grid number                                          1
 RS_GRID|   Bounds   1            -67      67                Points:         135
 RS_GRID|   Bounds   2            -60      59                Points:         120
 RS_GRID|   Bounds   3           -250     249                Points:         500
 RS_GRID| Real space distribution over                                 32 groups
 RS_GRID| Real space distribution along direction                              3
 RS_GRID| Border size                                                         34
 RS_GRID|   Distribution                         Average         Max         Min
 RS_GRID|   Planes                                  83.6          84          83

 RS_GRID| Information for grid number                                          2
 RS_GRID|   Bounds   1            -40      39                Points:          80
 RS_GRID|   Bounds   2            -36      35                Points:          72
 RS_GRID|   Bounds   3           -150     149                Points:         300
 RS_GRID| Real space distribution over                                 32 groups
 RS_GRID| Real space distribution along direction                              3
 RS_GRID| Border size                                                         24
 RS_GRID|   Distribution                         Average         Max         Min
 RS_GRID|   Planes                                  57.4          58          57

 RS_GRID| Information for grid number                                          3
 RS_GRID|   Bounds   1            -22      22                Points:          45
 RS_GRID|   Bounds   2            -20      19                Points:          40
 RS_GRID|   Bounds   3            -90      89                Points:         180
 RS_GRID| Real space fully replicated
 RS_GRID| Group size                                                           1

 RS_GRID| Information for grid number                                          4
 RS_GRID|   Bounds   1            -13      13                Points:          27
 RS_GRID|   Bounds   2            -12      11                Points:          24
 RS_GRID|   Bounds   3            -50      49                Points:         100
 RS_GRID| Real space fully replicated
 RS_GRID| Group size                                                           1

 Number of electrons:                                                        968
 Number of occupied orbitals:                                                484
 Number of molecular orbitals:                                               984

 Number of orbital functions:                                               1943
 Number of independent orbital functions:                                   1943

 Extrapolation method: initial_guess


 SCF WAVEFUNCTION OPTIMIZATION

  Step     Update method      Time    Convergence         Total energy    Change
  ------------------------------------------------------------------------------
     1 NoMix/Diag. 0.30E+00    1.0     0.11294322     -2538.0210804634 -2.54E+03
     2 Broy./Diag. 0.30E+00    1.4     0.11614505     -2538.1721272527 -1.51E-01
     3 Broy./Diag. 0.30E+00    1.4     0.11546038     -2538.1378365776  3.43E-02
     4 Broy./Diag. 0.30E+00    1.4     0.01480326     -2538.0857148222  5.21E-02
     5 Broy./Diag. 0.30E+00    1.4     0.01035320     -2538.1070687043 -2.14E-02
     6 Broy./Diag. 0.30E+00    1.4     0.00592810     -2538.0127303040  9.43E-02
     7 Broy./Diag. 0.30E+00    1.4     0.00348510     -2538.1096492824 -9.69E-02
     8 Broy./Diag. 0.30E+00    1.4     0.00250632     -2538.0392190672  7.04E-02
     9 Broy./Diag. 0.30E+00    1.4     0.00151355     -2538.0679977589 -2.88E-02
    10 Broy./Diag. 0.30E+00    1.4     0.00094913     -2538.0625014024  5.50E-03
    11 Broy./Diag. 0.30E+00    1.4     0.00072541     -2538.0671374084 -4.64E-03
    12 Broy./Diag. 0.30E+00    1.4     0.00057231     -2538.0675654156 -4.28E-04
    13 Broy./Diag. 0.30E+00    1.4     0.00119876     -2538.0653668232  2.20E-03
    14 Broy./Diag. 0.30E+00    1.5     0.00054291     -2538.0597468793  5.62E-03
    15 Broy./Diag. 0.30E+00    1.4     0.00051380     -2538.0600390971 -2.92E-04
    16 Broy./Diag. 0.30E+00    1.4     0.00034562     -2538.0615623653 -1.52E-03
    17 Broy./Diag. 0.30E+00    1.4     0.00038055     -2538.0619384857 -3.76E-04
    18 Broy./Diag. 0.30E+00    1.4     0.00030956     -2538.0640519896 -2.11E-03
    19 Broy./Diag. 0.30E+00    1.4     0.00022563     -2538.0667375789 -2.69E-03
    20 Broy./Diag. 0.30E+00    1.4     0.00014211     -2538.0674291837 -6.92E-04
    21 Broy./Diag. 0.30E+00    1.4     0.00011619     -2538.0673121574  1.17E-04
    22 Broy./Diag. 0.30E+00    1.4     0.00013759     -2538.0676755083 -3.63E-04
    23 Broy./Diag. 0.30E+00    1.4     0.00009508     -2538.0655408340  2.13E-03
    24 Broy./Diag. 0.30E+00    1.4     0.00008756     -2538.0668399412 -1.30E-03
    25 Broy./Diag. 0.30E+00    1.4     0.00008300     -2538.0652691204  1.57E-03
    26 Broy./Diag. 0.30E+00    1.4     0.00005214     -2538.0653484498 -7.93E-05
    27 Broy./Diag. 0.30E+00    1.4     0.00005225     -2538.0654046537 -5.62E-05
    28 Broy./Diag. 0.30E+00    1.4     0.00006490     -2538.0656279311 -2.23E-04
    29 Broy./Diag. 0.30E+00    1.4     0.00005170     -2538.0655284342  9.95E-05
    30 Broy./Diag. 0.30E+00    1.4     0.00003389     -2538.0658391667 -3.11E-04
    31 Broy./Diag. 0.30E+00    1.4     0.00002690     -2538.0659836508 -1.44E-04
    32 Broy./Diag. 0.30E+00    1.4     0.00002740     -2538.0658789831  1.05E-04
    33 Broy./Diag. 0.30E+00    1.4     0.00002153     -2538.0662000537 -3.21E-04
    34 Broy./Diag. 0.30E+00    1.4     0.00002392     -2538.0657929083  4.07E-04
    35 Broy./Diag. 0.30E+00    1.4     0.00002568     -2538.0660231478 -2.30E-04
    36 Broy./Diag. 0.30E+00    1.4     0.00001799     -2538.0657629132  2.60E-04
    37 Broy./Diag. 0.30E+00    1.4     0.00001354     -2538.0656784849  8.44E-05
    38 Broy./Diag. 0.30E+00    1.4     0.00001501     -2538.0656058270  7.27E-05
    39 Broy./Diag. 0.30E+00    1.4     0.00001198     -2538.0656490456 -4.32E-05
    40 Broy./Diag. 0.30E+00    1.4     0.00000986     -2538.0656145300  3.45E-05
    41 Broy./Diag. 0.30E+00    1.4     0.00000783     -2538.0656660256 -5.15E-05
    42 Broy./Diag. 0.30E+00    1.4     0.00000999     -2538.0657652378 -9.92E-05
    43 Broy./Diag. 0.30E+00    1.4     0.00000678     -2538.0656938174  7.14E-05
    44 Broy./Diag. 0.30E+00    1.4     0.00000989     -2538.0658255813 -1.32E-04
    45 Broy./Diag. 0.30E+00    1.4     0.00000879     -2538.0657164527  1.09E-04
    46 Broy./Diag. 0.30E+00    1.4     0.00000610     -2538.0657910116 -7.46E-05
    47 Broy./Diag. 0.30E+00    1.4     0.00000422     -2538.0657672417  2.38E-05
    48 Broy./Diag. 0.30E+00    1.4     0.00000503     -2538.0657495987  1.76E-05
    49 Broy./Diag. 0.30E+00    1.4     0.00000440     -2538.0657169324  3.27E-05
    50 Broy./Diag. 0.30E+00    1.4     0.00000369     -2538.0657224235 -5.49E-06
    51 Broy./Diag. 0.30E+00    1.4     0.00000294     -2538.0656962714  2.62E-05
    52 Broy./Diag. 0.30E+00    1.4     0.00000384     -2538.0656737960  2.25E-05
    53 Broy./Diag. 0.30E+00    1.4     0.00000300     -2538.0657132150 -3.94E-05
    54 Broy./Diag. 0.30E+00    1.4     0.00000252     -2538.0656763120  3.69E-05
    55 Broy./Diag. 0.30E+00    1.4     0.00000291     -2538.0657177192 -4.14E-05
    56 Broy./Diag. 0.30E+00    1.5     0.00000218     -2538.0656981040  1.96E-05
    57 Broy./Diag. 0.30E+00    1.4     0.00000149     -2538.0657195311 -2.14E-05
    58 Broy./Diag. 0.30E+00    1.4     0.00000148     -2538.0657261416 -6.61E-06
    59 Broy./Diag. 0.30E+00    1.4     0.00000168     -2538.0657307316 -4.59E-06
    60 Broy./Diag. 0.30E+00    1.4     0.00000123     -2538.0657223405  8.39E-06
    61 Broy./Diag. 0.30E+00    1.4     0.00000091     -2538.0657270882 -4.75E-06

  *** SCF run converged in    61 steps ***


  Electronic density on regular grids:       -968.0000000001       -0.0000000001
  Core density on regular grids:              967.9999999998       -0.0000000002
  Total charge density on r-space grids:       -0.0000000003
  Total charge density g-space grids:          -0.0000000003

  Overlap energy of the core charge distribution:               0.00001067490320
  Self energy of the core charge distribution:              -4440.62962420003350
  Core Hamiltonian energy:                                   1439.83462055206837
  Hartree energy:                                             901.55936030752150
  Exchange-correlation energy:                               -436.67989839267887
  Dispersion energy:                                           -2.11767477974810
  Electronic entropic energy:                                  -0.03252125952917
  Fermi energy:                                                 0.00876950605587

  Total energy:                                             -2538.06572708820295

 The electron density is written in cube file format to the file:

 cp2k-ELECTRON_DENSITY-1_0.cube

 !-----------------------------------------------------------------------------!
                     Mulliken Population Analysis

 #  Atom  Element  Kind  Atomic population                           Net charge
       1     Pt       1         10.055351                             -0.055351
       2     Pt       1         10.054917                             -0.054917
       3     Pt       1         10.054824                             -0.054824
       4     Pt       1         10.055158                             -0.055158
       5     Pt       1         10.055036                             -0.055036
       6     Pt       1         10.054996                             -0.054996
       7     Pt       1         10.055315                             -0.055315
       8     Pt       1         10.055209                             -0.055209
       9     Pt       1         10.054824                             -0.054824
      10     Pt       1         10.055778                             -0.055778
      11     Pt       1         10.055763                             -0.055763
      12     Pt       1         10.055008                             -0.055008
      13     Pt       1         10.055282                             -0.055282
      14     Pt       1         10.055279                             -0.055279
      15     Pt       1         10.054436                             -0.054436
      16     Pt       1         10.055266                             -0.055266
      17     Pt       1          9.972139                              0.027861
      18     Pt       1          9.971974                              0.028026
      19     Pt       1          9.972009                              0.027991
      20     Pt       1          9.971938                              0.028062
      21     Pt       1          9.972063                              0.027937
      22     Pt       1          9.972154                              0.027846
      23     Pt       1          9.972166                              0.027834
      24     Pt       1          9.972015                              0.027985
      25     Pt       1          9.971935                              0.028065
      26     Pt       1          9.972236                              0.027764
      27     Pt       1          9.972097                              0.027903
      28     Pt       1          9.972226                              0.027774
      29     Pt       1          9.972163                              0.027837
      30     Pt       1          9.972337                              0.027663
      31     Pt       1          9.972262                              0.027738
      32     Pt       1          9.972206                              0.027794
      33     Pt       1          9.972788                              0.027212
      34     Pt       1          9.973386                              0.026614
      35     Pt       1          9.974255                              0.025745
      36     Pt       1          9.973530                              0.026470
      37     Pt       1          9.974514                              0.025486
      38     Pt       1          9.973475                              0.026525
      39     Pt       1          9.973480                              0.026520
      40     Pt       1          9.974496                              0.025504
      41     Pt       1          9.973922                              0.026078
      42     Pt       1          9.973493                              0.026507
      43     Pt       1          9.973942                              0.026058
      44     Pt       1          9.973277                              0.026723
      45     Pt       1          9.973331                              0.026669
      46     Pt       1          9.973350                              0.026650
      47     Pt       1          9.973444                              0.026556
      48     Pt       1          9.973351                              0.026649
      49     Pt       1          9.973539                              0.026461
      50     Pt       1          9.972956                              0.027044
      51     Pt       1          9.972995                              0.027005
      52     Pt       1          9.973386                              0.026614
      53     Pt       1          9.972653                              0.027347
      54     Pt       1          9.974473                              0.025527
      55     Pt       1          9.973594                              0.026406
      56     Pt       1          9.974363                              0.025637
      57     Pt       1          9.973383                              0.026617
      58     Pt       1          9.973750                              0.026250
      59     Pt       1          9.973698                              0.026302
      60     Pt       1          9.973391                              0.026609
      61     Pt       1          9.974061                              0.025939
      62     Pt       1          9.973664                              0.026336
      63     Pt       1          9.975037                              0.024963
      64     Pt       1          9.973498                              0.026502
      65     Pt       1          9.972144                              0.027856
      66     Pt       1          9.972098                              0.027902
      67     Pt       1          9.973556                              0.026444
      68     Pt       1          9.972440                              0.027560
      69     Pt       1          9.972190                              0.027810
      70     Pt       1          9.972706                              0.027294
      71     Pt       1          9.970690                              0.029310
      72     Pt       1          9.972564                              0.027436
      73     Pt       1          9.971856                              0.028144
      74     Pt       1          9.973641                              0.026359
      75     Pt       1          9.971655                              0.028345
      76     Pt       1          9.973402                              0.026598
      77     Pt       1          9.972288                              0.027712
      78     Pt       1          9.971678                              0.028322
      79     Pt       1          9.972455                              0.027545
      80     Pt       1          9.972305                              0.027695
      81     Pt       1         10.058517                             -0.058517
      82     Pt       1         10.061637                             -0.061637
      83     Pt       1         10.065720                             -0.065720
      84     Pt       1         10.057775                             -0.057775
      85     Pt       1         10.062846                             -0.062846
      86     Pt       1         10.075854                             -0.075854
      87     Pt       1         10.054303                             -0.054303
      88     Pt       1         10.058894                             -0.058894
      89     Pt       1         10.059332                             -0.059332
      90     Pt       1         10.068134                             -0.068134
      91     Pt       1          9.995612                              0.004388
      92     Pt       1         10.045176                             -0.045176
      93     Pt       1         10.062637                             -0.062637
      94     Pt       1         10.076354                             -0.076354
      95     Pt       1         10.054977                             -0.054977
      96     Pt       1         10.058713                             -0.058713
      97     O        2          6.208317                             -0.208317
      98     H        3          0.862335                              0.137665
      99     H        3          0.862364                              0.137636
 # Total charge                            968.000000                  0.000000

 !-----------------------------------------------------------------------------!

 !-----------------------------------------------------------------------------!
                           Hirshfeld Charges

  #Atom  Element  Kind  Ref Charge     Population                    Net charge
      1       Pt     1      10.000         10.016                        -0.016
      2       Pt     1      10.000         10.015                        -0.015
      3       Pt     1      10.000         10.015                        -0.015
      4       Pt     1      10.000         10.015                        -0.015
      5       Pt     1      10.000         10.015                        -0.015
      6       Pt     1      10.000         10.015                        -0.015
      7       Pt     1      10.000         10.016                        -0.016
      8       Pt     1      10.000         10.016                        -0.016
      9       Pt     1      10.000         10.015                        -0.015
     10       Pt     1      10.000         10.016                        -0.016
     11       Pt     1      10.000         10.016                        -0.016
     12       Pt     1      10.000         10.015                        -0.015
     13       Pt     1      10.000         10.016                        -0.016
     14       Pt     1      10.000         10.015                        -0.015
     15       Pt     1      10.000         10.015                        -0.015
     16       Pt     1      10.000         10.015                        -0.015
     17       Pt     1      10.000          9.987                         0.013
     18       Pt     1      10.000          9.987                         0.013
     19       Pt     1      10.000          9.987                         0.013
     20       Pt     1      10.000          9.987                         0.013
     21       Pt     1      10.000          9.987                         0.013
     22       Pt     1      10.000          9.987                         0.013
     23       Pt     1      10.000          9.987                         0.013
     24       Pt     1      10.000          9.987                         0.013
     25       Pt     1      10.000          9.987                         0.013
     26       Pt     1      10.000          9.987                         0.013
     27       Pt     1      10.000          9.987                         0.013
     28       Pt     1      10.000          9.987                         0.013
     29       Pt     1      10.000          9.987                         0.013
     30       Pt     1      10.000          9.987                         0.013
     31       Pt     1      10.000          9.987                         0.013
     32       Pt     1      10.000          9.987                         0.013
     33       Pt     1      10.000          9.998                         0.002
     34       Pt     1      10.000          9.998                         0.002
     35       Pt     1      10.000          9.998                         0.002
     36       Pt     1      10.000          9.998                         0.002
     37       Pt     1      10.000          9.998                         0.002
     38       Pt     1      10.000          9.998                         0.002
     39       Pt     1      10.000          9.998                         0.002
     40       Pt     1      10.000          9.998                         0.002
     41       Pt     1      10.000          9.998                         0.002
     42       Pt     1      10.000          9.998                         0.002
     43       Pt     1      10.000          9.998                         0.002
     44       Pt     1      10.000          9.998                         0.002
     45       Pt     1      10.000          9.998                         0.002
     46       Pt     1      10.000          9.998                         0.002
     47       Pt     1      10.000          9.998                         0.002
     48       Pt     1      10.000          9.998                         0.002
     49       Pt     1      10.000          9.998                         0.002
     50       Pt     1      10.000          9.998                         0.002
     51       Pt     1      10.000          9.998                         0.002
     52       Pt     1      10.000          9.998                         0.002
     53       Pt     1      10.000          9.998                         0.002
     54       Pt     1      10.000          9.998                         0.002
     55       Pt     1      10.000          9.998                         0.002
     56       Pt     1      10.000          9.998                         0.002
     57       Pt     1      10.000          9.998                         0.002
     58       Pt     1      10.000          9.998                         0.002
     59       Pt     1      10.000          9.998                         0.002
     60       Pt     1      10.000          9.998                         0.002
     61       Pt     1      10.000          9.998                         0.002
     62       Pt     1      10.000          9.998                         0.002
     63       Pt     1      10.000          9.998                         0.002
     64       Pt     1      10.000          9.998                         0.002
     65       Pt     1      10.000          9.987                         0.013
     66       Pt     1      10.000          9.987                         0.013
     67       Pt     1      10.000          9.988                         0.012
     68       Pt     1      10.000          9.987                         0.013
     69       Pt     1      10.000          9.987                         0.013
     70       Pt     1      10.000          9.988                         0.012
     71       Pt     1      10.000          9.988                         0.012
     72       Pt     1      10.000          9.987                         0.013
     73       Pt     1      10.000          9.987                         0.013
     74       Pt     1      10.000          9.988                         0.012
     75       Pt     1      10.000          9.988                         0.012
     76       Pt     1      10.000          9.987                         0.013
     77       Pt     1      10.000          9.987                         0.013
     78       Pt     1      10.000          9.987                         0.013
     79       Pt     1      10.000          9.987                         0.013
     80       Pt     1      10.000          9.987                         0.013
     81       Pt     1      10.000         10.018                        -0.018
     82       Pt     1      10.000         10.022                        -0.022
     83       Pt     1      10.000         10.024                        -0.024
     84       Pt     1      10.000         10.018                        -0.018
     85       Pt     1      10.000         10.022                        -0.022
     86       Pt     1      10.000         10.057                        -0.057
     87       Pt     1      10.000         10.026                        -0.026
     88       Pt     1      10.000         10.017                        -0.017
     89       Pt     1      10.000         10.020                        -0.020
     90       Pt     1      10.000         10.054                        -0.054
     91       Pt     1      10.000         10.076                        -0.076
     92       Pt     1      10.000         10.015                        -0.015
     93       Pt     1      10.000         10.022                        -0.022
     94       Pt     1      10.000         10.057                        -0.057
     95       Pt     1      10.000         10.026                        -0.026
     96       Pt     1      10.000         10.017                        -0.017
     97       O      2       6.000          6.867                        -0.867
     98       H      3       1.000          0.434                         0.566
     99       H      3       1.000          0.434                         0.566

  Total Charge                                                            0.001
 !-----------------------------------------------------------------------------!

 LOCALIZE| The spread relative to a set of orbitals is computed
 LOCALIZE| Orbitals to be localized: All orbitals
 LOCALIZE| If fractional occupation, fully occupied MOs are those 
           within occupation tolerance of       0.00000001
 LOCALIZE| Spread defined by the Berry phase operator 
 LOCALIZE| Optimal unitary transformation generated by Jacobi algorithm

         Restart file not available filename=<cp2k-LOC_HOMO-1_0.wfn>

 LOCALIZATION|    The orbitals to be localized are read from localization restart file.

 LOCALIZATION| Spin    1 The first    438 occupied orbitals are localized,
               with energies from    -0.765554 to    -0.009533 [a.u.].

 LOCALIZATION| Computing localization properties for OCCUPIED ORBITALS. Spin:  1
    Spread Functional     sum_in -w_i ln(|z_in|^2)    sum_in w_i(1-|z_in|^2)
    Initial Spread (Berry) :            130037.5137731351    29846.5112417310
    Localization by iterative distributed Jacobi rotation
                      Iteration            Functional         Tolerance   Time 
                            100        5070.6675608097       0.2992E+01   0.061
                            200        5070.2212583348       0.1286E+01   0.060
                            300        5070.1933311549       0.7581E+00   0.061
[...]
     74      1      Pt         -0.00003229     0.00046588    -0.00982779
     75      1      Pt          0.00000930     0.00005037    -0.00977648
     76      1      Pt         -0.00001999     0.00039939    -0.00985744
     77      1      Pt         -0.00006799     0.00054760    -0.00983788
     78      1      Pt         -0.00003334     0.00064655    -0.00968549
     79      1      Pt          0.00001548     0.00055891    -0.00958110
     80      1      Pt          0.00007937     0.00055931    -0.00987566
     81      1      Pt         -0.00001951     0.00117837     0.01282636
     82      1      Pt          0.00012272     0.00123870     0.01266040
     83      1      Pt         -0.00013641     0.00129538     0.01345468
     84      1      Pt          0.00005606     0.00122045     0.01256650
     85      1      Pt          0.00035581     0.00138032     0.01331574
     86      1      Pt         -0.00034258     0.00054716     0.01214377
     87      1      Pt          0.00024456     0.00044830     0.01202091
     88      1      Pt         -0.00022349     0.00124724     0.01309259
     89      1      Pt          0.00007688     0.00131204     0.01250164
     90      1      Pt         -0.00057547     0.00131445     0.01230533
     91      1      Pt         -0.00017482     0.00128332     0.01906170
     92      1      Pt          0.00070869     0.00129503     0.01194013
     93      1      Pt          0.00031695     0.00119641     0.01313382
     94      1      Pt         -0.00049740     0.00196386     0.01236151
     95      1      Pt          0.00034693     0.00211202     0.01233399
     96      1      Pt         -0.00014323     0.00126033     0.01296894
     97      2      O           0.00389009    -0.00000414    -0.00569474
     98      3      H          -0.00178549     0.00359825    -0.00114254
     99      3      H          -0.00179393    -0.00359447    -0.00114178
 SUM OF ATOMIC FORCES           0.00026822     0.00000125    -0.00239660     0.00241157

 -------------------------------------------------------------------------------
 -                                                                             -
 -                                DBCSR STATISTICS                             -
 -                                                                             -
 -------------------------------------------------------------------------------
 COUNTER                                    TOTAL       BLAS       SMM       ACC
 flops     5 x    24 x     5                 4800       0.0%    100.0%      0.0%
 flops     5 x    24 x    13                 6240       0.0%    100.0%      0.0%
 flops    13 x    24 x     5                 6240       0.0%    100.0%      0.0%
 flops    13 x    24 x    13                 8112       0.0%    100.0%      0.0%
 flops     5 x    22 x     5                26400       0.0%    100.0%      0.0%
 flops     5 x    22 x    13                34320       0.0%    100.0%      0.0%
 flops    13 x    22 x     5                34320       0.0%    100.0%      0.0%
 flops    13 x    22 x    13                44616       0.0%    100.0%      0.0%
 flops     5 x    32 x     5               691200       0.0%    100.0%      0.0%
 flops     5 x    13 x    96               786240       0.0%    100.0%      0.0%
 flops    13 x     5 x    96               786240       0.0%    100.0%      0.0%
 flops     5 x    24 x    20               806400       0.0%    100.0%      0.0%
 flops    20 x    24 x     5               806400       0.0%    100.0%      0.0%
 flops     5 x    32 x    13               898560       0.0%    100.0%      0.0%
 flops    13 x    32 x     5               898560       0.0%    100.0%      0.0%
 flops     5 x     5 x    96               907200       0.0%    100.0%      0.0%
 flops    20 x    24 x    13               948480       0.0%    100.0%      0.0%
 flops    13 x    24 x    20               948480       0.0%    100.0%      0.0%
 flops     5 x    13 x   120               982800       0.0%    100.0%      0.0%
 flops    13 x     5 x   120               982800       0.0%    100.0%      0.0%
 flops     5 x     5 x   120              1134000       0.0%    100.0%      0.0%
 flops    13 x    32 x    13              1168128       0.0%    100.0%      0.0%
 flops    13 x    13 x    96              2044224       0.0%    100.0%      0.0%
 flops    13 x    13 x   120              2555280       0.0%    100.0%      0.0%
 flops     5 x    22 x    20              4435200       0.0%    100.0%      0.0%
 flops    20 x    22 x     5              4435200       0.0%    100.0%      0.0%
 flops    20 x    22 x    13              5216640       0.0%    100.0%      0.0%
 flops    13 x    22 x    20              5216640       0.0%    100.0%      0.0%
 flops     5 x    13 x   128              6289920       0.0%    100.0%      0.0%
 flops    13 x     5 x   128              6289920       0.0%    100.0%      0.0%
 flops     5 x     5 x   128              7257600       0.0%    100.0%      0.0%
 flops    13 x    13 x   128             16353792       0.0%    100.0%      0.0%
 flops    20 x     5 x    96            100396800       0.0%    100.0%      0.0%
 flops     5 x    20 x    96            102816000       0.0%    100.0%      0.0%
 flops    20 x    32 x     5            116121600       0.0%    100.0%      0.0%
 flops     5 x    32 x    20            116121600       0.0%    100.0%      0.0%
 flops    20 x    13 x    96            116363520       0.0%    100.0%      0.0%
 flops    13 x    20 x    96            122653440       0.0%    100.0%      0.0%
 flops    20 x     5 x   120            125496000       0.0%    100.0%      0.0%
 flops     5 x    20 x   120            128520000       0.0%    100.0%      0.0%
 flops    20 x    32 x    13            136581120       0.0%    100.0%      0.0%
 flops    13 x    32 x    20            136581120       0.0%    100.0%      0.0%
 flops    20 x    13 x   120            145454400       0.0%    100.0%      0.0%
 flops    13 x    20 x   120            153316800       0.0%    100.0%      0.0%
 flops    20 x    24 x    20            176947200       0.0%    100.0%      0.0%
 flops    20 x     5 x   128            803174400       0.0%    100.0%      0.0%
 flops     5 x    20 x   128            822528000       0.0%    100.0%      0.0%
 flops    20 x    13 x   128            930908160       0.0%    100.0%      0.0%
 flops    20 x    22 x    20            973209600       0.0%    100.0%      0.0%
 flops    13 x    20 x   128            981227520       0.0%    100.0%      0.0%
 flops    20 x    20 x    96          22527590400       0.0%    100.0%      0.0%
 flops    20 x    32 x    20          25480396800       0.0%    100.0%      0.0%
 flops    20 x    20 x   120          28159488000       0.0%    100.0%      0.0%
 flops    20 x    20 x   128         180220723200       0.0%    100.0%      0.0%
 flops inhomo. stacks                           0       0.0%      0.0%      0.0%
 flops total                       262.649621E+09       0.0%    100.0%      0.0%
 flops max/rank                      8.825482E+09       0.0%    100.0%      0.0%
 matmuls inhomo. stacks                         0       0.0%      0.0%      0.0%
 matmuls total                            3589619       0.0%    100.0%      0.0%
 number of processed stacks                 42339       0.0%    100.0%      0.0%
 average stack size                                     0.0      84.8       0.0
 marketing flops                   273.675207E+09
 -------------------------------------------------------------------------------
 # multiplications                             70
 max memory usage/rank             336.150528E+06
 # max total images/rank                        2
 # max 3D layers                                1
 # MPI messages exchanged                   29120
 MPI messages size (bytes):
  total size                        11.278408E+09
  min size                          61.440000E+03
  max size                         985.352000E+03
  average size                     387.307969E+03
 MPI breakdown and total messages size (bytes):
             size <=      128                   0                        0
       128 < size <=     8192                   0                        0
      8192 < size <=    32768                   0                        0
     32768 < size <=   131072                1152                122548896
    131072 < size <=  4194304               27968              11155861576
   4194304 < size <= 16777216                   0                        0
  16777216 < size                               0                        0
 -------------------------------------------------------------------------------

 *** WARNING in dbcsr_mm.F:295 :: Using a non-square number of MPI ranks ***
 *** might lead to poor performance. Used ranks: 32 Suggested: 36 64     ***

 -------------------------------------------------------------------------------
 -                                                                             -
 -                      DBCSR MESSAGE PASSING PERFORMANCE                      -
 -                                                                             -
 -------------------------------------------------------------------------------
 ROUTINE             CALLS      AVE VOLUME [Bytes]
 MP_Group               70
 MP_Bcast               55                     12.
 MP_Allreduce          587                     12.
 MP_Alltoall          1899                 264598.
 MP_Wait              4480
 MP_ISend             2240                 169477.
 MP_IRecv             2240                 163950.
 MP_Memory            7798
 -------------------------------------------------------------------------------

 MEMORY| Estimated peak process memory [MiB]                                 321

 -------------------------------------------------------------------------------
 ----                             MULTIGRID INFO                            ----
 -------------------------------------------------------------------------------
 count for grid        1:         253247          cutoff [a.u.]          200.00
 count for grid        2:         270083          cutoff [a.u.]           66.67
 count for grid        3:         158054          cutoff [a.u.]           22.22
 count for grid        4:         114145          cutoff [a.u.]            7.41
 total gridlevel count  :         795529

 -------------------------------------------------------------------------------
 -                                                                             -
 -                         MESSAGE PASSING PERFORMANCE                         -
 -                                                                             -
 -------------------------------------------------------------------------------

 ROUTINE             CALLS      AVE VOLUME [Bytes]
 MP_Group                4
 MP_Bcast             2772                 207360.
 MP_Allreduce         3614                   2945.
 MP_Sync                 5
 MP_Alltoall          1381                8959621.
 MP_SendRecv         82584                 169473.
 MP_ISendRecv         7688                  66000.
 MP_Wait             18272
 MP_ISend             9576                 180308.
 MP_IRecv             9576                 180308.
 MP_Recv               150                 497408.
 MP_Write_All            3                1119280.
 -------------------------------------------------------------------------------


 -------------------------------------------------------------------------------
 -                                                                             -
 -                           R E F E R E N C E S                               -
 -                                                                             -
 -------------------------------------------------------------------------------
 
 CP2K version 7.1, the CP2K developers group (2019).
 CP2K is freely available from https://www.cp2k.org/ .

 Schuett, Ole; Messmer, Peter; Hutter, Juerg; VandeVondele, Joost. 
 Electronic Structure Calculations on Graphics Processing Units, John
 Wiley & Sons, Ltd, 173-190 (2016). 
 GPU-Accelerated Sparse Matrix-Matrix Multiplication for
 Linear Scaling Density Functional Theory.
 https://dx.doi.org/10.1002/9781118670712.ch8

 Borstnik, U; VandeVondele, J; Weber, V; Hutter, J. 
 PARALLEL COMPUTING, 40 (5-6), 47-58 (2014). 
 Sparse matrix multiplication: The distributed block-compressed sparse
 row library.
 https://dx.doi.org/10.1016/j.parco.2014.03.012

 Hutter, J; Iannuzzi, M; Schiffmann, F; VandeVondele, J. 
 WIREs Comput Mol Sci., 4 (1), 15-25 (2014). 
 CP2K: atomistic simulations of condensed matter systems.
 https://dx.doi.org/10.1002/wcms.1159

 Marek, A; Blum, V; Johanni, R; Havu, V; Lang, B; Auckenthaler, T;
 Heinecke, A; Bungartz, H; Lederer, H. 
 Journal of Physics: Condensed Matter, 26 (21), (2014). 
 The ELPA library: scalable parallel eigenvalue solutions for
 electronic structure
 theory and computational science.
 https://dx.doi.org/10.1088/0953-8984/26/21/213201

 Grimme, S; Ehrlich, S; Goerigk, L. 
 JOURNAL OF COMPUTATIONAL CHEMISTRY, 32, 1456 (2011). 
 Effect of the damping function in dispersion corrected density functional theory.
 https://dx.doi.org/10.1002/jcc.21759

 Grimme, S; Antony, J; Ehrlich, S; Krieg, H. 
 JOURNAL OF CHEMICAL PHYSICS, 132 (15), 154104 (2010). 
 A consistent and accurate ab initio parametrization of density
 functional dispersion correction (DFT-D) for the 94 elements H-Pu.
 https://dx.doi.org/10.1063/1.3382344

 VandeVondele, J; Hutter, J. 
 JOURNAL OF CHEMICAL PHYSICS, 127 (11), 114105 (2007). 
 Gaussian basis sets for accurate calculations on molecular systems in
 gas and condensed phases.
 https://dx.doi.org/10.1063/1.2770708

 Krack, M. 
 THEORETICAL CHEMISTRY ACCOUNTS, 114 (1-3), 145-152 (2005). 
 Pseudopotentials for H to Kr optimized for gradient-corrected
 exchange-correlation functionals.
 https://dx.doi.org/10.1007/s00214-005-0655-y

 VandeVondele, J; Krack, M; Mohamed, F; Parrinello, M; Chassaing, T;
 Hutter, J. COMPUTER PHYSICS COMMUNICATIONS, 167 (2), 103-128 (2005). 
 QUICKSTEP: Fast and accurate density functional calculations using a
 mixed Gaussian and plane waves approach.
 https://dx.doi.org/10.1016/j.cpc.2004.12.014

 Frigo, M; Johnson, SG. 
 PROCEEDINGS OF THE IEEE, 93 (2), 216-231 (2005). 
 The design and implementation of FFTW3.
 https://dx.doi.org/10.1109/JPROC.2004.840301

 Hartwigsen, C; Goedecker, S; Hutter, J. 
 PHYSICAL REVIEW B, 58 (7), 3641-3662 (1998). 
 Relativistic separable dual-space Gaussian pseudopotentials from H to Rn.
 https://dx.doi.org/10.1103/PhysRevB.58.3641

 Lippert, G; Hutter, J; Parrinello, M. 
 MOLECULAR PHYSICS, 92 (3), 477-487 (1997). 
 A hybrid Gaussian and plane wave density functional scheme.
 https://dx.doi.org/10.1080/002689797170220

 Perdew, JP; Burke, K; Ernzerhof, M. 
 PHYSICAL REVIEW LETTERS, 77 (18), 3865-3868 (1996). 
 Generalized gradient approximation made simple.
 https://dx.doi.org/10.1103/PhysRevLett.77.3865

 Goedecker, S; Teter, M; Hutter, J. 
 PHYSICAL REVIEW B, 54 (3), 1703-1710 (1996). 
 Separable dual-space Gaussian pseudopotentials.
 https://dx.doi.org/10.1103/PhysRevB.54.1703


 -------------------------------------------------------------------------------
 -                                                                             -
 -                                T I M I N G                                  -
 -                                                                             -
 -------------------------------------------------------------------------------
 SUBROUTINE                       CALLS  ASD         SELF TIME        TOTAL TIME
                                MAXIMUM       AVERAGE  MAXIMUM  AVERAGE  MAXIMUM
 CP2K                                 1  1.0    0.011    0.017  173.774  173.781
 qs_forces                            1  2.0    0.000    0.000  173.401  173.406
 qs_energies                          1  3.0    0.000    0.000  170.625  170.630
 scf_env_do_scf                       1  4.0    0.000    0.000   87.401   87.412
 scf_env_do_scf_inner_loop           61  5.0    0.003    0.010   87.398   87.409
 scf_post_calculation_gpw             1  4.0    0.000    0.000   81.778   81.781
 get_localization_info                1  5.0    0.000    0.000   80.954   80.963
 qs_loc_driver                        1  6.0    0.000    0.000   80.954   80.963
 optimize_loc_berry                   1  7.0    0.016    0.018   80.947   80.949
 jacobi_rot_para                      1  8.0   64.443   69.008   80.858   80.860
 rebuild_ks_matrix                   62  7.0    0.000    0.000   47.455   47.467
 qs_ks_build_kohn_sham_matrix        62  8.0    0.007    0.008   47.454   47.467
 qs_ks_update_qs_env                 61  6.0    0.000    0.002   46.570   46.581
 pw_transfer                       1240 10.4    0.065    0.073   24.889   25.080
 fft_wrap_pw1pw2                   1116 11.5    0.010    0.011   24.558   24.746
 fft_wrap_pw1pw2_200                744 12.5    2.005    2.125   23.672   23.879
 sum_up_and_integrate                62  9.0    0.061    0.069   23.732   23.747
 qs_rho_update_rho                   62  6.0    0.000    0.000   23.649   23.691
 calculate_rho_elec                  62  7.0   10.167   16.859   23.649   23.691
 integrate_v_rspace                  62 10.0   10.779   18.387   23.671   23.688
 qs_vxc_create                       62  9.0    0.002    0.002   20.596   20.768
 xc_vxc_pw_create                    62 10.0    0.245    0.294   20.595   20.767
 fft3d_ps                          1116 13.5   12.041   13.164   18.126   18.415
 density_rs2pw                       62  8.0    0.003    0.003   12.647   15.661
 mp_allgather_d23                 41230  9.0   10.897   15.356   10.897   15.356
 rs_pw_transfer                     500 10.5    0.005    0.006   10.747   13.652
 xc_rho_set_and_dset_create          62 11.0    0.086    0.098   11.023   11.710
 mp_alltoall_d11v                   939 10.4    7.986   11.171    7.986   11.171
 rs_distribute_matrix               125  9.5    0.105    0.268    8.035   11.106
 rs_pw_transfer_RS2PW_200            64 10.0    0.783    1.087    7.692   10.598
 qs_scf_new_mos                      61  6.0    0.001    0.001   10.453   10.475
 mp_waitany                        9576 12.4    7.340   10.419    7.340   10.419
 eigensolver                         61  7.0    0.003    0.004    9.228    9.245
 cp_fm_diag_elpa                     62  8.0    0.000    0.001    7.549    7.555
 cp_fm_diag_elpa_base                62  9.0    7.363    7.368    7.548    7.554
 gspace_mixing                       60  6.0    0.070    0.082    7.002    7.002
 mp_sendrecv_zm3                  41230  9.0    4.218    5.148    4.218    5.148
 potential_pw2rs                     62 11.0    0.007    0.008    5.047    5.056
 broyden_mixing                      60  7.0    4.913    4.944    5.006    5.014
 xc_functional_eval                  62 12.0    0.000    0.001    3.995    4.804
 pbe_lda_eval                        62 13.0    3.995    4.804    3.995    4.804
 mp_alltoall_z22v                  1116 15.5    3.455    4.287    3.455    4.287
 -------------------------------------------------------------------------------

 The number of warnings for this run is : 1
 
 -------------------------------------------------------------------------------
  **** **** ******  **  PROGRAM ENDED AT                 2024-11-01 22:12:45.629
 ***** ** ***  *** **   PROGRAM RAN ON                                   c53-012
 **    ****   ******    PROGRAM RAN BY                                     jxzhu
 ***** **    ** ** **   PROGRAM PROCESS ID                                257073
  **** **  *******  **  PROGRAM STOPPED IN /data/jxzhu/nnp/dp_workdir/d1f764b96e
                                           9a01b62c3e35b0c4f5198f3ba3ed59/calc.0
                                           00/task.000.000007
