 DBCSR| CPU Multiplication driver                                           XSMM
 DBCSR| Multrec recursion limit                                              512
 DBCSR| Multiplication stack size                                           1000
 DBCSR| Maximum elements for images                                    UNLIMITED
 DBCSR| Multiplicative factor virtual images                                   1
 DBCSR| Use multiplication densification                                       T
 DBCSR| Multiplication size stacks                                             3
 DBCSR| Number of 3D layers                                               SINGLE
 DBCSR| Use MPI memory allocation                                              T
 DBCSR| Use RMA algorithm                                                      F
 DBCSR| Use Communication thread                                               T
 DBCSR| Communication thread load                                             87


  **** **** ******  **  PROGRAM STARTED AT               2024-11-01 22:59:53.081
 ***** ** ***  *** **   PROGRAM STARTED ON                               c53-012
 **    ****   ******    PROGRAM STARTED BY                                 jxzhu
 ***** **    ** ** **   PROGRAM PROCESS ID                                262071
  **** **  *******  **  PROGRAM STARTED IN /data/jxzhu/nnp/dp_workdir/d1f764b96e
                                           9a01b62c3e35b0c4f5198f3ba3ed59/calc.0
                                           00/task.002.000004

 CP2K| version string:                                          CP2K version 7.1
 CP2K| source code revision number:                                  git:e635599
 CP2K| cp2kflags: libint fftw3 libxc elpa parallel mpi3 scalapack xsmm spglib   
 CP2K| is freely available from                            https://www.cp2k.org/
 CP2K| Program compiled at                           Mon Mar 8 20:53:19 CST 2021
 CP2K| Program compiled on                                                 mgt01
 CP2K| Program compiled for                                                local
 CP2K| Data directory path                                    /data/jxzhu/basis/
 CP2K| Input file name                                                 input.inp

 GLOBAL| Force Environment number                                              1
 GLOBAL| Basis set file name                                        BASIS_MOLOPT
 GLOBAL| Potential file name                                      GTH_POTENTIALS
 GLOBAL| MM Potential file name                                     MM_POTENTIAL
 GLOBAL| Coordinate file name                                          coord.xyz
 GLOBAL| Method name                                                        CP2K
 GLOBAL| Project name                                                       cp2k
 GLOBAL| Preferred FFT library                                             FFTW3
 GLOBAL| Preferred diagonalization lib.                                     ELPA
 GLOBAL| Run type                                                   ENERGY_FORCE
 GLOBAL| All-to-all communication in single precision                          F
 GLOBAL| FFTs using library dependent lengths                                  F
 GLOBAL| Global print level                                               MEDIUM
 GLOBAL| MPI I/O enabled                                                       T
 GLOBAL| Total number of message passing processes                            32
 GLOBAL| Number of threads for this process                                    1
 GLOBAL| This output is from process                                           0
 GLOBAL| CPU model name                Intel(R) Xeon(R) Gold 6226R CPU @ 2.90GHz
 GLOBAL| CPUID                                                              1003
 GLOBAL| Compiled for CPUID                                                 1002
 HINT in environment.F:814 The compiler target flags (x86_avx2) used to build
   this binary cannot exploit all extensions of this CPU model (x86_avx512).
   Consider compiler target flags as part of FCFLAGS and CFLAGS (ARCH file).

 MEMORY| system memory details [Kb]
 MEMORY|                        rank 0           min           max       average
 MEMORY| MemTotal            196472820     196472820     196472820     196472820
 MEMORY| MemFree             182940376     182940376     182940376     182940376
 MEMORY| Buffers                  2196          2196          2196          2196
 MEMORY| Cached                 797220        797220        797220        797220
 MEMORY| Slab                   431600        431600        431600        431600
 MEMORY| SReclaimable           136584        136584        136584        136584
 MEMORY| MemLikelyFree       183876376     183876376     183876376     183876376


 *** Fundamental physical constants (SI units) ***

 *** Literature: B. J. Mohr and B. N. Taylor,
 ***             CODATA recommended values of the fundamental physical
 ***             constants: 2006, Web Version 5.1
 ***             http://physics.nist.gov/constants

 Speed of light in vacuum [m/s]                             2.99792458000000E+08
 Magnetic constant or permeability of vacuum [N/A**2]       1.25663706143592E-06
 Electric constant or permittivity of vacuum [F/m]          8.85418781762039E-12
 Planck constant (h) [J*s]                                  6.62606896000000E-34
 Planck constant (h-bar) [J*s]                              1.05457162825177E-34
 Elementary charge [C]                                      1.60217648700000E-19
 Electron mass [kg]                                         9.10938215000000E-31
 Electron g factor [ ]                                     -2.00231930436220E+00
 Proton mass [kg]                                           1.67262163700000E-27
 Fine-structure constant                                    7.29735253760000E-03
 Rydberg constant [1/m]                                     1.09737315685270E+07
 Avogadro constant [1/mol]                                  6.02214179000000E+23
 Boltzmann constant [J/K]                                   1.38065040000000E-23
 Atomic mass unit [kg]                                      1.66053878200000E-27
 Bohr radius [m]                                            5.29177208590000E-11

 *** Conversion factors ***

 [u] -> [a.u.]                                              1.82288848426455E+03
 [Angstrom] -> [Bohr] = [a.u.]                              1.88972613288564E+00
 [a.u.] = [Bohr] -> [Angstrom]                              5.29177208590000E-01
 [a.u.] -> [s]                                              2.41888432650478E-17
 [a.u.] -> [fs]                                             2.41888432650478E-02
 [a.u.] -> [J]                                              4.35974393937059E-18
 [a.u.] -> [N]                                              8.23872205491840E-08
 [a.u.] -> [K]                                              3.15774647902944E+05
 [a.u.] -> [kJ/mol]                                         2.62549961709828E+03
 [a.u.] -> [kcal/mol]                                       6.27509468713739E+02
 [a.u.] -> [Pa]                                             2.94210107994716E+13
 [a.u.] -> [bar]                                            2.94210107994716E+08
 [a.u.] -> [atm]                                            2.90362800883016E+08
 [a.u.] -> [eV]                                             2.72113838565563E+01
 [a.u.] -> [Hz]                                             6.57968392072181E+15
 [a.u.] -> [1/cm] (wave numbers)                            2.19474631370540E+05
 [a.u./Bohr**2] -> [1/cm]                                   5.14048714338585E+03
 

 CELL_TOP| Volume [angstrom^3]:                                         4542.849
 CELL_TOP| Vector a [angstrom    11.246     0.000     0.000    |a| =      11.246
 CELL_TOP| Vector b [angstrom     0.000     9.739     0.000    |b| =       9.739
 CELL_TOP| Vector c [angstrom     0.000     0.000    41.478    |c| =      41.478
 CELL_TOP| Angle (b,c), alpha [degree]:                                   90.000
 CELL_TOP| Angle (a,c), beta  [degree]:                                   90.000
 CELL_TOP| Angle (a,b), gamma [degree]:                                   90.000
 CELL_TOP| Numerically orthorhombic:                                         YES

 GENERATE|  Preliminary Number of Bonds generated:                             0
 GENERATE|  Achieved consistency in connectivity generation.

 CELL| Volume [angstrom^3]:                                             4542.849
 CELL| Vector a [angstrom]:      11.246     0.000     0.000    |a| =      11.246
 CELL| Vector b [angstrom]:       0.000     9.739     0.000    |b| =       9.739
 CELL| Vector c [angstrom]:       0.000     0.000    41.478    |c| =      41.478
 CELL| Angle (b,c), alpha [degree]:                                       90.000
 CELL| Angle (a,c), beta  [degree]:                                       90.000
 CELL| Angle (a,b), gamma [degree]:                                       90.000
 CELL| Numerically orthorhombic:                                             YES

 CELL_REF| Volume [angstrom^3]:                                         4542.849
 CELL_REF| Vector a [angstrom    11.246     0.000     0.000    |a| =      11.246
 CELL_REF| Vector b [angstrom     0.000     9.739     0.000    |b| =       9.739
 CELL_REF| Vector c [angstrom     0.000     0.000    41.478    |c| =      41.478
 CELL_REF| Angle (b,c), alpha [degree]:                                   90.000
 CELL_REF| Angle (a,c), beta  [degree]:                                   90.000
 CELL_REF| Angle (a,b), gamma [degree]:                                   90.000
 CELL_REF| Numerically orthorhombic:                                         YES

 *******************************************************************************
 *******************************************************************************
 **                                                                           **
 **     #####                         ##              ##                      **
 **    ##   ##            ##          ##              ##                      **
 **   ##     ##                       ##            ######                    **
 **   ##     ##  ##   ##  ##   #####  ##  ##   ####   ##    #####    #####    **
 **   ##     ##  ##   ##  ##  ##      ## ##   ##      ##   ##   ##  ##   ##   **
 **   ##  ## ##  ##   ##  ##  ##      ####     ###    ##   ######   ######    **
 **    ##  ###   ##   ##  ##  ##      ## ##      ##   ##   ##       ##        **
 **     #######   #####   ##   #####  ##  ##  ####    ##    #####   ##        **
 **           ##                                                    ##        **
 **                                                                           **
 **                                                ... make the atoms dance   **
 **                                                                           **
 **            Copyright (C) by CP2K developers group (2000 - 2019)           **
 **                                                                           **
 *******************************************************************************

 DFT| Spin restricted Kohn-Sham (RKS) calculation                            RKS
 DFT| Multiplicity                                                             1
 DFT| Number of spin states                                                    1
 DFT| Charge                                                                   0
 DFT| Self-interaction correction (SIC)                                       NO
 DFT| Cutoffs: density                                              1.000000E-10
 DFT|          gradient                                             1.000000E-10
 DFT|          tau                                                  1.000000E-10
 DFT|          cutoff_smoothing_range                               0.000000E+00
 DFT| XC density smoothing                                                  NONE
 DFT| XC derivatives                                                          PW
 FUNCTIONAL| ROUTINE=NEW
 FUNCTIONAL| PBE:
 FUNCTIONAL| J.P.Perdew, K.Burke, M.Ernzerhof, Phys. Rev. Letter, vol. 77, n 18,
 FUNCTIONAL|  pp. 3865-3868, (1996){spin unpolarized}                           
 vdW POTENTIAL|                                                   Pair Potential
 vdW POTENTIAL|          DFT-D3 (Version 3.1)
 vdW POTENTIAL|          Potential Form: S. Grimme et al, JCP 132: 154104 (2010)
 vdW POTENTIAL|          Zero Damping
 vdW POTENTIAL|          Cutoff Radius [Bohr]:                             20.00
 vdW POTENTIAL|          s6 Scaling Factor:                               1.0000
 vdW POTENTIAL|          sr6 Scaling Factor:                              1.2170
 vdW POTENTIAL|          s8 Scaling Factor:                               0.7220
 vdW POTENTIAL|          Cutoff for CN calculation:                   0.1000E-05

 QS| Method:                                                                 GPW
 QS| Density plane wave grid type                        NON-SPHERICAL FULLSPACE
 QS| Number of grid levels:                                                    4
 QS| Density cutoff [a.u.]:                                                200.0
 QS| Multi grid cutoff [a.u.]: 1) grid level                               200.0
 QS|                           2) grid level                                66.7
 QS|                           3) grid level                                22.2
 QS|                           4) grid level                                 7.4
 QS| Grid level progression factor:                                          3.0
 QS| Relative density cutoff [a.u.]:                                        20.0
 QS| Consistent realspace mapping and integration 
 QS| Interaction thresholds: eps_pgf_orb:                                3.2E-07
 QS|                         eps_filter_matrix:                          0.0E+00
 QS|                         eps_core_charge:                            1.0E-15
 QS|                         eps_rho_gspace:                             1.0E-13
 QS|                         eps_rho_rspace:                             1.0E-13
 QS|                         eps_gvg_rspace:                             3.2E-07
 QS|                         eps_ppl:                                    1.0E-02
 QS|                         eps_ppnl:                                   3.2E-09


 ATOMIC KIND INFORMATION

  1. Atomic kind: Pt                                    Number of atoms:      96

     Orbital Basis Set                      DZVP-A5-Q10-323-MOL-T1-DERIVED_SET-1

       Number of orbital shell sets:                                           1
       Number of orbital shells:                                               6
       Number of primitive Cartesian functions:                                5
       Number of Cartesian basis functions:                                   23
       Number of spherical basis functions:                                   20
       Norm type:                                                              2

       Normalised Cartesian orbitals:

                        Set   Shell   Orbital            Exponent    Coefficient

                          1       1    2s                2.521825       0.177473
                                                         1.453920      -0.063399
                                                         0.614053      -0.407089
                                                         0.232656       0.262254
                                                         0.074788       0.047371

                          1       2    3s                2.521825      -0.049056
                                                         1.453920       0.044904
                                                         0.614053      -0.009756
                                                         0.232656      -0.144709
                                                         0.074788       0.144085

                          1       3    3px               2.521825      -0.317572
                                                         1.453920       0.534826
                                                         0.614053      -0.489458
                                                         0.232656       0.245631
                                                         0.074788       0.018221
                          1       3    3py               2.521825      -0.317572
                                                         1.453920       0.534826
                                                         0.614053      -0.489458
                                                         0.232656       0.245631
                                                         0.074788       0.018221
                          1       3    3pz               2.521825      -0.317572
                                                         1.453920       0.534826
                                                         0.614053      -0.489458
                                                         0.232656       0.245631
                                                         0.074788       0.018221

                          1       4    4dx2              2.521825       3.008522
                                                         1.453920      -1.224251
                                                         0.614053       0.225691
                                                         0.232656       0.125144
                                                         0.074788      -0.015348
                          1       4    4dxy              2.521825       5.210912
                                                         1.453920      -2.120465
                                                         0.614053       0.390909
                                                         0.232656       0.216756
                                                         0.074788      -0.026584
                          1       4    4dxz              2.521825       5.210912
                                                         1.453920      -2.120465
                                                         0.614053       0.390909
                                                         0.232656       0.216756
                                                         0.074788      -0.026584
                          1       4    4dy2              2.521825       3.008522
                                                         1.453920      -1.224251
                                                         0.614053       0.225691
                                                         0.232656       0.125144
                                                         0.074788      -0.015348
                          1       4    4dyz              2.521825       5.210912
                                                         1.453920      -2.120465
                                                         0.614053       0.390909
                                                         0.232656       0.216756
                                                         0.074788      -0.026584
                          1       4    4dz2              2.521825       3.008522
                                                         1.453920      -1.224251
                                                         0.614053       0.225691
                                                         0.232656       0.125144
                                                         0.074788      -0.015348

                          1       5    5dx2              2.521825       0.698026
                                                         1.453920      -1.511486
                                                         0.614053      -0.335394
                                                         0.232656      -0.025564
                                                         0.074788      -0.002699
                          1       5    5dxy              2.521825       1.209017
                                                         1.453920      -2.617970
                                                         0.614053      -0.580920
                                                         0.232656      -0.044277
                                                         0.074788      -0.004674
                          1       5    5dxz              2.521825       1.209017
                                                         1.453920      -2.617970
                                                         0.614053      -0.580920
                                                         0.232656      -0.044277
                                                         0.074788      -0.004674
                          1       5    5dy2              2.521825       0.698026
                                                         1.453920      -1.511486
                                                         0.614053      -0.335394
                                                         0.232656      -0.025564
                                                         0.074788      -0.002699
                          1       5    5dyz              2.521825       1.209017
                                                         1.453920      -2.617970
                                                         0.614053      -0.580920
                                                         0.232656      -0.044277
                                                         0.074788      -0.004674
                          1       5    5dz2              2.521825       0.698026
                                                         1.453920      -1.511486
                                                         0.614053      -0.335394
                                                         0.232656      -0.025564
                                                         0.074788      -0.002699

                          1       6    6dx2              2.521825       0.831079
                                                         1.453920      -0.709226
                                                         0.614053      -0.137351
                                                         0.232656       0.068642
                                                         0.074788       0.011745
                          1       6    6dxy              2.521825       1.439472
                                                         1.453920      -1.228415
                                                         0.614053      -0.237899
                                                         0.232656       0.118891
                                                         0.074788       0.020343
                          1       6    6dxz              2.521825       1.439472
                                                         1.453920      -1.228415
                                                         0.614053      -0.237899
                                                         0.232656       0.118891
                                                         0.074788       0.020343
                          1       6    6dy2              2.521825       0.831079
                                                         1.453920      -0.709226
                                                         0.614053      -0.137351
                                                         0.232656       0.068642
                                                         0.074788       0.011745
                          1       6    6dyz              2.521825       1.439472
                                                         1.453920      -1.228415
                                                         0.614053      -0.237899
                                                         0.232656       0.118891
                                                         0.074788       0.020343
                          1       6    6dz2              2.521825       0.831079
                                                         1.453920      -0.709226
                                                         0.614053      -0.137351
                                                         0.232656       0.068642
                                                         0.074788       0.011745

     GTH Potential information for                                   GTH-PBE-q10

       Description:                       Goedecker-Teter-Hutter pseudopotential
                                           Goedecker et al., PRB 54, 1703 (1996)
                                          Hartwigsen et al., PRB 58, 3641 (1998)
                                                      Krack, TCA 114, 145 (2005)

       Gaussian exponent of the core charge distribution:               1.317676
       Electronic configuration (s p d ...):                           1   0   9

       Parameters of the local part of the GTH pseudopotential:

                          rloc        C1          C2          C3          C4
                        0.616000   11.313635

       Parameters of the non-local part of the GTH pseudopotential:

                   l      r(l)      h(i,j,l)

                   0    0.550904    4.733491   -1.784594
                                   -1.784594    2.303901
                   1    0.674138    2.534798   -1.778066
                                   -1.778066    2.103836
                   2    0.457392   -7.264011    2.558665
                                    2.558665   -2.901253

  2. Atomic kind: O                                     Number of atoms:       1

     Orbital Basis Set                                        DZVP-MOLOPT-SR-GTH

       Number of orbital shell sets:                                           1
       Number of orbital shells:                                               5
       Number of primitive Cartesian functions:                                5
       Number of Cartesian basis functions:                                   14
       Number of spherical basis functions:                                   13
       Norm type:                                                              2

       Normalised Cartesian orbitals:

                        Set   Shell   Orbital            Exponent    Coefficient

                          1       1    2s               10.389228       0.396646
                                                         3.849621       0.208811
                                                         1.388401      -0.301641
                                                         0.496955      -0.274061
                                                         0.162492      -0.033677

                          1       2    3s               10.389228       0.303673
                                                         3.849621       0.240943
                                                         1.388401      -0.313066
                                                         0.496955      -0.043055
                                                         0.162492       0.213991

                          1       3    3px              10.389228      -1.530415
                                                         3.849621      -1.371928
                                                         1.388401      -0.761951
                                                         0.496955      -0.253695
                                                         0.162492      -0.035541
                          1       3    3py              10.389228      -1.530415
                                                         3.849621      -1.371928
                                                         1.388401      -0.761951
                                                         0.496955      -0.253695
                                                         0.162492      -0.035541
                          1       3    3pz              10.389228      -1.530415
                                                         3.849621      -1.371928
                                                         1.388401      -0.761951
                                                         0.496955      -0.253695
                                                         0.162492      -0.035541

                          1       4    4px              10.389228      -0.565392
                                                         3.849621      -0.038231
                                                         1.388401      -0.382373
                                                         0.496955       0.179070
                                                         0.162492       0.122714
                          1       4    4py              10.389228      -0.565392
                                                         3.849621      -0.038231
                                                         1.388401      -0.382373
                                                         0.496955       0.179070
                                                         0.162492       0.122714
                          1       4    4pz              10.389228      -0.565392
                                                         3.849621      -0.038231
                                                         1.388401      -0.382373
                                                         0.496955       0.179070
                                                         0.162492       0.122714

                          1       5    4dx2             10.389228       1.867377
                                                         3.849621       0.670994
                                                         1.388401       1.353441
                                                         0.496955       0.273538
                                                         0.162492       0.006620
                          1       5    4dxy             10.389228       3.234392
                                                         3.849621       1.162195
                                                         1.388401       2.344229
                                                         0.496955       0.473781
                                                         0.162492       0.011466
                          1       5    4dxz             10.389228       3.234392
                                                         3.849621       1.162195
                                                         1.388401       2.344229
                                                         0.496955       0.473781
                                                         0.162492       0.011466
                          1       5    4dy2             10.389228       1.867377
                                                         3.849621       0.670994
                                                         1.388401       1.353441
                                                         0.496955       0.273538
                                                         0.162492       0.006620
                          1       5    4dyz             10.389228       3.234392
                                                         3.849621       1.162195
                                                         1.388401       2.344229
                                                         0.496955       0.473781
                                                         0.162492       0.011466
                          1       5    4dz2             10.389228       1.867377
                                                         3.849621       0.670994
                                                         1.388401       1.353441
                                                         0.496955       0.273538
                                                         0.162492       0.006620

     GTH Potential information for                                    GTH-PBE-q6

       Description:                       Goedecker-Teter-Hutter pseudopotential
                                           Goedecker et al., PRB 54, 1703 (1996)
                                          Hartwigsen et al., PRB 58, 3641 (1998)
                                                      Krack, TCA 114, 145 (2005)

       Gaussian exponent of the core charge distribution:               8.360253
       Electronic configuration (s p d ...):                               2   4

       Parameters of the local part of the GTH pseudopotential:

                          rloc        C1          C2          C3          C4
                        0.244554  -16.667215    2.487311

       Parameters of the non-local part of the GTH pseudopotential:

                   l      r(l)      h(i,j,l)

                   0    0.220956   18.337458
                   1    0.211332

  3. Atomic kind: H                                     Number of atoms:       2

     Orbital Basis Set                                        DZVP-MOLOPT-SR-GTH

       Number of orbital shell sets:                                           1
       Number of orbital shells:                                               3
       Number of primitive Cartesian functions:                                5
       Number of Cartesian basis functions:                                    5
       Number of spherical basis functions:                                    5
       Norm type:                                                              2

       Normalised Cartesian orbitals:

                        Set   Shell   Orbital            Exponent    Coefficient

                          1       1    2s               10.068468      -0.133023
                                                         2.680223      -0.177618
                                                         0.791502      -0.258419
                                                         0.239116      -0.107525
                                                         0.082193      -0.014019

                          1       2    3s               10.068468       0.344673
                                                         2.680223       1.819821
                                                         0.791502      -0.999069
                                                         0.239116       0.017430
                                                         0.082193       0.082660

                          1       3    3px              10.068468       0.155326
                                                         2.680223       0.367157
                                                         0.791502       0.311480
                                                         0.239116       0.080105
                                                         0.082193       0.033440
                          1       3    3py              10.068468       0.155326
                                                         2.680223       0.367157
                                                         0.791502       0.311480
                                                         0.239116       0.080105
                                                         0.082193       0.033440
                          1       3    3pz              10.068468       0.155326
                                                         2.680223       0.367157
                                                         0.791502       0.311480
                                                         0.239116       0.080105
                                                         0.082193       0.033440

     GTH Potential information for                                    GTH-PBE-q1

       Description:                       Goedecker-Teter-Hutter pseudopotential
                                           Goedecker et al., PRB 54, 1703 (1996)
                                          Hartwigsen et al., PRB 58, 3641 (1998)
                                                      Krack, TCA 114, 145 (2005)

       Gaussian exponent of the core charge distribution:              12.500000
       Electronic configuration (s p d ...):                                   1

       Parameters of the local part of the GTH pseudopotential:

                          rloc        C1          C2          C3          C4
                        0.200000   -4.178900    0.724463


 MOLECULE KIND INFORMATION


 All atoms are their own molecule, skipping detailed information


 TOTAL NUMBERS AND MAXIMUM NUMBERS

  Total number of            - Atomic kinds:                                   3
                             - Atoms:                                         99
                             - Shell sets:                                    99
                             - Shells:                                       587
                             - Primitive Cartesian functions:                495
                             - Cartesian basis functions:                   2232
                             - Spherical basis functions:                   1943

  Maximum angular momentum of- Orbital basis functions:                        2
                             - Local part of the GTH pseudopotential:          2
                             - Non-local part of the GTH pseudopotential:      4


 MODULE QUICKSTEP:  ATOMIC COORDINATES IN angstrom

  Atom  Kind  Element       X           Y           Z          Z(eff)       Mass

       1     1 Pt  78    1.405728    0.811598   15.000000     10.00     195.0840
       2     1 Pt  78    4.217185    0.811598   15.000000     10.00     195.0840
       3     1 Pt  78    7.028641    0.811598   15.000000     10.00     195.0840
       4     1 Pt  78    9.840098    0.811598   15.000000     10.00     195.0840
       5     1 Pt  78    0.000000    3.246390   15.000000     10.00     195.0840
       6     1 Pt  78    2.811457    3.246390   15.000000     10.00     195.0840
       7     1 Pt  78    5.622913    3.246390   15.000000     10.00     195.0840
       8     1 Pt  78    8.434370    3.246390   15.000000     10.00     195.0840
       9     1 Pt  78    1.405728    5.681183   15.000000     10.00     195.0840
      10     1 Pt  78    4.217185    5.681183   15.000000     10.00     195.0840
      11     1 Pt  78    7.028641    5.681183   15.000000     10.00     195.0840
      12     1 Pt  78    9.840098    5.681183   15.000000     10.00     195.0840
      13     1 Pt  78    0.000000    8.115976   15.000000     10.00     195.0840
      14     1 Pt  78    2.811457    8.115976   15.000000     10.00     195.0840
      15     1 Pt  78    5.622913    8.115976   15.000000     10.00     195.0840
      16     1 Pt  78    8.434370    8.115976   15.000000     10.00     195.0840
      17     1 Pt  78    0.000000    1.623195   17.295545     10.00     195.0840
      18     1 Pt  78    2.811457    1.623195   17.295545     10.00     195.0840
      19     1 Pt  78    5.622913    1.623195   17.295545     10.00     195.0840
      20     1 Pt  78    8.434370    1.623195   17.295545     10.00     195.0840
      21     1 Pt  78    1.405728    4.057988   17.295545     10.00     195.0840
      22     1 Pt  78    4.217185    4.057988   17.295545     10.00     195.0840
      23     1 Pt  78    7.028641    4.057988   17.295545     10.00     195.0840
      24     1 Pt  78    9.840098    4.057988   17.295545     10.00     195.0840
      25     1 Pt  78    0.000000    6.492781   17.295545     10.00     195.0840
      26     1 Pt  78    2.811457    6.492781   17.295545     10.00     195.0840
      27     1 Pt  78    5.622913    6.492781   17.295545     10.00     195.0840
      28     1 Pt  78    8.434370    6.492781   17.295545     10.00     195.0840
      29     1 Pt  78    1.405728    8.927574   17.295545     10.00     195.0840
      30     1 Pt  78    4.217185    8.927574   17.295545     10.00     195.0840
      31     1 Pt  78    7.028641    8.927574   17.295545     10.00     195.0840
      32     1 Pt  78    9.840098    8.927574   17.295545     10.00     195.0840
      33     1 Pt  78    0.000000    0.000000   19.591089     10.00     195.0840
      34     1 Pt  78    2.811457    0.000000   19.591089     10.00     195.0840
      35     1 Pt  78    5.622913    0.000000   19.591089     10.00     195.0840
      36     1 Pt  78    8.434370    0.000000   19.591089     10.00     195.0840
      37     1 Pt  78    1.405728    2.434793   19.591089     10.00     195.0840
      38     1 Pt  78    4.217185    2.434793   19.591089     10.00     195.0840
      39     1 Pt  78    7.028641    2.434793   19.591089     10.00     195.0840
      40     1 Pt  78    9.840098    2.434793   19.591089     10.00     195.0840
      41     1 Pt  78    0.000000    4.869586   19.591089     10.00     195.0840
      42     1 Pt  78    2.811457    4.869586   19.591089     10.00     195.0840
      43     1 Pt  78    5.622913    4.869586   19.591089     10.00     195.0840
      44     1 Pt  78    8.434370    4.869586   19.591089     10.00     195.0840
      45     1 Pt  78    1.405728    7.304378   19.591089     10.00     195.0840
      46     1 Pt  78    4.217185    7.304378   19.591089     10.00     195.0840
      47     1 Pt  78    7.028641    7.304378   19.591089     10.00     195.0840
      48     1 Pt  78    9.840098    7.304378   19.591089     10.00     195.0840
      49     1 Pt  78    1.405728    0.811598   21.886634     10.00     195.0840
      50     1 Pt  78    4.217185    0.811598   21.886634     10.00     195.0840
      51     1 Pt  78    7.028641    0.811598   21.886634     10.00     195.0840
      52     1 Pt  78    9.840098    0.811598   21.886634     10.00     195.0840
      53     1 Pt  78    0.000000    3.246390   21.886634     10.00     195.0840
      54     1 Pt  78    2.811457    3.246390   21.886634     10.00     195.0840
      55     1 Pt  78    5.622913    3.246390   21.886634     10.00     195.0840
      56     1 Pt  78    8.434370    3.246390   21.886634     10.00     195.0840
      57     1 Pt  78    1.405728    5.681183   21.886634     10.00     195.0840
      58     1 Pt  78    4.217185    5.681183   21.886634     10.00     195.0840
      59     1 Pt  78    7.028641    5.681183   21.886634     10.00     195.0840
      60     1 Pt  78    9.840098    5.681183   21.886634     10.00     195.0840
      61     1 Pt  78    0.000000    8.115976   21.886634     10.00     195.0840
      62     1 Pt  78    2.811457    8.115976   21.886634     10.00     195.0840
      63     1 Pt  78    5.622913    8.115976   21.886634     10.00     195.0840
      64     1 Pt  78    8.434370    8.115976   21.886634     10.00     195.0840
      65     1 Pt  78    0.000000    1.623195   24.182179     10.00     195.0840
      66     1 Pt  78    2.811457    1.623195   24.182179     10.00     195.0840
      67     1 Pt  78    5.622913    1.623195   24.182179     10.00     195.0840
      68     1 Pt  78    8.434370    1.623195   24.182179     10.00     195.0840
      69     1 Pt  78    1.405728    4.057988   24.182179     10.00     195.0840
      70     1 Pt  78    4.217185    4.057988   24.182179     10.00     195.0840
      71     1 Pt  78    7.028641    4.057988   24.182179     10.00     195.0840
      72     1 Pt  78    9.840098    4.057988   24.182179     10.00     195.0840
      73     1 Pt  78    0.000000    6.492781   24.182179     10.00     195.0840
      74     1 Pt  78    2.811457    6.492781   24.182179     10.00     195.0840
      75     1 Pt  78    5.622913    6.492781   24.182179     10.00     195.0840
      76     1 Pt  78    8.434370    6.492781   24.182179     10.00     195.0840
      77     1 Pt  78    1.405728    8.927574   24.182179     10.00     195.0840
      78     1 Pt  78    4.217185    8.927574   24.182179     10.00     195.0840
      79     1 Pt  78    7.028641    8.927574   24.182179     10.00     195.0840
      80     1 Pt  78    9.840098    8.927574   24.182179     10.00     195.0840
      81     1 Pt  78    0.000000    0.000000   26.477723     10.00     195.0840
      82     1 Pt  78    2.811457    0.000000   26.477723     10.00     195.0840
      83     1 Pt  78    5.622913    0.000000   26.477723     10.00     195.0840
      84     1 Pt  78    8.434370    0.000000   26.477723     10.00     195.0840
      85     1 Pt  78    1.405728    2.434793   26.477723     10.00     195.0840
      86     1 Pt  78    4.217185    2.434793   26.477723     10.00     195.0840
      87     1 Pt  78    7.028641    2.434793   26.477723     10.00     195.0840
      88     1 Pt  78    9.840098    2.434793   26.477723     10.00     195.0840
      89     1 Pt  78    0.000000    4.869586   26.477723     10.00     195.0840
      90     1 Pt  78    2.811457    4.869586   26.477723     10.00     195.0840
      91     1 Pt  78    5.622913    4.869586   26.477723     10.00     195.0840
      92     1 Pt  78    8.434370    4.869586   26.477723     10.00     195.0840
      93     1 Pt  78    1.405728    7.304378   26.477723     10.00     195.0840
      94     1 Pt  78    4.217185    7.304378   26.477723     10.00     195.0840
      95     1 Pt  78    7.028641    7.304378   26.477723     10.00     195.0840
      96     1 Pt  78    9.840098    7.304378   26.477723     10.00     195.0840
      97     2 O    8    5.622913    4.869586   32.477723      6.00      15.9994
      98     3 H    1    5.062566    5.632825   32.681673      1.00       1.0079
      99     3 H    1    5.062566    4.106347   32.681673      1.00       1.0079




 SCF PARAMETERS         Density guess:                                   RESTART
                        --------------------------------------------------------
                        max_scf:                                             500
                        max_scf_history:                                       0
                        max_diis:                                              4
                        --------------------------------------------------------
                        eps_scf:                                        1.00E-06
                        eps_scf_history:                                0.00E+00
                        eps_diis:                                       1.00E-01
                        eps_eigval:                                     1.00E-05
                        --------------------------------------------------------
                        level_shift [a.u.]:                                 0.00
                        added MOs                                       500    0
                        --------------------------------------------------------
                        Mixing method:                            BROYDEN_MIXING
                                                charge density mixing in g-space
                        --------------------------------------------------------
                        Smear method:                                FERMI_DIRAC
                        Electronic temperature [K]:                        300.0
                        Electronic temperature [a.u.]:                  9.50E-04
                        Accuracy threshold:                             1.00E-10
                        --------------------------------------------------------
                        No outer SCF

 PW_GRID| Information for grid number                                          1
 PW_GRID| Grid distributed over                                    32 processors
 PW_GRID| Real space group dimensions                                    32    1
 PW_GRID| the grid is blocked:                                                NO
 PW_GRID| Cutoff [a.u.]                                                    200.0
 PW_GRID| spherical cutoff:                                                   NO
 PW_GRID|   Bounds   1            -67      67                Points:         135
 PW_GRID|   Bounds   2            -60      59                Points:         120
 PW_GRID|   Bounds   3           -250     249                Points:         500
 PW_GRID| Volume element (a.u.^3)  0.3785E-02     Volume (a.u.^3)     30656.6653
 PW_GRID| Grid span                                                    FULLSPACE
 PW_GRID|   Distribution                         Average         Max         Min
 PW_GRID|   G-Vectors                           253125.0      253125      253125
 PW_GRID|   G-Rays                                1875.0        1875        1875
 PW_GRID|   Real Space Points                   253125.0      300000      240000

 PW_GRID| Information for grid number                                          2
 PW_GRID| Number of the reference grid                                         1
 PW_GRID| Grid distributed over                                    32 processors
 PW_GRID| Real space group dimensions                                    32    1
 PW_GRID| the grid is blocked:                                                NO
 PW_GRID| Cutoff [a.u.]                                                     66.7
 PW_GRID| spherical cutoff:                                                   NO
 PW_GRID|   Bounds   1            -40      39                Points:          80
 PW_GRID|   Bounds   2            -36      35                Points:          72
 PW_GRID|   Bounds   3           -150     149                Points:         300
 PW_GRID| Volume element (a.u.^3)  0.1774E-01     Volume (a.u.^3)     30656.6653
 PW_GRID| Grid span                                                    FULLSPACE
 PW_GRID|   Distribution                         Average         Max         Min
 PW_GRID|   G-Vectors                            54000.0       54640       53520
 PW_GRID|   G-Rays                                 675.0         683         669
 PW_GRID|   Real Space Points                    54000.0       64800       43200

 PW_GRID| Information for grid number                                          3
 PW_GRID| Number of the reference grid                                         1
 PW_GRID| Grid distributed over                                    32 processors
 PW_GRID| Real space group dimensions                                    32    1
 PW_GRID| the grid is blocked:                                                NO
 PW_GRID| Cutoff [a.u.]                                                     22.2
 PW_GRID| spherical cutoff:                                                   NO
 PW_GRID|   Bounds   1            -22      22                Points:          45
 PW_GRID|   Bounds   2            -20      19                Points:          40
 PW_GRID|   Bounds   3            -90      89                Points:         180
 PW_GRID| Volume element (a.u.^3)  0.9462E-01     Volume (a.u.^3)     30656.6653
 PW_GRID| Grid span                                                    FULLSPACE
 PW_GRID|   Distribution                         Average         Max         Min
 PW_GRID|   G-Vectors                            10125.0       10260       10035
 PW_GRID|   G-Rays                                 225.0         228         223
 PW_GRID|   Real Space Points                    10125.0       14400        7200

 PW_GRID| Information for grid number                                          4
 PW_GRID| Number of the reference grid                                         1
 PW_GRID| Grid distributed over                                    32 processors
 PW_GRID| Real space group dimensions                                     4    8
 PW_GRID| the grid is blocked:                                                NO
 PW_GRID| Cutoff [a.u.]                                                      7.4
 PW_GRID| spherical cutoff:                                                   NO
 PW_GRID|   Bounds   1            -13      13                Points:          27
 PW_GRID|   Bounds   2            -12      11                Points:          24
 PW_GRID|   Bounds   3            -50      49                Points:         100
 PW_GRID| Volume element (a.u.^3)  0.4731         Volume (a.u.^3)     30656.6653
 PW_GRID| Grid span                                                    FULLSPACE
 PW_GRID|   Distribution                         Average         Max         Min
 PW_GRID|   G-Vectors                             2025.0        2133        1890
 PW_GRID|   G-Rays                                  75.0          79          70
 PW_GRID|   Real Space Points                     2025.0        2100        1800

 POISSON| Solver                                                        PERIODIC
 POISSON| Periodicity                                                        XYZ

 RS_GRID| Information for grid number                                          1
 RS_GRID|   Bounds   1            -67      67                Points:         135
 RS_GRID|   Bounds   2            -60      59                Points:         120
 RS_GRID|   Bounds   3           -250     249                Points:         500
 RS_GRID| Real space distribution over                                 32 groups
 RS_GRID| Real space distribution along direction                              3
 RS_GRID| Border size                                                         34
 RS_GRID|   Distribution                         Average         Max         Min
 RS_GRID|   Planes                                  83.6          84          83

 RS_GRID| Information for grid number                                          2
 RS_GRID|   Bounds   1            -40      39                Points:          80
 RS_GRID|   Bounds   2            -36      35                Points:          72
 RS_GRID|   Bounds   3           -150     149                Points:         300
 RS_GRID| Real space distribution over                                 32 groups
 RS_GRID| Real space distribution along direction                              3
 RS_GRID| Border size                                                         24
 RS_GRID|   Distribution                         Average         Max         Min
 RS_GRID|   Planes                                  57.4          58          57

 RS_GRID| Information for grid number                                          3
 RS_GRID|   Bounds   1            -22      22                Points:          45
 RS_GRID|   Bounds   2            -20      19                Points:          40
 RS_GRID|   Bounds   3            -90      89                Points:         180
 RS_GRID| Real space fully replicated
 RS_GRID| Group size                                                           1

 RS_GRID| Information for grid number                                          4
 RS_GRID|   Bounds   1            -13      13                Points:          27
 RS_GRID|   Bounds   2            -12      11                Points:          24
 RS_GRID|   Bounds   3            -50      49                Points:         100
 RS_GRID| Real space fully replicated
 RS_GRID| Group size                                                           1

 Number of electrons:                                                        968
 Number of occupied orbitals:                                                484
 Number of molecular orbitals:                                               984

 Number of orbital functions:                                               1943
 Number of independent orbital functions:                                   1943

 Extrapolation method: initial_guess


 SCF WAVEFUNCTION OPTIMIZATION

  Step     Update method      Time    Convergence         Total energy    Change
  ------------------------------------------------------------------------------
     1 NoMix/Diag. 0.30E+00    1.0     0.02147708     -2538.0195174056 -2.54E+03
     2 Broy./Diag. 0.30E+00    1.4     0.00622746     -2538.0531917126 -3.37E-02
     3 Broy./Diag. 0.30E+00    1.4     0.00666190     -2538.0510010709  2.19E-03
     4 Broy./Diag. 0.30E+00    1.4     0.00459069     -2538.0517148282 -7.14E-04
     5 Broy./Diag. 0.30E+00    1.4     0.00092639     -2538.0533725610 -1.66E-03
     6 Broy./Diag. 0.30E+00    1.4     0.00044450     -2538.0510686179  2.30E-03
     7 Broy./Diag. 0.30E+00    1.4     0.00021642     -2538.0536139644 -2.55E-03
     8 Broy./Diag. 0.30E+00    1.4     0.00020390     -2538.0505034734  3.11E-03
     9 Broy./Diag. 0.30E+00    1.4     0.00014202     -2538.0545225363 -4.02E-03
    10 Broy./Diag. 0.30E+00    1.4     0.00005159     -2538.0520369127  2.49E-03
    11 Broy./Diag. 0.30E+00    1.4     0.00003162     -2538.0523693698 -3.32E-04
    12 Broy./Diag. 0.30E+00    1.4     0.00002983     -2538.0523070108  6.24E-05
    13 Broy./Diag. 0.30E+00    1.4     0.00003179     -2538.0522950243  1.20E-05
    14 Broy./Diag. 0.30E+00    1.4     0.00003424     -2538.0522585589  3.65E-05
    15 Broy./Diag. 0.30E+00    1.4     0.00003228     -2538.0522529730  5.59E-06
    16 Broy./Diag. 0.30E+00    1.5     0.00002540     -2538.0522758100 -2.28E-05
    17 Broy./Diag. 0.30E+00    1.4     0.00002574     -2538.0521648614  1.11E-04
    18 Broy./Diag. 0.30E+00    1.4     0.00001500     -2538.0523631227 -1.98E-04
    19 Broy./Diag. 0.30E+00    1.4     0.00001255     -2538.0520540737  3.09E-04
    20 Broy./Diag. 0.30E+00    1.4     0.00000738     -2538.0522791214 -2.25E-04
    21 Broy./Diag. 0.30E+00    1.4     0.00000625     -2538.0521891048  9.00E-05
    22 Broy./Diag. 0.30E+00    1.4     0.00000436     -2538.0522016401 -1.25E-05
    23 Broy./Diag. 0.30E+00    1.4     0.00000346     -2538.0521947768  6.86E-06
    24 Broy./Diag. 0.30E+00    1.4     0.00000726     -2538.0521926602  2.12E-06
    25 Broy./Diag. 0.30E+00    1.4     0.00000845     -2538.0521892276  3.43E-06
    26 Broy./Diag. 0.30E+00    1.4     0.00000462     -2538.0521803831  8.84E-06
    27 Broy./Diag. 0.30E+00    1.4     0.00000375     -2538.0521913070 -1.09E-05
    28 Broy./Diag. 0.30E+00    1.4     0.00000284     -2538.0521655251  2.58E-05
    29 Broy./Diag. 0.30E+00    1.4     0.00000342     -2538.0522152977 -4.98E-05
    30 Broy./Diag. 0.30E+00    1.4     0.00000263     -2538.0521480164  6.73E-05
    31 Broy./Diag. 0.30E+00    1.4     0.00000194     -2538.0521816097 -3.36E-05
    32 Broy./Diag. 0.30E+00    1.4     0.00000156     -2538.0521733737  8.24E-06
    33 Broy./Diag. 0.30E+00    1.4     0.00000081     -2538.0521732564  1.17E-07

  *** SCF run converged in    33 steps ***


  Electronic density on regular grids:       -968.0000000024       -0.0000000024
  Core density on regular grids:              967.9999999998       -0.0000000002
  Total charge density on r-space grids:       -0.0000000026
  Total charge density g-space grids:          -0.0000000026

  Overlap energy of the core charge distribution:               0.00001067490320
  Self energy of the core charge distribution:              -4440.62962420003350
  Core Hamiltonian energy:                                   1439.87799531663268
  Hartree energy:                                             901.52522553561687
  Exchange-correlation energy:                               -436.68222563363963
  Dispersion energy:                                           -2.11102445839747
  Electronic entropic energy:                                  -0.03253049264602
  Fermi energy:                                                 0.00613750757617

  Total energy:                                             -2538.05217325636249

 The electron density is written in cube file format to the file:

 cp2k-ELECTRON_DENSITY-1_0.cube

 !-----------------------------------------------------------------------------!
                     Mulliken Population Analysis

 #  Atom  Element  Kind  Atomic population                           Net charge
       1     Pt       1         10.054985                             -0.054985
       2     Pt       1         10.054975                             -0.054975
       3     Pt       1         10.054972                             -0.054972
       4     Pt       1         10.054980                             -0.054980
       5     Pt       1         10.054972                             -0.054972
       6     Pt       1         10.054975                             -0.054975
       7     Pt       1         10.054995                             -0.054995
       8     Pt       1         10.054992                             -0.054992
       9     Pt       1         10.054966                             -0.054966
      10     Pt       1         10.054998                             -0.054998
      11     Pt       1         10.055012                             -0.055012
      12     Pt       1         10.054981                             -0.054981
      13     Pt       1         10.054986                             -0.054986
      14     Pt       1         10.054981                             -0.054981
      15     Pt       1         10.054969                             -0.054969
      16     Pt       1         10.054981                             -0.054981
      17     Pt       1          9.971975                              0.028025
      18     Pt       1          9.971980                              0.028020
      19     Pt       1          9.971977                              0.028023
      20     Pt       1          9.971979                              0.028021
      21     Pt       1          9.971965                              0.028035
      22     Pt       1          9.971974                              0.028026
      23     Pt       1          9.971975                              0.028025
      24     Pt       1          9.971961                              0.028039
      25     Pt       1          9.971968                              0.028032
      26     Pt       1          9.971974                              0.028026
      27     Pt       1          9.971971                              0.028029
      28     Pt       1          9.971974                              0.028026
      29     Pt       1          9.971979                              0.028021
      30     Pt       1          9.971990                              0.028010
      31     Pt       1          9.971989                              0.028011
      32     Pt       1          9.971976                              0.028024
      33     Pt       1          9.973332                              0.026668
      34     Pt       1          9.973348                              0.026652
      35     Pt       1          9.973368                              0.026632
      36     Pt       1          9.973360                              0.026640
      37     Pt       1          9.973369                              0.026631
      38     Pt       1          9.973359                              0.026641
      39     Pt       1          9.973352                              0.026648
      40     Pt       1          9.973357                              0.026643
      41     Pt       1          9.973361                              0.026639
      42     Pt       1          9.973355                              0.026645
      43     Pt       1          9.973328                              0.026672
      44     Pt       1          9.973336                              0.026664
      45     Pt       1          9.973334                              0.026666
      46     Pt       1          9.973347                              0.026653
      47     Pt       1          9.973350                              0.026650
      48     Pt       1          9.973332                              0.026668
      49     Pt       1          9.973357                              0.026643
      50     Pt       1          9.973342                              0.026658
      51     Pt       1          9.973330                              0.026670
      52     Pt       1          9.973339                              0.026661
      53     Pt       1          9.973323                              0.026677
      54     Pt       1          9.973338                              0.026662
      55     Pt       1          9.973336                              0.026664
      56     Pt       1          9.973336                              0.026664
      57     Pt       1          9.973334                              0.026666
      58     Pt       1          9.973347                              0.026653
      59     Pt       1          9.973346                              0.026654
      60     Pt       1          9.973330                              0.026670
      61     Pt       1          9.973365                              0.026635
      62     Pt       1          9.973365                              0.026635
      63     Pt       1          9.973349                              0.026651
      64     Pt       1          9.973347                              0.026653
      65     Pt       1          9.971982                              0.028018
      66     Pt       1          9.972013                              0.027987
      67     Pt       1          9.971979                              0.028021
      68     Pt       1          9.971990                              0.028010
      69     Pt       1          9.971986                              0.028014
      70     Pt       1          9.971987                              0.028013
      71     Pt       1          9.971931                              0.028069
      72     Pt       1          9.971974                              0.028026
      73     Pt       1          9.971959                              0.028041
      74     Pt       1          9.971975                              0.028025
      75     Pt       1          9.971962                              0.028038
      76     Pt       1          9.971953                              0.028047
      77     Pt       1          9.971982                              0.028018
      78     Pt       1          9.972010                              0.027990
      79     Pt       1          9.972013                              0.027987
      80     Pt       1          9.971977                              0.028023
      81     Pt       1         10.055472                             -0.055472
      82     Pt       1         10.056380                             -0.056380
      83     Pt       1         10.055369                             -0.055369
      84     Pt       1         10.054511                             -0.054511
      85     Pt       1         10.055973                             -0.055973
      86     Pt       1         10.055008                             -0.055008
      87     Pt       1         10.052784                             -0.052784
      88     Pt       1         10.054255                             -0.054255
      89     Pt       1         10.054989                             -0.054989
      90     Pt       1         10.055281                             -0.055281
      91     Pt       1         10.050601                             -0.050601
      92     Pt       1         10.051597                             -0.051597
      93     Pt       1         10.055971                             -0.055971
      94     Pt       1         10.055021                             -0.055021
      95     Pt       1         10.052806                             -0.052806
      96     Pt       1         10.054259                             -0.054259
      97     O        2          6.245817                             -0.245817
      98     H        3          0.876916                              0.123084
      99     H        3          0.876916                              0.123084
 # Total charge                            968.000000                  0.000000

 !-----------------------------------------------------------------------------!

 !-----------------------------------------------------------------------------!
                           Hirshfeld Charges

  #Atom  Element  Kind  Ref Charge     Population                    Net charge
      1       Pt     1      10.000         10.015                        -0.015
      2       Pt     1      10.000         10.015                        -0.015
      3       Pt     1      10.000         10.015                        -0.015
      4       Pt     1      10.000         10.015                        -0.015
      5       Pt     1      10.000         10.015                        -0.015
      6       Pt     1      10.000         10.015                        -0.015
      7       Pt     1      10.000         10.015                        -0.015
      8       Pt     1      10.000         10.015                        -0.015
      9       Pt     1      10.000         10.015                        -0.015
     10       Pt     1      10.000         10.015                        -0.015
     11       Pt     1      10.000         10.015                        -0.015
     12       Pt     1      10.000         10.015                        -0.015
     13       Pt     1      10.000         10.015                        -0.015
     14       Pt     1      10.000         10.015                        -0.015
     15       Pt     1      10.000         10.015                        -0.015
     16       Pt     1      10.000         10.015                        -0.015
     17       Pt     1      10.000          9.987                         0.013
     18       Pt     1      10.000          9.987                         0.013
     19       Pt     1      10.000          9.987                         0.013
     20       Pt     1      10.000          9.987                         0.013
     21       Pt     1      10.000          9.987                         0.013
     22       Pt     1      10.000          9.987                         0.013
     23       Pt     1      10.000          9.987                         0.013
     24       Pt     1      10.000          9.987                         0.013
     25       Pt     1      10.000          9.987                         0.013
     26       Pt     1      10.000          9.987                         0.013
     27       Pt     1      10.000          9.987                         0.013
     28       Pt     1      10.000          9.987                         0.013
     29       Pt     1      10.000          9.987                         0.013
     30       Pt     1      10.000          9.987                         0.013
     31       Pt     1      10.000          9.987                         0.013
     32       Pt     1      10.000          9.987                         0.013
     33       Pt     1      10.000          9.998                         0.002
     34       Pt     1      10.000          9.998                         0.002
     35       Pt     1      10.000          9.998                         0.002
     36       Pt     1      10.000          9.998                         0.002
     37       Pt     1      10.000          9.998                         0.002
     38       Pt     1      10.000          9.998                         0.002
     39       Pt     1      10.000          9.998                         0.002
     40       Pt     1      10.000          9.998                         0.002
     41       Pt     1      10.000          9.998                         0.002
     42       Pt     1      10.000          9.998                         0.002
     43       Pt     1      10.000          9.998                         0.002
     44       Pt     1      10.000          9.998                         0.002
     45       Pt     1      10.000          9.998                         0.002
     46       Pt     1      10.000          9.998                         0.002
     47       Pt     1      10.000          9.998                         0.002
     48       Pt     1      10.000          9.998                         0.002
     49       Pt     1      10.000          9.998                         0.002
     50       Pt     1      10.000          9.998                         0.002
     51       Pt     1      10.000          9.998                         0.002
     52       Pt     1      10.000          9.998                         0.002
     53       Pt     1      10.000          9.998                         0.002
     54       Pt     1      10.000          9.998                         0.002
     55       Pt     1      10.000          9.998                         0.002
     56       Pt     1      10.000          9.998                         0.002
     57       Pt     1      10.000          9.998                         0.002
     58       Pt     1      10.000          9.998                         0.002
     59       Pt     1      10.000          9.998                         0.002
     60       Pt     1      10.000          9.998                         0.002
     61       Pt     1      10.000          9.998                         0.002
     62       Pt     1      10.000          9.998                         0.002
     63       Pt     1      10.000          9.998                         0.002
     64       Pt     1      10.000          9.998                         0.002
     65       Pt     1      10.000          9.987                         0.013
     66       Pt     1      10.000          9.987                         0.013
     67       Pt     1      10.000          9.987                         0.013
     68       Pt     1      10.000          9.987                         0.013
     69       Pt     1      10.000          9.987                         0.013
     70       Pt     1      10.000          9.987                         0.013
     71       Pt     1      10.000          9.987                         0.013
     72       Pt     1      10.000          9.987                         0.013
     73       Pt     1      10.000          9.987                         0.013
     74       Pt     1      10.000          9.987                         0.013
     75       Pt     1      10.000          9.987                         0.013
     76       Pt     1      10.000          9.987                         0.013
     77       Pt     1      10.000          9.987                         0.013
     78       Pt     1      10.000          9.987                         0.013
     79       Pt     1      10.000          9.987                         0.013
     80       Pt     1      10.000          9.987                         0.013
     81       Pt     1      10.000         10.016                        -0.016
     82       Pt     1      10.000         10.017                        -0.017
     83       Pt     1      10.000         10.016                        -0.016
     84       Pt     1      10.000         10.015                        -0.015
     85       Pt     1      10.000         10.016                        -0.016
     86       Pt     1      10.000         10.016                        -0.016
     87       Pt     1      10.000         10.013                        -0.013
     88       Pt     1      10.000         10.014                        -0.014
     89       Pt     1      10.000         10.015                        -0.015
     90       Pt     1      10.000         10.016                        -0.016
     91       Pt     1      10.000         10.013                        -0.013
     92       Pt     1      10.000         10.012                        -0.012
     93       Pt     1      10.000         10.016                        -0.016
     94       Pt     1      10.000         10.016                        -0.016
     95       Pt     1      10.000         10.013                        -0.013
     96       Pt     1      10.000         10.014                        -0.014
     97       O      2       6.000          7.113                        -1.113
     98       H      3       1.000          0.439                         0.561
     99       H      3       1.000          0.439                         0.561

  Total Charge                                                            0.003
 !-----------------------------------------------------------------------------!

 LOCALIZE| The spread relative to a set of orbitals is computed
 LOCALIZE| Orbitals to be localized: All orbitals
 LOCALIZE| If fractional occupation, fully occupied MOs are those 
           within occupation tolerance of       0.00000001
 LOCALIZE| Spread defined by the Berry phase operator 
 LOCALIZE| Optimal unitary transformation generated by Jacobi algorithm

         Restart file not available filename=<cp2k-LOC_HOMO-1_0.wfn>

 LOCALIZATION|    The orbitals to be localized are read from localization restart file.

 LOCALIZATION| Spin    1 The first    438 occupied orbitals are localized,
               with energies from    -0.733791 to    -0.012275 [a.u.].

 LOCALIZATION| Computing localization properties for OCCUPIED ORBITALS. Spin:  1
    Spread Functional     sum_in -w_i ln(|z_in|^2)    sum_in w_i(1-|z_in|^2)
    Initial Spread (Berry) :            183979.2883583801    29580.3674751647
    Localization by iterative distributed Jacobi rotation
                      Iteration            Functional         Tolerance   Time 
                            100        5075.6227101658       0.1917E+02   0.062
                            200        5067.5491950731       0.8292E+01   0.060
                            300        5066.1345062838       0.3224E+01   0.061
                            400        5065.4450764672       0.2474E+01   0.062
                            500        5065.3189383502       0.2520E+01   0.061
                            600        5065.2644613416       0.4004E+00   0.061
                            700        5065.2619528765       0.1571E+00   0.061
                            800        5065.2616406809       0.5327E-01   0.061
                            900        5065.2616058367       0.1725E-01   0.061
    Localization  for spin   1 converged in    948 iterations
    Spread Functional     sum_in -w_i ln(|z_in|^2)    sum_in w_i(1-|z_in|^2)
    Total Spread (Berry) :                5984.2266900829     5065.2616031267

 LOCALIZATION| Write restart file for the localized MOS : cp2k-LOC_HOMO-1_0.wfn


 ENERGY| Total FORCE_EVAL ( QS ) energy (a.u.):            -2538.052162522514664


 ATOMIC FORCES in [a.u.]

 # Atom   Kind   Element          X              Y              Z
      1      1      Pt          0.00000445    -0.00126456    -0.01269462
      2      1      Pt         -0.00000581    -0.00126331    -0.01268842
      3      1      Pt         -0.00000401    -0.00126405    -0.01268288
      4      1      Pt          0.00000435    -0.00126495    -0.01269507
      5      1      Pt          0.00000534    -0.00126320    -0.01269373
      6      1      Pt          0.00000325    -0.00126014    -0.01269344
      7      1      Pt         -0.00000625    -0.00126089    -0.01269632
      8      1      Pt         -0.00000132    -0.00126078    -0.01269502
      9      1      Pt          0.00000509    -0.00126076    -0.01269213
     10      1      Pt         -0.00000691    -0.00126364    -0.01269601
     11      1      Pt         -0.00000302    -0.00126710    -0.01269852
     12      1      Pt          0.00000379    -0.00126266    -0.01269565
     13      1      Pt          0.00000730    -0.00125947    -0.01269178
     14      1      Pt         -0.00000148    -0.00125966    -0.01269279
     15      1      Pt         -0.00000896    -0.00126437    -0.01268634
     16      1      Pt          0.00000420    -0.00126358    -0.01269077
     17      1      Pt         -0.00000327    -0.00049399     0.00976312
     18      1      Pt          0.00000744    -0.00049456     0.00976415
[...]
     74      1      Pt          0.00000767     0.00049211    -0.00975904
     75      1      Pt          0.00000461     0.00048020    -0.00975936
     76      1      Pt         -0.00001041     0.00048645    -0.00976199
     77      1      Pt          0.00000129     0.00050016    -0.00975966
     78      1      Pt          0.00000267     0.00050032    -0.00975642
     79      1      Pt         -0.00000167     0.00049819    -0.00975548
     80      1      Pt         -0.00000380     0.00050010    -0.00976074
     81      1      Pt          0.00000995     0.00125828     0.01270076
     82      1      Pt          0.00000767     0.00125814     0.01270372
     83      1      Pt         -0.00001368     0.00125790     0.01270499
     84      1      Pt         -0.00000290     0.00125762     0.01269377
     85      1      Pt          0.00001178     0.00125915     0.01270873
     86      1      Pt         -0.00001229     0.00124672     0.01269791
     87      1      Pt         -0.00000930     0.00123922     0.01269483
     88      1      Pt          0.00000860     0.00125148     0.01269484
     89      1      Pt          0.00001836     0.00126657     0.01269313
     90      1      Pt         -0.00000449     0.00126624     0.01270027
     91      1      Pt         -0.00002239     0.00126711     0.01278625
     92      1      Pt          0.00000980     0.00126608     0.01269335
     93      1      Pt          0.00001034     0.00126955     0.01270195
     94      1      Pt         -0.00001706     0.00128069     0.01270230
     95      1      Pt         -0.00000718     0.00128821     0.01270697
     96      1      Pt          0.00001281     0.00127688     0.01269191
     97      2      O           0.00132903     0.00000118    -0.00036482
     98      3      H          -0.00072444     0.00142875     0.00013174
     99      3      H          -0.00072433    -0.00142880     0.00013168
 SUM OF ATOMIC FORCES          -0.00011952     0.00000045     0.00022714     0.00025667

 -------------------------------------------------------------------------------
 -                                                                             -
 -                                DBCSR STATISTICS                             -
 -                                                                             -
 -------------------------------------------------------------------------------
 COUNTER                                    TOTAL       BLAS       SMM       ACC
 flops     5 x    24 x     5                 4800       0.0%    100.0%      0.0%
 flops     5 x    24 x    13                 6240       0.0%    100.0%      0.0%
 flops    13 x    24 x     5                 6240       0.0%    100.0%      0.0%
 flops    13 x    24 x    13                 8112       0.0%    100.0%      0.0%
 flops     5 x    22 x     5                26400       0.0%    100.0%      0.0%
 flops     5 x    22 x    13                34320       0.0%    100.0%      0.0%
 flops    13 x    22 x     5                34320       0.0%    100.0%      0.0%
 flops    13 x    22 x    13                44616       0.0%    100.0%      0.0%
 flops     5 x    13 x    96               436800       0.0%    100.0%      0.0%
 flops    13 x     5 x    96               436800       0.0%    100.0%      0.0%
 flops     5 x     5 x    96               504000       0.0%    100.0%      0.0%
 flops     5 x    13 x   120               546000       0.0%    100.0%      0.0%
 flops    13 x     5 x   120               546000       0.0%    100.0%      0.0%
 flops    20 x    24 x    13               611520       0.0%    100.0%      0.0%
 flops    13 x    24 x    20               611520       0.0%    100.0%      0.0%
 flops     5 x    24 x    20               614400       0.0%    100.0%      0.0%
 flops    20 x    24 x     5               614400       0.0%    100.0%      0.0%
 flops     5 x     5 x   120               630000       0.0%    100.0%      0.0%
 flops     5 x    32 x     5               691200       0.0%    100.0%      0.0%
 flops     5 x    32 x    13               898560       0.0%    100.0%      0.0%
 flops    13 x    32 x     5               898560       0.0%    100.0%      0.0%
 flops    13 x    13 x    96              1135680       0.0%    100.0%      0.0%
 flops    13 x    32 x    13              1168128       0.0%    100.0%      0.0%
 flops    13 x    13 x   120              1419600       0.0%    100.0%      0.0%
 flops    20 x    22 x    13              3363360       0.0%    100.0%      0.0%
 flops    13 x    22 x    20              3363360       0.0%    100.0%      0.0%
 flops     5 x    22 x    20              3379200       0.0%    100.0%      0.0%
 flops    20 x    22 x     5              3379200       0.0%    100.0%      0.0%
 flops     5 x    13 x   128              3494400       0.0%    100.0%      0.0%
 flops    13 x     5 x   128              3494400       0.0%    100.0%      0.0%
 flops     5 x     5 x   128              4032000       0.0%    100.0%      0.0%
 flops    13 x    13 x   128              9085440       0.0%    100.0%      0.0%
 flops    13 x    20 x    96             41932800       0.0%    100.0%      0.0%
 flops     5 x    20 x    96             43008000       0.0%    100.0%      0.0%
 flops    20 x     5 x    96             43008000       0.0%    100.0%      0.0%
 flops    20 x    13 x    96             43680000       0.0%    100.0%      0.0%
 flops    13 x    20 x   120             52416000       0.0%    100.0%      0.0%
 flops     5 x    20 x   120             53760000       0.0%    100.0%      0.0%
 flops    20 x     5 x   120             53760000       0.0%    100.0%      0.0%
 flops    20 x    13 x   120             54600000       0.0%    100.0%      0.0%
 flops    20 x    32 x    13             88058880       0.0%    100.0%      0.0%
 flops    13 x    32 x    20             88058880       0.0%    100.0%      0.0%
 flops    20 x    32 x     5             88473600       0.0%    100.0%      0.0%
 flops     5 x    32 x    20             88473600       0.0%    100.0%      0.0%
 flops    20 x    24 x    20            176947200       0.0%    100.0%      0.0%
 flops    13 x    20 x   128            335462400       0.0%    100.0%      0.0%
 flops     5 x    20 x   128            344064000       0.0%    100.0%      0.0%
 flops    20 x     5 x   128            344064000       0.0%    100.0%      0.0%
 flops    20 x    13 x   128            349440000       0.0%    100.0%      0.0%
 flops    20 x    22 x    20            973209600       0.0%    100.0%      0.0%
 flops    20 x    20 x    96          12515328000       0.0%    100.0%      0.0%
 flops    20 x    20 x   120          15644160000       0.0%    100.0%      0.0%
 flops    20 x    32 x    20          25480396800       0.0%    100.0%      0.0%
 flops    20 x    20 x   128         100122624000       0.0%    100.0%      0.0%
 flops inhomo. stacks                           0       0.0%      0.0%      0.0%
 flops total                       157.070445E+09       0.0%    100.0%      0.0%
 flops max/rank                      5.311799E+09       0.0%    100.0%      0.0%
 matmuls inhomo. stacks                         0       0.0%      0.0%      0.0%
 matmuls total                            2456505       0.0%    100.0%      0.0%
 number of processed stacks                 25763       0.0%    100.0%      0.0%
 average stack size                                     0.0      95.4       0.0
 marketing flops                   164.162863E+09
 -------------------------------------------------------------------------------
 # multiplications                             42
 max memory usage/rank             334.880768E+06
 # max total images/rank                        2
 # max 3D layers                                1
 # MPI messages exchanged                   17472
 MPI messages size (bytes):
  total size                         6.987086E+09
  min size                          61.440000E+03
  max size                         960.392000E+03
  average size                     399.901906E+03
 MPI breakdown and total messages size (bytes):
             size <=      128                   0                        0
       128 < size <=     8192                   0                        0
      8192 < size <=    32768                   0                        0
     32768 < size <=   131072                1152                122548896
    131072 < size <=  4194304               16320               6864539016
   4194304 < size <= 16777216                   0                        0
  16777216 < size                               0                        0
 -------------------------------------------------------------------------------

 *** WARNING in dbcsr_mm.F:295 :: Using a non-square number of MPI ranks ***
 *** might lead to poor performance. Used ranks: 32 Suggested: 36 64     ***

 -------------------------------------------------------------------------------
 -                                                                             -
 -                      DBCSR MESSAGE PASSING PERFORMANCE                      -
 -                                                                             -
 -------------------------------------------------------------------------------
 ROUTINE             CALLS      AVE VOLUME [Bytes]
 MP_Group               42
 MP_Bcast               55                     12.
 MP_Allreduce          391                     14.
 MP_Alltoall          1115                 255257.
 MP_Wait              2688
 MP_ISend             1344                 175241.
 MP_IRecv             1344                 170191.
 MP_Memory            4494
 -------------------------------------------------------------------------------

 MEMORY| Estimated peak process memory [MiB]                                 320

 -------------------------------------------------------------------------------
 ----                             MULTIGRID INFO                            ----
 -------------------------------------------------------------------------------
 count for grid        1:         253038          cutoff [a.u.]          200.00
 count for grid        2:         269578          cutoff [a.u.]           66.67
 count for grid        3:         157472          cutoff [a.u.]           22.22
 count for grid        4:         113463          cutoff [a.u.]            7.41
 total gridlevel count  :         793551

 -------------------------------------------------------------------------------
 -                                                                             -
 -                         MESSAGE PASSING PERFORMANCE                         -
 -                                                                             -
 -------------------------------------------------------------------------------

 ROUTINE             CALLS      AVE VOLUME [Bytes]
 MP_Group                4
 MP_Bcast             2334                 246272.
 MP_Allreduce         2570                   4131.
 MP_Sync                 5
 MP_Alltoall           765               11485467.
 MP_SendRecv         58900                 169375.
 MP_ISendRecv         4216                  66000.
 MP_Wait             10096
 MP_ISend             5320                 181696.
 MP_IRecv             5320                 181696.
 MP_Recv                90                 497408.
 MP_Write_All            3                1119280.
 -------------------------------------------------------------------------------


 -------------------------------------------------------------------------------
 -                                                                             -
 -                           R E F E R E N C E S                               -
 -                                                                             -
 -------------------------------------------------------------------------------
 
 CP2K version 7.1, the CP2K developers group (2019).
 CP2K is freely available from https://www.cp2k.org/ .

 Schuett, Ole; Messmer, Peter; Hutter, Juerg; VandeVondele, Joost. 
 Electronic Structure Calculations on Graphics Processing Units, John
 Wiley & Sons, Ltd, 173-190 (2016). 
 GPU-Accelerated Sparse Matrix-Matrix Multiplication for
 Linear Scaling Density Functional Theory.
 https://dx.doi.org/10.1002/9781118670712.ch8

 Borstnik, U; VandeVondele, J; Weber, V; Hutter, J. 
 PARALLEL COMPUTING, 40 (5-6), 47-58 (2014). 
 Sparse matrix multiplication: The distributed block-compressed sparse
 row library.
 https://dx.doi.org/10.1016/j.parco.2014.03.012

 Hutter, J; Iannuzzi, M; Schiffmann, F; VandeVondele, J. 
 WIREs Comput Mol Sci., 4 (1), 15-25 (2014). 
 CP2K: atomistic simulations of condensed matter systems.
 https://dx.doi.org/10.1002/wcms.1159

 Marek, A; Blum, V; Johanni, R; Havu, V; Lang, B; Auckenthaler, T;
 Heinecke, A; Bungartz, H; Lederer, H. 
 Journal of Physics: Condensed Matter, 26 (21), (2014). 
 The ELPA library: scalable parallel eigenvalue solutions for
 electronic structure
 theory and computational science.
 https://dx.doi.org/10.1088/0953-8984/26/21/213201

 Grimme, S; Ehrlich, S; Goerigk, L. 
 JOURNAL OF COMPUTATIONAL CHEMISTRY, 32, 1456 (2011). 
 Effect of the damping function in dispersion corrected density functional theory.
 https://dx.doi.org/10.1002/jcc.21759

 Grimme, S; Antony, J; Ehrlich, S; Krieg, H. 
 JOURNAL OF CHEMICAL PHYSICS, 132 (15), 154104 (2010). 
 A consistent and accurate ab initio parametrization of density
 functional dispersion correction (DFT-D) for the 94 elements H-Pu.
 https://dx.doi.org/10.1063/1.3382344

 VandeVondele, J; Hutter, J. 
 JOURNAL OF CHEMICAL PHYSICS, 127 (11), 114105 (2007). 
 Gaussian basis sets for accurate calculations on molecular systems in
 gas and condensed phases.
 https://dx.doi.org/10.1063/1.2770708

 Krack, M. 
 THEORETICAL CHEMISTRY ACCOUNTS, 114 (1-3), 145-152 (2005). 
 Pseudopotentials for H to Kr optimized for gradient-corrected
 exchange-correlation functionals.
 https://dx.doi.org/10.1007/s00214-005-0655-y

 VandeVondele, J; Krack, M; Mohamed, F; Parrinello, M; Chassaing, T;
 Hutter, J. COMPUTER PHYSICS COMMUNICATIONS, 167 (2), 103-128 (2005). 
 QUICKSTEP: Fast and accurate density functional calculations using a
 mixed Gaussian and plane waves approach.
 https://dx.doi.org/10.1016/j.cpc.2004.12.014

 Frigo, M; Johnson, SG. 
 PROCEEDINGS OF THE IEEE, 93 (2), 216-231 (2005). 
 The design and implementation of FFTW3.
 https://dx.doi.org/10.1109/JPROC.2004.840301

 Hartwigsen, C; Goedecker, S; Hutter, J. 
 PHYSICAL REVIEW B, 58 (7), 3641-3662 (1998). 
 Relativistic separable dual-space Gaussian pseudopotentials from H to Rn.
 https://dx.doi.org/10.1103/PhysRevB.58.3641

 Lippert, G; Hutter, J; Parrinello, M. 
 MOLECULAR PHYSICS, 92 (3), 477-487 (1997). 
 A hybrid Gaussian and plane wave density functional scheme.
 https://dx.doi.org/10.1080/002689797170220

 Perdew, JP; Burke, K; Ernzerhof, M. 
 PHYSICAL REVIEW LETTERS, 77 (18), 3865-3868 (1996). 
 Generalized gradient approximation made simple.
 https://dx.doi.org/10.1103/PhysRevLett.77.3865

 Goedecker, S; Teter, M; Hutter, J. 
 PHYSICAL REVIEW B, 54 (3), 1703-1710 (1996). 
 Separable dual-space Gaussian pseudopotentials.
 https://dx.doi.org/10.1103/PhysRevB.54.1703


 -------------------------------------------------------------------------------
 -                                                                             -
 -                                T I M I N G                                  -
 -                                                                             -
 -------------------------------------------------------------------------------
 SUBROUTINE                       CALLS  ASD         SELF TIME        TOTAL TIME
                                MAXIMUM       AVERAGE  MAXIMUM  AVERAGE  MAXIMUM
 CP2K                                 1  1.0    0.010    0.017  109.998  110.003
 qs_forces                            1  2.0    0.000    0.000  109.715  109.717
 qs_energies                          1  3.0    0.000    0.000  106.955  106.957
 scf_post_calculation_gpw             1  4.0    0.000    0.000   58.710   58.713
 get_localization_info                1  5.0    0.000    0.000   57.887   57.893
 qs_loc_driver                        1  6.0    0.000    0.000   57.887   57.893
 optimize_loc_berry                   1  7.0    0.015    0.016   57.881   57.882
 jacobi_rot_para                      1  8.0   46.046   49.631   57.794   57.795
 scf_env_do_scf                       1  4.0    0.000    0.000   46.910   46.921
 scf_env_do_scf_inner_loop           33  5.0    0.002    0.006   46.908   46.918
 rebuild_ks_matrix                   34  6.9    0.000    0.000   25.972   25.978
 qs_ks_build_kohn_sham_matrix        34  7.9    0.004    0.005   25.972   25.977
 qs_ks_update_qs_env                 33  6.0    0.000    0.000   25.074   25.080
 pw_transfer                        680 10.4    0.035    0.040   13.713   13.867
 fft_wrap_pw1pw2                    612 11.4    0.006    0.006   13.531   13.675
 fft_wrap_pw1pw2_200                408 12.4    1.083    1.133   13.043   13.211
 qs_rho_update_rho                   34  6.0    0.000    0.000   12.946   12.957
 calculate_rho_elec                  34  7.0    5.526    9.240   12.945   12.957
 sum_up_and_integrate                34  8.9    0.034    0.038   12.846   12.855
 integrate_v_rspace                  34  9.9    5.878    9.920   12.812   12.823
 qs_vxc_create                       34  8.9    0.001    0.001   11.393   11.469
 xc_vxc_pw_create                    34  9.9    0.123    0.148   11.392   11.468
 mp_allgather_d23                 29388  9.0    7.861   11.429    7.861   11.429
 fft3d_ps                           612 13.4    6.613    7.264   10.030   10.262
 density_rs2pw                       34  8.0    0.002    0.002    6.966    8.622
 rs_pw_transfer                     276 10.4    0.003    0.003    5.971    7.584
 xc_rho_set_and_dset_create          34 10.9    0.047    0.053    6.103    6.544
 mp_alltoall_d11v                   547 10.5    4.246    5.924    4.246    5.924
 rs_distribute_matrix                69  9.4    0.058    0.151    4.272    5.902
 rs_pw_transfer_RS2PW_200            36  9.9    0.435    0.606    4.286    5.886
 mp_waitany                        5320 12.4    4.081    5.732    4.081    5.732
 qs_scf_new_mos                      33  6.0    0.000    0.001    5.609    5.620
 eigensolver                         33  7.0    0.002    0.002    4.947    4.958
 cp_fm_diag_elpa                     34  8.0    0.000    0.000    4.057    4.059
 cp_fm_diag_elpa_base                34  9.0    3.955    3.958    4.057    4.058
 gspace_mixing                       32  6.0    0.037    0.044    3.607    3.608
 mp_sendrecv_zm3                  29388  9.0    2.961    3.591    2.961    3.591
 potential_pw2rs                     34 10.9    0.004    0.004    2.757    2.764
 xc_functional_eval                  34 11.9    0.000    0.000    2.245    2.725
 pbe_lda_eval                        34 12.9    2.245    2.725    2.245    2.725
 broyden_mixing                      32  7.0    2.455    2.486    2.543    2.552
 mp_alltoall_z22v                   612 15.4    1.993    2.547    1.993    2.547
 -------------------------------------------------------------------------------

 The number of warnings for this run is : 1
 
 -------------------------------------------------------------------------------
  **** **** ******  **  PROGRAM ENDED AT                 2024-11-01 23:01:43.265
 ***** ** ***  *** **   PROGRAM RAN ON                                   c53-012
 **    ****   ******    PROGRAM RAN BY                                     jxzhu
 ***** **    ** ** **   PROGRAM PROCESS ID                                262071
  **** **  *******  **  PROGRAM STOPPED IN /data/jxzhu/nnp/dp_workdir/d1f764b96e
                                           9a01b62c3e35b0c4f5198f3ba3ed59/calc.0
                                           00/task.002.000004
