 DBCSR| CPU Multiplication driver                                           XSMM
 DBCSR| Multrec recursion limit                                              512
 DBCSR| Multiplication stack size                                           1000
 DBCSR| Maximum elements for images                                    UNLIMITED
 DBCSR| Multiplicative factor virtual images                                   1
 DBCSR| Use multiplication densification                                       T
 DBCSR| Multiplication size stacks                                             3
 DBCSR| Use memory pool for CPU allocation                                     F
 DBCSR| Number of 3D layers                                               SINGLE
 DBCSR| Use MPI memory allocation                                              F
 DBCSR| Use RMA algorithm                                                      F
 DBCSR| Use Communication thread                                               T
 DBCSR| Communication thread load                                             87
 DBCSR| MPI: My node id                                                        0
 DBCSR| MPI: Number of nodes                                                  32
 DBCSR| OMP: Current number of threads                                         1
 DBCSR| OMP: Max number of threads                                             1
 DBCSR| Split modifier for TAS multiplication algorithm                  1.0E+00


  **** **** ******  **  PROGRAM STARTED AT               2023-12-02 19:56:27.293
 ***** ** ***  *** **   PROGRAM STARTED ON                                 cu087
 **    ****   ******    PROGRAM STARTED BY                                 jxzhu
 ***** **    ** ** **   PROGRAM PROCESS ID                                 50944
  **** **  *******  **  PROGRAM STARTED IN /public/home/jxzhu/tmp_calc/0a3cf48f3
                                           e4bfd23fd4415c30d90d8b4c0a87311/calc/
                                           ref.002

 CP2K| version string:                                       CP2K version 2022.1
 CP2K| source code revision number:                                  git:2caeb6f
 CP2K| cp2kflags: omp libint fftw3 libxc elpa parallel mpi3 scalapack cosma xsmm
 CP2K|             plumed2 spglib mkl sirius libvori libbqb
 CP2K| is freely available from                            https://www.cp2k.org/
 CP2K| Program compiled at                           Mon Jul 3 17:37:06 CST 2023
 CP2K| Program compiled on                                                 mu003
 CP2K| Program compiled for                                                local
 CP2K| Data directory path                             /public/home/jxzhu/basis/
 CP2K| Input file name                                                 input.inp
 
 GLOBAL| Force Environment number                                              1
 GLOBAL| Basis set file name                                        BASIS_MOLOPT
 GLOBAL| Potential file name                                      GTH_POTENTIALS
 GLOBAL| MM Potential file name                                     MM_POTENTIAL
 GLOBAL| Coordinate file name                                          coord.xyz
 GLOBAL| Method name                                                        CP2K
 GLOBAL| Project name                                                       cp2k
 GLOBAL| Run type                                                   ENERGY_FORCE
 GLOBAL| FFT library                                                       FFTW3
 GLOBAL| Diagonalization library                                            ELPA
 GLOBAL| Minimum number of eigenvectors for ELPA usage                        16
 GLOBAL| Orthonormality check for eigenvectors                          DISABLED
 GLOBAL| Matrix multiplication library                                     COSMA
 GLOBAL| All-to-all communication in single precision                          F
 GLOBAL| FFTs using library dependent lengths                                  T
 GLOBAL| Grid backend                                                       AUTO
 GLOBAL| Global print level                                               MEDIUM
 GLOBAL| MPI I/O enabled                                                       T
 GLOBAL| Total number of message passing processes                            32
 GLOBAL| Number of threads for this process                                    1
 GLOBAL| This output is from process                                           0
 GLOBAL| Stack size for threads created by OpenMP (OMP_STACKSIZE)        default
 GLOBAL| CPU model name                 Intel(R) Xeon(R) Gold 6338 CPU @ 2.00GHz
 GLOBAL| CPUID                                                              1003

 MEMORY| system memory details [Kb]
 MEMORY|                        rank 0           min           max       average
 MEMORY| MemTotal            263619172     263619172     263619172     263619172
 MEMORY| MemFree             221391720     221391720     221391720     221391720
 MEMORY| Buffers                  3320          3320          3320          3320
 MEMORY| Cached                2762484       2762484       2762484       2762484
 MEMORY| Slab                  1507904       1507904       1507904       1507904
 MEMORY| SReclaimable           220916        220916        220916        220916
 MEMORY| MemLikelyFree       224378440     224378440     224378440     224378440


 *** Fundamental physical constants (SI units) ***

 *** Literature: B. J. Mohr and B. N. Taylor,
 ***             CODATA recommended values of the fundamental physical
 ***             constants: 2006, Web Version 5.1
 ***             http://physics.nist.gov/constants

 Speed of light in vacuum [m/s]                             2.99792458000000E+08
 Magnetic constant or permeability of vacuum [N/A**2]       1.25663706143592E-06
 Electric constant or permittivity of vacuum [F/m]          8.85418781762039E-12
 Planck constant (h) [J*s]                                  6.62606896000000E-34
 Planck constant (h-bar) [J*s]                              1.05457162825177E-34
 Elementary charge [C]                                      1.60217648700000E-19
 Electron mass [kg]                                         9.10938215000000E-31
 Electron g factor [ ]                                     -2.00231930436220E+00
 Proton mass [kg]                                           1.67262163700000E-27
 Fine-structure constant                                    7.29735253760000E-03
 Rydberg constant [1/m]                                     1.09737315685270E+07
 Avogadro constant [1/mol]                                  6.02214179000000E+23
 Boltzmann constant [J/K]                                   1.38065040000000E-23
 Atomic mass unit [kg]                                      1.66053878200000E-27
 Bohr radius [m]                                            5.29177208590000E-11

 *** Conversion factors ***

 [u] -> [a.u.]                                              1.82288848426455E+03
 [Angstrom] -> [Bohr] = [a.u.]                              1.88972613288564E+00
 [a.u.] = [Bohr] -> [Angstrom]                              5.29177208590000E-01
 [a.u.] -> [s]                                              2.41888432650478E-17
 [a.u.] -> [fs]                                             2.41888432650478E-02
 [a.u.] -> [J]                                              4.35974393937059E-18
 [a.u.] -> [N]                                              8.23872205491840E-08
 [a.u.] -> [K]                                              3.15774647902944E+05
 [a.u.] -> [kJ/mol]                                         2.62549961709828E+03
 [a.u.] -> [kcal/mol]                                       6.27509468713739E+02
 [a.u.] -> [Pa]                                             2.94210107994716E+13
 [a.u.] -> [bar]                                            2.94210107994716E+08
 [a.u.] -> [atm]                                            2.90362800883016E+08
 [a.u.] -> [eV]                                             2.72113838565563E+01
 [a.u.] -> [Hz]                                             6.57968392072181E+15
 [a.u.] -> [1/cm] (wave numbers)                            2.19474631370540E+05
 [a.u./Bohr**2] -> [1/cm]                                   5.14048714338585E+03
 

 CELL_TOP| Volume [angstrom^3]:                                     12686.086737
 CELL_TOP| Vector a [angstrom    16.869     0.000     0.000   |a| =    16.869000
 CELL_TOP| Vector b [angstrom    -8.434    14.609     0.000   |b| =    16.868929
 CELL_TOP| Vector c [angstrom     0.000     0.000    51.478   |c| =    51.477900
 CELL_TOP| Angle (b,c), alpha [degree]:                                90.000000
 CELL_TOP| Angle (a,c), beta  [degree]:                                90.000000
 CELL_TOP| Angle (a,b), gamma [degree]:                               120.000140
 CELL_TOP| Numerically orthorhombic:                                          NO
 
 GENERATE|  Preliminary Number of Bonds generated:                             0
 GENERATE|  Achieved consistency in connectivity generation.

 CELL| Volume [angstrom^3]:                                         12686.086737
 CELL| Vector a [angstrom]:      16.869     0.000     0.000   |a| =    16.869000
 CELL| Vector b [angstrom]:      -8.434    14.609     0.000   |b| =    16.868929
 CELL| Vector c [angstrom]:       0.000     0.000    51.478   |c| =    51.477900
 CELL| Angle (b,c), alpha [degree]:                                    90.000000
 CELL| Angle (a,c), beta  [degree]:                                    90.000000
 CELL| Angle (a,b), gamma [degree]:                                   120.000140
 CELL| Numerically orthorhombic:                                              NO

 CELL_REF| Volume [angstrom^3]:                                     12686.086737
 CELL_REF| Vector a [angstrom    16.869     0.000     0.000   |a| =    16.869000
 CELL_REF| Vector b [angstrom    -8.434    14.609     0.000   |b| =    16.868929
 CELL_REF| Vector c [angstrom     0.000     0.000    51.478   |c| =    51.477900
 CELL_REF| Angle (b,c), alpha [degree]:                                90.000000
 CELL_REF| Angle (a,c), beta  [degree]:                                90.000000
 CELL_REF| Angle (a,b), gamma [degree]:                               120.000140
 CELL_REF| Numerically orthorhombic:                                          NO

 *******************************************************************************
 *******************************************************************************
 **                                                                           **
 **     #####                         ##              ##                      **
 **    ##   ##            ##          ##              ##                      **
 **   ##     ##                       ##            ######                    **
 **   ##     ##  ##   ##  ##   #####  ##  ##   ####   ##    #####    #####    **
 **   ##     ##  ##   ##  ##  ##      ## ##   ##      ##   ##   ##  ##   ##   **
 **   ##  ## ##  ##   ##  ##  ##      ####     ###    ##   ######   ######    **
 **    ##  ###   ##   ##  ##  ##      ## ##      ##   ##   ##       ##        **
 **     #######   #####   ##   #####  ##  ##  ####    ##    #####   ##        **
 **           ##                                                    ##        **
 **                                                                           **
 **                                                ... make the atoms dance   **
 **                                                                           **
 **            Copyright (C) by CP2K developers group (2000-2022)             **
 **                      J. Chem. Phys. 152, 194103 (2020)                    **
 **                                                                           **
 *******************************************************************************

 DFT| Spin restricted Kohn-Sham (RKS) calculation                            RKS
 DFT| Multiplicity                                                             1
 DFT| Number of spin states                                                    1
 DFT| Charge                                                                   0
 DFT| Self-interaction correction (SIC)                                       NO
 DFT| Cutoffs: density                                              1.000000E-10
 DFT|          gradient                                             1.000000E-10
 DFT|          tau                                                  1.000000E-10
 DFT|          cutoff_smoothing_range                               0.000000E+00
 DFT| XC density smoothing                                                  NONE
 DFT| XC derivatives                                                          PW

 FUNCTIONAL| PBE:
 FUNCTIONAL| J.P.Perdew, K.Burke, M.Ernzerhof, Phys. Rev. Letter, vol. 77, n 18,
 FUNCTIONAL|  pp. 3865-3868, (1996){spin unpolarized}                           

 vdW POTENTIAL|                                                   Pair Potential
 vdW POTENTIAL|          DFT-D3 (Version 3.1)
 vdW POTENTIAL|          Potential Form: S. Grimme et al, JCP 132: 154104 (2010)
 vdW POTENTIAL|          Zero Damping
 vdW POTENTIAL|          Cutoff Radius [Bohr]:                             20.00
 vdW POTENTIAL|          s6 Scaling Factor:                               1.0000
 vdW POTENTIAL|          sr6 Scaling Factor:                              1.2170
 vdW POTENTIAL|          s8 Scaling Factor:                               0.7220
 vdW POTENTIAL|          Cutoff for CN calculation:                   0.1000E-05

 QS| Method:                                                                 GPW
 QS| Density plane wave grid type                        NON-SPHERICAL FULLSPACE
 QS| Number of grid levels:                                                    4
 QS| Density cutoff [a.u.]:                                                200.0
 QS| Multi grid cutoff [a.u.]: 1) grid level                               200.0
 QS|                           2) grid level                                66.7
 QS|                           3) grid level                                22.2
 QS|                           4) grid level                                 7.4
 QS| Grid level progression factor:                                          3.0
 QS| Relative density cutoff [a.u.]:                                        20.0
 QS| Interaction thresholds: eps_pgf_orb:                                3.2E-07
 QS|                         eps_filter_matrix:                          0.0E+00
 QS|                         eps_core_charge:                            1.0E-15
 QS|                         eps_rho_gspace:                             1.0E-13
 QS|                         eps_rho_rspace:                             1.0E-13
 QS|                         eps_gvg_rspace:                             3.2E-07
 QS|                         eps_ppl:                                    1.0E-02
 QS|                         eps_ppnl:                                   3.2E-09


 ATOMIC KIND INFORMATION

  1. Atomic kind: Pt                                    Number of atoms:     216

     Orbital Basis Set                      DZVP-A5-Q10-323-MOL-T1-DERIVED_SET-1

       Number of orbital shell sets:                                           1
       Number of orbital shells:                                               6
       Number of primitive Cartesian functions:                                5
       Number of Cartesian basis functions:                                   23
       Number of spherical basis functions:                                   20
       Norm type:                                                              2

       Normalised Cartesian orbitals:

                        Set   Shell   Orbital            Exponent    Coefficient

                          1       1    2s                2.521825       0.177473
                                                         1.453920      -0.063399
                                                         0.614053      -0.407089
                                                         0.232656       0.262254
                                                         0.074788       0.047371

                          1       2    3s                2.521825      -0.049056
                                                         1.453920       0.044904
                                                         0.614053      -0.009756
                                                         0.232656      -0.144709
                                                         0.074788       0.144085

                          1       3    3px               2.521825      -0.317572
                                                         1.453920       0.534826
                                                         0.614053      -0.489458
                                                         0.232656       0.245631
                                                         0.074788       0.018221
                          1       3    3py               2.521825      -0.317572
                                                         1.453920       0.534826
                                                         0.614053      -0.489458
                                                         0.232656       0.245631
                                                         0.074788       0.018221
                          1       3    3pz               2.521825      -0.317572
                                                         1.453920       0.534826
                                                         0.614053      -0.489458
                                                         0.232656       0.245631
                                                         0.074788       0.018221

                          1       4    4dx2              2.521825       3.008522
                                                         1.453920      -1.224251
                                                         0.614053       0.225691
                                                         0.232656       0.125144
                                                         0.074788      -0.015348
                          1       4    4dxy              2.521825       5.210912
                                                         1.453920      -2.120465
                                                         0.614053       0.390909
                                                         0.232656       0.216756
                                                         0.074788      -0.026584
                          1       4    4dxz              2.521825       5.210912
                                                         1.453920      -2.120465
                                                         0.614053       0.390909
                                                         0.232656       0.216756
                                                         0.074788      -0.026584
                          1       4    4dy2              2.521825       3.008522
                                                         1.453920      -1.224251
                                                         0.614053       0.225691
                                                         0.232656       0.125144
                                                         0.074788      -0.015348
                          1       4    4dyz              2.521825       5.210912
                                                         1.453920      -2.120465
                                                         0.614053       0.390909
                                                         0.232656       0.216756
                                                         0.074788      -0.026584
                          1       4    4dz2              2.521825       3.008522
                                                         1.453920      -1.224251
                                                         0.614053       0.225691
                                                         0.232656       0.125144
                                                         0.074788      -0.015348

                          1       5    5dx2              2.521825       0.698026
                                                         1.453920      -1.511486
                                                         0.614053      -0.335394
                                                         0.232656      -0.025564
                                                         0.074788      -0.002699
                          1       5    5dxy              2.521825       1.209017
                                                         1.453920      -2.617970
                                                         0.614053      -0.580920
                                                         0.232656      -0.044277
                                                         0.074788      -0.004674
                          1       5    5dxz              2.521825       1.209017
                                                         1.453920      -2.617970
                                                         0.614053      -0.580920
                                                         0.232656      -0.044277
                                                         0.074788      -0.004674
                          1       5    5dy2              2.521825       0.698026
                                                         1.453920      -1.511486
                                                         0.614053      -0.335394
                                                         0.232656      -0.025564
                                                         0.074788      -0.002699
                          1       5    5dyz              2.521825       1.209017
                                                         1.453920      -2.617970
                                                         0.614053      -0.580920
                                                         0.232656      -0.044277
                                                         0.074788      -0.004674
                          1       5    5dz2              2.521825       0.698026
                                                         1.453920      -1.511486
                                                         0.614053      -0.335394
                                                         0.232656      -0.025564
                                                         0.074788      -0.002699

                          1       6    6dx2              2.521825       0.831079
                                                         1.453920      -0.709226
                                                         0.614053      -0.137351
                                                         0.232656       0.068642
                                                         0.074788       0.011745
                          1       6    6dxy              2.521825       1.439472
                                                         1.453920      -1.228415
                                                         0.614053      -0.237899
                                                         0.232656       0.118891
                                                         0.074788       0.020343
                          1       6    6dxz              2.521825       1.439472
                                                         1.453920      -1.228415
                                                         0.614053      -0.237899
                                                         0.232656       0.118891
                                                         0.074788       0.020343
                          1       6    6dy2              2.521825       0.831079
                                                         1.453920      -0.709226
                                                         0.614053      -0.137351
                                                         0.232656       0.068642
                                                         0.074788       0.011745
                          1       6    6dyz              2.521825       1.439472
                                                         1.453920      -1.228415
                                                         0.614053      -0.237899
                                                         0.232656       0.118891
                                                         0.074788       0.020343
                          1       6    6dz2              2.521825       0.831079
                                                         1.453920      -0.709226
                                                         0.614053      -0.137351
                                                         0.232656       0.068642
                                                         0.074788       0.011745

       Atomic covalent radius [Angstrom]:                                  1.300

       Atomic van der Waals radius [Angstrom]:                             1.750

     GTH Potential information for                                   GTH-PBE-q10

       Description:                       Goedecker-Teter-Hutter pseudopotential
                                           Goedecker et al., PRB 54, 1703 (1996)
                                          Hartwigsen et al., PRB 58, 3641 (1998)
                                                      Krack, TCA 114, 145 (2005)

       Gaussian exponent of the core charge distribution:               1.317676
       Electronic configuration (s p d ...):                           1   0   9

       Parameters of the local part of the GTH pseudopotential:

                          rloc        C1          C2          C3          C4
                        0.616000   11.313635

       Parameters of the non-local part of the GTH pseudopotential:

                   l      r(l)      h(i,j,l)

                   0    0.550904    4.733491   -1.784594
                                   -1.784594    2.303901
                   1    0.674138    2.534798   -1.778066
                                   -1.778066    2.103836
                   2    0.457392   -7.264011    2.558665
                                    2.558665   -2.901253


 MOLECULE KIND INFORMATION


 All atoms are their own molecule, skipping detailed information


 TOTAL NUMBERS AND MAXIMUM NUMBERS

  Total number of            - Atomic kinds:                                   1
                             - Atoms:                                        216
                             - Shell sets:                                   216
                             - Shells:                                      1296
                             - Primitive Cartesian functions:               1080
                             - Cartesian basis functions:                   4968
                             - Spherical basis functions:                   4320

  Maximum angular momentum of- Orbital basis functions:                        2
                             - Local part of the GTH pseudopotential:          0
                             - Non-local part of the GTH pseudopotential:      4


 MODULE QUICKSTEP:  ATOMIC COORDINATES IN angstrom

 Atom  Kind  Element       X           Y           Z          Z(eff)       Mass
    1   1 Pt  78       1.405746    0.811608   20.000000      10.0000    195.0840
    2   1 Pt  78       4.217238    0.811608   20.000000      10.0000    195.0840
    3   1 Pt  78       7.028730    0.811608   20.000000      10.0000    195.0840
    4   1 Pt  78       9.840222    0.811608   20.000000      10.0000    195.0840
    5   1 Pt  78      12.651714    0.811608   20.000000      10.0000    195.0840
    6   1 Pt  78      15.463206    0.811608   20.000000      10.0000    195.0840
    7   1 Pt  78       2.811492    3.246431   20.000000      10.0000    195.0840
    8   1 Pt  78       5.622984    3.246431   20.000000      10.0000    195.0840
    9   1 Pt  78       8.434476    3.246431   20.000000      10.0000    195.0840
   10   1 Pt  78      11.245968    3.246431   20.000000      10.0000    195.0840
   11   1 Pt  78      14.057460    3.246431   20.000000      10.0000    195.0840
   12   1 Pt  78      16.868952    3.246431   20.000000      10.0000    195.0840
   13   1 Pt  78       4.217238    5.681255   20.000000      10.0000    195.0840
   14   1 Pt  78       7.028730    5.681255   20.000000      10.0000    195.0840
   15   1 Pt  78       9.840222    5.681255   20.000000      10.0000    195.0840
   16   1 Pt  78      12.651714    5.681255   20.000000      10.0000    195.0840
   17   1 Pt  78      15.463206    5.681255   20.000000      10.0000    195.0840
   18   1 Pt  78      18.274697    5.681255   20.000000      10.0000    195.0840
   19   1 Pt  78       5.622984    8.116078   20.000000      10.0000    195.0840
   20   1 Pt  78       8.434476    8.116078   20.000000      10.0000    195.0840
   21   1 Pt  78      11.245968    8.116078   20.000000      10.0000    195.0840
   22   1 Pt  78      14.057460    8.116078   20.000000      10.0000    195.0840
   23   1 Pt  78      16.868952    8.116078   20.000000      10.0000    195.0840
   24   1 Pt  78      19.680443    8.116078   20.000000      10.0000    195.0840
   25   1 Pt  78       7.028730   10.550902   20.000000      10.0000    195.0840
   26   1 Pt  78       9.840222   10.550902   20.000000      10.0000    195.0840
   27   1 Pt  78      12.651714   10.550902   20.000000      10.0000    195.0840
   28   1 Pt  78      15.463206   10.550902   20.000000      10.0000    195.0840
   29   1 Pt  78      18.274697   10.550902   20.000000      10.0000    195.0840
   30   1 Pt  78      21.086189   10.550902   20.000000      10.0000    195.0840
   31   1 Pt  78       8.434476   12.985725   20.000000      10.0000    195.0840
   32   1 Pt  78      11.245968   12.985725   20.000000      10.0000    195.0840
   33   1 Pt  78      14.057460   12.985725   20.000000      10.0000    195.0840
   34   1 Pt  78      16.868952   12.985725   20.000000      10.0000    195.0840
   35   1 Pt  78      19.680443   12.985725   20.000000      10.0000    195.0840
   36   1 Pt  78      22.491935   12.985725   20.000000      10.0000    195.0840
   37   1 Pt  78       0.000000    1.623216   22.295574      10.0000    195.0840
   38   1 Pt  78       2.811492    1.623216   22.295574      10.0000    195.0840
   39   1 Pt  78       5.622984    1.623216   22.295574      10.0000    195.0840
   40   1 Pt  78       8.434476    1.623216   22.295574      10.0000    195.0840
   41   1 Pt  78      11.245968    1.623216   22.295574      10.0000    195.0840
   42   1 Pt  78      14.057460    1.623216   22.295574      10.0000    195.0840
   43   1 Pt  78       1.405746    4.058039   22.295574      10.0000    195.0840
   44   1 Pt  78       4.217238    4.058039   22.295574      10.0000    195.0840
   45   1 Pt  78       7.028730    4.058039   22.295574      10.0000    195.0840
   46   1 Pt  78       9.840222    4.058039   22.295574      10.0000    195.0840
   47   1 Pt  78      12.651714    4.058039   22.295574      10.0000    195.0840
   48   1 Pt  78      15.463206    4.058039   22.295574      10.0000    195.0840
   49   1 Pt  78       2.811492    6.492862   22.295574      10.0000    195.0840
   50   1 Pt  78       5.622984    6.492862   22.295574      10.0000    195.0840
   51   1 Pt  78       8.434476    6.492862   22.295574      10.0000    195.0840
   52   1 Pt  78      11.245968    6.492862   22.295574      10.0000    195.0840
   53   1 Pt  78      14.057460    6.492862   22.295574      10.0000    195.0840
   54   1 Pt  78      16.868952    6.492862   22.295574      10.0000    195.0840
   55   1 Pt  78       4.217238    8.927686   22.295574      10.0000    195.0840
   56   1 Pt  78       7.028730    8.927686   22.295574      10.0000    195.0840
   57   1 Pt  78       9.840222    8.927686   22.295574      10.0000    195.0840
   58   1 Pt  78      12.651714    8.927686   22.295574      10.0000    195.0840
   59   1 Pt  78      15.463206    8.927686   22.295574      10.0000    195.0840
   60   1 Pt  78      18.274697    8.927686   22.295574      10.0000    195.0840
   61   1 Pt  78       5.622984   11.362509   22.295574      10.0000    195.0840
   62   1 Pt  78       8.434476   11.362509   22.295574      10.0000    195.0840
   63   1 Pt  78      11.245968   11.362509   22.295574      10.0000    195.0840
   64   1 Pt  78      14.057460   11.362509   22.295574      10.0000    195.0840
   65   1 Pt  78      16.868952   11.362509   22.295574      10.0000    195.0840
   66   1 Pt  78      19.680443   11.362509   22.295574      10.0000    195.0840
   67   1 Pt  78       7.028730   13.797333   22.295574      10.0000    195.0840
   68   1 Pt  78       9.840222   13.797333   22.295574      10.0000    195.0840
   69   1 Pt  78      12.651714   13.797333   22.295574      10.0000    195.0840
   70   1 Pt  78      15.463206   13.797333   22.295574      10.0000    195.0840
   71   1 Pt  78      18.274697   13.797333   22.295574      10.0000    195.0840
   72   1 Pt  78      21.086189   13.797333   22.295574      10.0000    195.0840
   73   1 Pt  78       0.000000    0.000000   24.591147      10.0000    195.0840
   74   1 Pt  78       2.811492    0.000000   24.591147      10.0000    195.0840
   75   1 Pt  78       5.622984    0.000000   24.591147      10.0000    195.0840
   76   1 Pt  78       8.434476    0.000000   24.591147      10.0000    195.0840
   77   1 Pt  78      11.245968    0.000000   24.591147      10.0000    195.0840
   78   1 Pt  78      14.057460    0.000000   24.591147      10.0000    195.0840
   79   1 Pt  78       1.405746    2.434823   24.591147      10.0000    195.0840
   80   1 Pt  78       4.217238    2.434823   24.591147      10.0000    195.0840
   81   1 Pt  78       7.028730    2.434823   24.591147      10.0000    195.0840
   82   1 Pt  78       9.840222    2.434823   24.591147      10.0000    195.0840
   83   1 Pt  78      12.651714    2.434823   24.591147      10.0000    195.0840
   84   1 Pt  78      15.463206    2.434823   24.591147      10.0000    195.0840
   85   1 Pt  78       2.811492    4.869647   24.591147      10.0000    195.0840
   86   1 Pt  78       5.622984    4.869647   24.591147      10.0000    195.0840
   87   1 Pt  78       8.434476    4.869647   24.591147      10.0000    195.0840
   88   1 Pt  78      11.245968    4.869647   24.591147      10.0000    195.0840
   89   1 Pt  78      14.057460    4.869647   24.591147      10.0000    195.0840
   90   1 Pt  78      16.868952    4.869647   24.591147      10.0000    195.0840
   91   1 Pt  78       4.217238    7.304470   24.591147      10.0000    195.0840
   92   1 Pt  78       7.028730    7.304470   24.591147      10.0000    195.0840
   93   1 Pt  78       9.840222    7.304470   24.591147      10.0000    195.0840
   94   1 Pt  78      12.651714    7.304470   24.591147      10.0000    195.0840
   95   1 Pt  78      15.463206    7.304470   24.591147      10.0000    195.0840
   96   1 Pt  78      18.274697    7.304470   24.591147      10.0000    195.0840
   97   1 Pt  78       5.622984    9.739294   24.591147      10.0000    195.0840
   98   1 Pt  78       8.434476    9.739294   24.591147      10.0000    195.0840
   99   1 Pt  78      11.245968    9.739294   24.591147      10.0000    195.0840
  100   1 Pt  78      14.057460    9.739294   24.591147      10.0000    195.0840
  101   1 Pt  78      16.868952    9.739294   24.591147      10.0000    195.0840
  102   1 Pt  78      19.680443    9.739294   24.591147      10.0000    195.0840
  103   1 Pt  78       7.028730   12.174117   24.591147      10.0000    195.0840
  104   1 Pt  78       9.840222   12.174117   24.591147      10.0000    195.0840
  105   1 Pt  78      12.651714   12.174117   24.591147      10.0000    195.0840
  106   1 Pt  78      15.463206   12.174117   24.591147      10.0000    195.0840
  107   1 Pt  78      18.274697   12.174117   24.591147      10.0000    195.0840
  108   1 Pt  78      21.086189   12.174117   24.591147      10.0000    195.0840
  109   1 Pt  78       1.405746    0.811608   26.886721      10.0000    195.0840
  110   1 Pt  78       4.217238    0.811608   26.886721      10.0000    195.0840
  111   1 Pt  78       7.028730    0.811608   26.886721      10.0000    195.0840
  112   1 Pt  78       9.840222    0.811608   26.886721      10.0000    195.0840
  113   1 Pt  78      12.651714    0.811608   26.886721      10.0000    195.0840
  114   1 Pt  78      15.463206    0.811608   26.886721      10.0000    195.0840
  115   1 Pt  78       2.811492    3.246431   26.886721      10.0000    195.0840
  116   1 Pt  78       5.622984    3.246431   26.886721      10.0000    195.0840
  117   1 Pt  78       8.434476    3.246431   26.886721      10.0000    195.0840
  118   1 Pt  78      11.245968    3.246431   26.886721      10.0000    195.0840
  119   1 Pt  78      14.057460    3.246431   26.886721      10.0000    195.0840
  120   1 Pt  78      16.868952    3.246431   26.886721      10.0000    195.0840
  121   1 Pt  78       4.217238    5.681255   26.886721      10.0000    195.0840
  122   1 Pt  78       7.028730    5.681255   26.886721      10.0000    195.0840
  123   1 Pt  78       9.840222    5.681255   26.886721      10.0000    195.0840
  124   1 Pt  78      12.651714    5.681255   26.886721      10.0000    195.0840
  125   1 Pt  78      15.463206    5.681255   26.886721      10.0000    195.0840
  126   1 Pt  78      18.274697    5.681255   26.886721      10.0000    195.0840
  127   1 Pt  78       5.622984    8.116078   26.886721      10.0000    195.0840
  128   1 Pt  78       8.434476    8.116078   26.886721      10.0000    195.0840
  129   1 Pt  78      11.245968    8.116078   26.886721      10.0000    195.0840
  130   1 Pt  78      14.057460    8.116078   26.886721      10.0000    195.0840
  131   1 Pt  78      16.868952    8.116078   26.886721      10.0000    195.0840
  132   1 Pt  78      19.680443    8.116078   26.886721      10.0000    195.0840
  133   1 Pt  78       7.028730   10.550902   26.886721      10.0000    195.0840
  134   1 Pt  78       9.840222   10.550902   26.886721      10.0000    195.0840
  135   1 Pt  78      12.651714   10.550902   26.886721      10.0000    195.0840
  136   1 Pt  78      15.463206   10.550902   26.886721      10.0000    195.0840
  137   1 Pt  78      18.274697   10.550902   26.886721      10.0000    195.0840
  138   1 Pt  78      21.086189   10.550902   26.886721      10.0000    195.0840
  139   1 Pt  78       8.434476   12.985725   26.886721      10.0000    195.0840
  140   1 Pt  78      11.245968   12.985725   26.886721      10.0000    195.0840
  141   1 Pt  78      14.057460   12.985725   26.886721      10.0000    195.0840
  142   1 Pt  78      16.868952   12.985725   26.886721      10.0000    195.0840
  143   1 Pt  78      19.680443   12.985725   26.886721      10.0000    195.0840
  144   1 Pt  78      22.491935   12.985725   26.886721      10.0000    195.0840
  145   1 Pt  78       0.000000    1.623216   29.182294      10.0000    195.0840
  146   1 Pt  78       2.811492    1.623216   29.182294      10.0000    195.0840
  147   1 Pt  78       5.622984    1.623216   29.182294      10.0000    195.0840
  148   1 Pt  78       8.434476    1.623216   29.182294      10.0000    195.0840
  149   1 Pt  78      11.245968    1.623216   29.182294      10.0000    195.0840
  150   1 Pt  78      14.057460    1.623216   29.182294      10.0000    195.0840
  151   1 Pt  78       1.405746    4.058039   29.182294      10.0000    195.0840
  152   1 Pt  78       4.217238    4.058039   29.182294      10.0000    195.0840
  153   1 Pt  78       7.028730    4.058039   29.182294      10.0000    195.0840
  154   1 Pt  78       9.840222    4.058039   29.182294      10.0000    195.0840
  155   1 Pt  78      12.651714    4.058039   29.182294      10.0000    195.0840
  156   1 Pt  78      15.463206    4.058039   29.182294      10.0000    195.0840
  157   1 Pt  78       2.811492    6.492862   29.182294      10.0000    195.0840
  158   1 Pt  78       5.622984    6.492862   29.182294      10.0000    195.0840
  159   1 Pt  78       8.434476    6.492862   29.182294      10.0000    195.0840
  160   1 Pt  78      11.245968    6.492862   29.182294      10.0000    195.0840
  161   1 Pt  78      14.057460    6.492862   29.182294      10.0000    195.0840
  162   1 Pt  78      16.868952    6.492862   29.182294      10.0000    195.0840
  163   1 Pt  78       4.217238    8.927686   29.182294      10.0000    195.0840
  164   1 Pt  78       7.028730    8.927686   29.182294      10.0000    195.0840
  165   1 Pt  78       9.840222    8.927686   29.182294      10.0000    195.0840
  166   1 Pt  78      12.651714    8.927686   29.182294      10.0000    195.0840
  167   1 Pt  78      15.463206    8.927686   29.182294      10.0000    195.0840
  168   1 Pt  78      18.274697    8.927686   29.182294      10.0000    195.0840
  169   1 Pt  78       5.622984   11.362509   29.182294      10.0000    195.0840
  170   1 Pt  78       8.434476   11.362509   29.182294      10.0000    195.0840
  171   1 Pt  78      11.245968   11.362509   29.182294      10.0000    195.0840
  172   1 Pt  78      14.057460   11.362509   29.182294      10.0000    195.0840
  173   1 Pt  78      16.868952   11.362509   29.182294      10.0000    195.0840
  174   1 Pt  78      19.680443   11.362509   29.182294      10.0000    195.0840
  175   1 Pt  78       7.028730   13.797333   29.182294      10.0000    195.0840
  176   1 Pt  78       9.840222   13.797333   29.182294      10.0000    195.0840
  177   1 Pt  78      12.651714   13.797333   29.182294      10.0000    195.0840
  178   1 Pt  78      15.463206   13.797333   29.182294      10.0000    195.0840
  179   1 Pt  78      18.274697   13.797333   29.182294      10.0000    195.0840
  180   1 Pt  78      21.086189   13.797333   29.182294      10.0000    195.0840
  181   1 Pt  78       0.000000    0.000000   31.477868      10.0000    195.0840
  182   1 Pt  78       2.811492    0.000000   31.477868      10.0000    195.0840
  183   1 Pt  78       5.622984    0.000000   31.477868      10.0000    195.0840
  184   1 Pt  78       8.434476    0.000000   31.477868      10.0000    195.0840
  185   1 Pt  78      11.245968    0.000000   31.477868      10.0000    195.0840
  186   1 Pt  78      14.057460    0.000000   31.477868      10.0000    195.0840
  187   1 Pt  78       1.405746    2.434823   31.477868      10.0000    195.0840
  188   1 Pt  78       4.217238    2.434823   31.477868      10.0000    195.0840
  189   1 Pt  78       7.028730    2.434823   31.477868      10.0000    195.0840
  190   1 Pt  78       9.840222    2.434823   31.477868      10.0000    195.0840
  191   1 Pt  78      12.651714    2.434823   31.477868      10.0000    195.0840
  192   1 Pt  78      15.463206    2.434823   31.477868      10.0000    195.0840
  193   1 Pt  78       2.811492    4.869647   31.477868      10.0000    195.0840
  194   1 Pt  78       5.622984    4.869647   31.477868      10.0000    195.0840
  195   1 Pt  78       8.434476    4.869647   31.477868      10.0000    195.0840
  196   1 Pt  78      11.245968    4.869647   31.477868      10.0000    195.0840
  197   1 Pt  78      14.057460    4.869647   31.477868      10.0000    195.0840
  198   1 Pt  78      16.868952    4.869647   31.477868      10.0000    195.0840
  199   1 Pt  78       4.217238    7.304470   31.477868      10.0000    195.0840
  200   1 Pt  78       7.028730    7.304470   31.477868      10.0000    195.0840
  201   1 Pt  78       9.840222    7.304470   31.477868      10.0000    195.0840
  202   1 Pt  78      12.651714    7.304470   31.477868      10.0000    195.0840
  203   1 Pt  78      15.463206    7.304470   31.477868      10.0000    195.0840
  204   1 Pt  78      18.274697    7.304470   31.477868      10.0000    195.0840
  205   1 Pt  78       5.622984    9.739294   31.477868      10.0000    195.0840
  206   1 Pt  78       8.434476    9.739294   31.477868      10.0000    195.0840
  207   1 Pt  78      11.245968    9.739294   31.477868      10.0000    195.0840
  208   1 Pt  78      14.057460    9.739294   31.477868      10.0000    195.0840
  209   1 Pt  78      16.868952    9.739294   31.477868      10.0000    195.0840
  210   1 Pt  78      19.680443    9.739294   31.477868      10.0000    195.0840
  211   1 Pt  78       7.028730   12.174117   31.477868      10.0000    195.0840
  212   1 Pt  78       9.840222   12.174117   31.477868      10.0000    195.0840
  213   1 Pt  78      12.651714   12.174117   31.477868      10.0000    195.0840
  214   1 Pt  78      15.463206   12.174117   31.477868      10.0000    195.0840
  215   1 Pt  78      18.274697   12.174117   31.477868      10.0000    195.0840
  216   1 Pt  78      21.086189   12.174117   31.477868      10.0000    195.0840




 SCF PARAMETERS         Density guess:                                   RESTART
                        --------------------------------------------------------
                        max_scf:                                             500
                        max_scf_history:                                       0
                        max_diis:                                              4
                        --------------------------------------------------------
                        eps_scf:                                        1.00E-06
                        eps_scf_history:                                0.00E+00
                        eps_diis:                                       1.00E-01
                        eps_eigval:                                     1.00E-05
                        --------------------------------------------------------
                        level_shift [a.u.]:                             0.000000
                        added MOs                                       500    0
                        --------------------------------------------------------
                        Mixing method:                            BROYDEN_MIXING
                                                charge density mixing in g-space
                        --------------------------------------------------------
                        Smear method:                                FERMI_DIRAC
                        Electronic temperature [K]:                        300.0
                        Electronic temperature [a.u.]:                  9.50E-04
                        Accuracy threshold:                             1.00E-10
                        --------------------------------------------------------
                        No outer SCF

 PW_GRID| Information for grid number                                          1
 PW_GRID| Grid distributed over                                    32 processors
 PW_GRID| Real space group dimensions                                    32    1
 PW_GRID| the grid is blocked:                                                NO
 PW_GRID| Cutoff [a.u.]                                                    200.0
 PW_GRID| spherical cutoff:                                                   NO
 PW_GRID|   Bounds   1           -105     104                Points:         210
 PW_GRID|   Bounds   2           -105     104                Points:         210
 PW_GRID|   Bounds   3           -315     314                Points:         630
 PW_GRID| Volume element (a.u.^3)  0.3081E-02     Volume (a.u.^3)     85609.9578
 PW_GRID| Grid span                                                    FULLSPACE
 PW_GRID|   Distribution                         Average         Max         Min
 PW_GRID|   G-Vectors                           868218.8      868350      868140
 PW_GRID|   G-Rays                                4134.4        4135        4134
 PW_GRID|   Real Space Points                   868218.8      926100      793800

 PW_GRID| Information for grid number                                          2
 PW_GRID| Number of the reference grid                                         1
 PW_GRID| Grid distributed over                                    32 processors
 PW_GRID| Real space group dimensions                                    32    1
 PW_GRID| the grid is blocked:                                                NO
 PW_GRID| Cutoff [a.u.]                                                     66.7
 PW_GRID| spherical cutoff:                                                   NO
 PW_GRID|   Bounds   1            -60      59                Points:         120
 PW_GRID|   Bounds   2            -60      59                Points:         120
 PW_GRID|   Bounds   3           -180     179                Points:         360
 PW_GRID| Volume element (a.u.^3)  0.1651E-01     Volume (a.u.^3)     85609.9578
 PW_GRID| Grid span                                                    FULLSPACE
 PW_GRID|   Distribution                         Average         Max         Min
 PW_GRID|   G-Vectors                           162000.0      162840      161280
 PW_GRID|   G-Rays                                1350.0        1357        1344
 PW_GRID|   Real Space Points                   162000.0      172800      129600

 PW_GRID| Information for grid number                                          3
 PW_GRID| Number of the reference grid                                         1
 PW_GRID| Grid distributed over                                    32 processors
 PW_GRID| Real space group dimensions                                    32    1
 PW_GRID| the grid is blocked:                                                NO
 PW_GRID| Cutoff [a.u.]                                                     22.2
 PW_GRID| spherical cutoff:                                                   NO
 PW_GRID|   Bounds   1            -35      34                Points:          70
 PW_GRID|   Bounds   2            -35      34                Points:          70
 PW_GRID|   Bounds   3           -105     104                Points:         210
 PW_GRID| Volume element (a.u.^3)  0.8320E-01     Volume (a.u.^3)     85609.9578
 PW_GRID| Grid span                                                    FULLSPACE
 PW_GRID|   Distribution                         Average         Max         Min
 PW_GRID|   G-Vectors                            32156.2       32340       31990
 PW_GRID|   G-Rays                                 459.4         462         457
 PW_GRID|   Real Space Points                    32156.2       44100       29400

 PW_GRID| Information for grid number                                          4
 PW_GRID| Number of the reference grid                                         1
 PW_GRID| Grid distributed over                                    32 processors
 PW_GRID| Real space group dimensions                                    32    1
 PW_GRID| the grid is blocked:                                                NO
 PW_GRID| Cutoff [a.u.]                                                      7.4
 PW_GRID| spherical cutoff:                                                   NO
 PW_GRID|   Bounds   1            -20      19                Points:          40
 PW_GRID|   Bounds   2            -20      19                Points:          40
 PW_GRID|   Bounds   3            -60      59                Points:         120
 PW_GRID| Volume element (a.u.^3)  0.4459         Volume (a.u.^3)     85609.9578
 PW_GRID| Grid span                                                    FULLSPACE
 PW_GRID|   Distribution                         Average         Max         Min
 PW_GRID|   G-Vectors                             6000.0        6120        5920
 PW_GRID|   G-Rays                                 150.0         153         148
 PW_GRID|   Real Space Points                     6000.0        9600        4800

 POISSON| Solver                                          IMPLICIT (GENERALIZED)
 POISSON| Boundary Condition                                PERIODIC & DIRICHLET
 POISSON| Maximum number of iterations                                        30
 POISSON| Convergence threshold                                         1.00E-08
 POISSON| Dielectric Constant                                              80.00
 POISSON| Relaxation parameter                                          1.00E+00

 RS_GRID| Information for grid number                                          1
 RS_GRID|   Bounds   1           -105     104                Points:         210
 RS_GRID|   Bounds   2           -105     104                Points:         210
 RS_GRID|   Bounds   3           -315     314                Points:         630
 RS_GRID| Real space distribution over                                 32 groups
 RS_GRID| Real space distribution along direction                              3
 RS_GRID| Border size                                                         54
 RS_GRID|   Distribution                         Average         Max         Min
 RS_GRID|   Planes                                 127.7         128         127

 RS_GRID| Information for grid number                                          2
 RS_GRID|   Bounds   1            -60      59                Points:         120
 RS_GRID|   Bounds   2            -60      59                Points:         120
 RS_GRID|   Bounds   3           -180     179                Points:         360
 RS_GRID| Real space distribution over                                 32 groups
 RS_GRID| Real space distribution along direction                              3
 RS_GRID| Border size                                                         36
 RS_GRID|   Distribution                         Average         Max         Min
 RS_GRID|   Planes                                  83.2          84          83

 RS_GRID| Information for grid number                                          3
 RS_GRID|   Bounds   1            -35      34                Points:          70
 RS_GRID|   Bounds   2            -35      34                Points:          70
 RS_GRID|   Bounds   3           -105     104                Points:         210
 RS_GRID| Real space fully replicated
 RS_GRID| Group size                                                           1

 RS_GRID| Information for grid number                                          4
 RS_GRID|   Bounds   1            -20      19                Points:          40
 RS_GRID|   Bounds   2            -20      19                Points:          40
 RS_GRID|   Bounds   3            -60      59                Points:         120
 RS_GRID| Real space fully replicated
 RS_GRID| Group size                                                           1

 Number of electrons:                                                       2160
 Number of occupied orbitals:                                               1080
 Number of molecular orbitals:                                              1580

 Number of orbital functions:                                               4320
 Number of independent orbital functions:                                   4320

 Extrapolation method: initial_guess

 *** WARNING in qs_initial_guess.F:310 :: User requested to restart the    ***
 *** wavefunction from the file named: cp2k-RESTART.wfn. This file does    ***
 *** not exist. Please check the existence of the file or change properly  ***
 *** the value of the keyword WFN_RESTART_FILE_NAME. Calculation continues ***
 *** using ATOMIC GUESS.                                                   ***


 Atomic guess: The first density matrix is obtained in terms of atomic orbitals
               and electronic configurations assigned to each atomic kind

 Guess for atomic kind: Pt

 Electronic structure
    Total number of core electrons                                         68.00
    Total number of valence electrons                                      10.00
    Total number of electrons                                              78.00
    Multiplicity                                                   not specified
    S   [  2.00  2.00  2.00  2.00  2.00] 1.00
    P   [  6.00  6.00  6.00  6.00]
    D   [ 10.00 10.00] 9.00
    F   [ 14.00]
 

 *******************************************************************************
                  Iteration          Convergence                     Energy [au]
 *******************************************************************************
                          1         2.31440                     -25.408827593796
                          2         1.51653                     -25.553485547781
                          3        0.756718E-01                 -25.848084769772
                          4        0.846688E-02                 -25.848827784449
                          5        0.789087E-04                 -25.848836001288
                          6        0.389389E-04                 -25.848836001863
                          7        0.125194E-06                 -25.848836002049

 Energy components [Hartree]           Total Energy ::          -25.848836002049
                                        Band Energy ::           -2.040347634070
                                     Kinetic Energy ::           20.020057968093
                                   Potential Energy ::          -45.868893970142
                                      Virial (-V/T) ::            2.291146910925
                                        Core Energy ::          -46.706460602493
                                          XC Energy ::           -4.268953034213
                                     Coulomb Energy ::           25.126577634658
                       Total Pseudopotential Energy ::          -66.819945130261
                       Local Pseudopotential Energy ::          -50.953816608059
                    Nonlocal Pseudopotential Energy ::          -15.866128522202
                                        Confinement ::            0.934265596747

 Orbital energies  State     L     Occupation   Energy[a.u.]          Energy[eV]

                       1     0          1.000      -0.180914           -4.922914
 
                       1     2          9.000      -0.206604           -5.621974
 

 Total Electron Density at R=0:                                         0.000036
 Re-scaling the density matrix to get the right number of electrons
                  # Electrons              Trace(P)               Scaling factor
                         2160              2160.000                        1.000


 SCF WAVEFUNCTION OPTIMIZATION

  Step     Update method      Time    Convergence         Total energy    Change
  ------------------------------------------------------------------------------

  POISSON| IMPLICIT (GENERALIZED) SOLVER ---------------------------------------
  POISSON| Preparing Dirichlet regions ...
  POISSON| Dirichlet region    1
  POISSON|     type : axis-aligned planar
  POISSON|     applied potential :   0.0000E+00  [Eh/e]
  POISSON| Dirichlet region    2
  POISSON|     type : axis-aligned planar
  POISSON|     applied potential :   0.3675E-01  [Eh/e]
  POISSON| ... Done. 
  ------------------------------------------------------------------------------

  POISSON|   iter        pres error      nabs error        E_hartree    delta E
  POISSON|      1        0.6650E-03      0.3239E-01    1917.3362477829  0.19E+04
  POISSON|      2        0.1423E-14      0.6650E-03    1917.3394113029  0.32E-02
  POISSON| Poisson solver converged in 2 iterations.
     1 NoMix/Diag. 0.30E+00    9.2     0.26091651     -5662.2449744248 -5.66E+03
  POISSON|   iter        pres error      nabs error        E_hartree    delta E
  POISSON|      1        0.9075E-03      0.3306E-01    1940.2122196481  0.23E+02
  POISSON|      2        0.1379E-14      0.9075E-03    1940.2165364191  0.43E-02
  POISSON| Poisson solver converged in 2 iterations.
     2 Broy./Diag. 0.30E+00   11.5     0.41082645     -5836.8569052821 -1.75E+02
  POISSON|   iter        pres error      nabs error        E_hartree    delta E
  POISSON|      1        0.4587E-03      0.1876E-02    1944.0063341257  0.38E+01
  POISSON|      2        0.9483E-17      0.4587E-03    1944.0041520689 -0.22E-02
  POISSON| Poisson solver converged in 2 iterations.
     3 Broy./Diag. 0.30E+00   11.5     0.46041067     -5784.3061959839  5.26E+01
  POISSON|   iter        pres error      nabs error        E_hartree    delta E
  POISSON|      1        0.2908E-03      0.1281E-02    1951.0947388208  0.71E+01
  POISSON|      2        0.2889E-16      0.2908E-03    1951.0961221925  0.14E-02
  POISSON| Poisson solver converged in 2 iterations.
     4 Broy./Diag. 0.30E+00   11.4     0.41385057     -5773.9624887484  1.03E+01
  POISSON|   iter        pres error      nabs error        E_hartree    delta E
  POISSON|      1        0.4868E-05      0.4244E-03    1978.8719897875  0.28E+02
  POISSON|      2        0.5062E-16      0.4868E-05    1978.8719666321 -0.23E-04
  POISSON| Poisson solver converged in 2 iterations.
     5 Broy./Diag. 0.30E+00   11.5     0.06694810     -5743.5816690109  3.04E+01
  POISSON|   iter        pres error      nabs error        E_hartree    delta E
  POISSON|      1        0.4859E-05      0.1949E-03    1987.8373577697  0.90E+01
  POISSON|      2        0.3587E-16      0.4859E-05    1987.8373346578 -0.23E-04
  POISSON| Poisson solver converged in 2 iterations.
     6 Broy./Diag. 0.30E+00   11.6     0.02567023     -5693.5062312315  5.01E+01
  POISSON|   iter        pres error      nabs error        E_hartree    delta E
  POISSON|      1        0.5276E-05      0.1408E-03    1990.6761301168  0.28E+01
  POISSON|      2        0.2671E-16      0.5276E-05    1990.6761050211 -0.25E-04
  POISSON| Poisson solver converged in 2 iterations.
     7 Broy./Diag. 0.30E+00   11.4     0.03296866     -5679.0800881323  1.44E+01
  POISSON|   iter        pres error      nabs error        E_hartree    delta E
  POISSON|      1        0.6630E-05      0.6303E-04    1991.7582172734  0.11E+01
  POISSON|      2        0.1432E-16      0.6630E-05    1991.7582488125  0.32E-04
  POISSON| Poisson solver converged in 2 iterations.
     8 Broy./Diag. 0.30E+00   11.5     0.02269099     -5674.3704808496  4.71E+00
  POISSON|   iter        pres error      nabs error        E_hartree    delta E
  POISSON|      1        0.8608E-06      0.3229E-04    1992.4737314738  0.72E+00
  POISSON|      2        0.9473E-17      0.8608E-06    1992.4737355685  0.41E-05
  POISSON| Poisson solver converged in 2 iterations.
     9 Broy./Diag. 0.30E+00   11.6     0.00735273     -5672.5827888739  1.79E+00
  POISSON|   iter        pres error      nabs error        E_hartree    delta E
  POISSON|      1        0.9768E-06      0.1445E-04    1992.5672872043  0.94E-01
  POISSON|      2        0.7984E-17      0.9768E-06    1992.5672825579 -0.46E-05
  POISSON| Poisson solver converged in 2 iterations.
    10 Broy./Diag. 0.30E+00   11.5     0.01042912     -5672.3163350293  2.66E-01
  POISSON|   iter        pres error      nabs error        E_hartree    delta E
  POISSON|      1        0.2630E-06      0.1442E-04    1992.5988167711  0.32E-01
  POISSON|      2        0.7960E-17      0.2630E-06    1992.5988180220  0.13E-05
  POISSON| Poisson solver converged in 2 iterations.
    11 Broy./Diag. 0.30E+00   11.5     0.00885125     -5672.3006311499  1.57E-02
  POISSON|   iter        pres error      nabs error        E_hartree    delta E
  POISSON|      1        0.6454E-06      0.9265E-05    1992.5941682534 -0.46E-02
  POISSON|      2        0.5490E-17      0.6454E-06    1992.5941713233  0.31E-05
  POISSON| Poisson solver converged in 2 iterations.
    12 Broy./Diag. 0.30E+00   11.6     0.00570957     -5672.4598114194 -1.59E-01
  POISSON|   iter        pres error      nabs error        E_hartree    delta E
  POISSON|      1        0.3511E-06      0.6865E-05    1992.5749713317 -0.19E-01
  POISSON|      2        0.5978E-17      0.3511E-06    1992.5749696614 -0.17E-05
  POISSON| Poisson solver converged in 2 iterations.
    13 Broy./Diag. 0.30E+00   11.5     0.00229349     -5672.6055016621 -1.46E-01
  POISSON|   iter        pres error      nabs error        E_hartree    delta E
  POISSON|      1        0.7652E-06      0.4918E-05    1992.5535542440 -0.21E-01
  POISSON|      2        0.3804E-18      0.7652E-06    1992.5535578841  0.36E-05
  POISSON| Poisson solver converged in 2 iterations.
    14 Broy./Diag. 0.30E+00   11.6     0.00246907     -5672.5629509964  4.26E-02
  POISSON|   iter        pres error      nabs error        E_hartree    delta E
  POISSON|      1        0.3938E-06      0.3277E-05    1992.5090038278 -0.45E-01
  POISSON|      2        0.3018E-17      0.3938E-06    1992.5090057011  0.19E-05
  POISSON| Poisson solver converged in 2 iterations.
    15 Broy./Diag. 0.30E+00   11.8     0.00103867     -5672.6496324873 -8.67E-02
  POISSON|   iter        pres error      nabs error        E_hartree    delta E
  POISSON|      1        0.2010E-06      0.1515E-05    1992.5315627483  0.23E-01
  POISSON|      2        0.6735E-17      0.2010E-06    1992.5315617920 -0.96E-06
  POISSON| Poisson solver converged in 2 iterations.
    16 Broy./Diag. 0.30E+00   11.4     0.00082292     -5672.6644163274 -1.48E-02
  POISSON|   iter        pres error      nabs error        E_hartree    delta E
  POISSON|      1        0.3361E-06      0.1385E-05    1992.5434696437  0.12E-01
  POISSON|      2        0.5756E-17      0.3361E-06    1992.5434712423  0.16E-05
  POISSON| Poisson solver converged in 2 iterations.
    17 Broy./Diag. 0.30E+00   11.6     0.00027151     -5672.6071894561  5.72E-02
  POISSON|   iter        pres error      nabs error        E_hartree    delta E
  POISSON|      1        0.4796E-07      0.8647E-06    1992.5546476674  0.11E-01
  POISSON|      2        0.3008E-17      0.4796E-07    1992.5546478956  0.23E-06
  POISSON| Poisson solver converged in 2 iterations.
    18 Broy./Diag. 0.30E+00   11.8     0.00032762     -5672.5762076207  3.10E-02
  POISSON|   iter        pres error      nabs error        E_hartree    delta E
  POISSON|      1        0.1072E-06      0.5072E-06    1992.5588831684  0.42E-02
  POISSON|      2        0.8017E-17      0.1072E-06    1992.5588836785  0.51E-06
  POISSON| Poisson solver converged in 2 iterations.
    19 Broy./Diag. 0.30E+00   11.5     0.00022670     -5672.5624607268  1.37E-02
  POISSON|   iter        pres error      nabs error        E_hartree    delta E
  POISSON|      1        0.1395E-06      0.5106E-06    1992.5596707546  0.79E-03
  POISSON|      2        0.2578E-17      0.1395E-06    1992.5596714183  0.66E-06
  POISSON| Poisson solver converged in 2 iterations.
    20 Broy./Diag. 0.30E+00   11.6     0.00015326     -5672.5578704930  4.59E-03
  POISSON|   iter        pres error      nabs error        E_hartree    delta E
  POISSON|      1        0.1764E-06      0.6628E-06    1992.5560910701 -0.36E-02
  POISSON|      2        0.6833E-17      0.1764E-06    1992.5560919094  0.84E-06
  POISSON| Poisson solver converged in 2 iterations.
    21 Broy./Diag. 0.30E+00   11.5     0.00003952     -5672.5625893690 -4.72E-03
  POISSON|   iter        pres error      nabs error        E_hartree    delta E
  POISSON|      1        0.1704E-06      0.6160E-06    1992.5540477570 -0.20E-02
  POISSON|      2        0.4322E-17      0.1704E-06    1992.5540485677  0.81E-06
  POISSON| Poisson solver converged in 2 iterations.
    22 Broy./Diag. 0.30E+00   11.6     0.00005303     -5672.5737959478 -1.12E-02
  POISSON|   iter        pres error      nabs error        E_hartree    delta E
  POISSON|      1        0.8344E-07      0.3117E-06    1992.5536555177 -0.39E-03
  POISSON|      2        0.3471E-17      0.8344E-07    1992.5536559147  0.40E-06
  POISSON| Poisson solver converged in 2 iterations.
    23 Broy./Diag. 0.30E+00   11.8     0.00004967     -5672.5790444353 -5.25E-03
  POISSON|   iter        pres error      nabs error        E_hartree    delta E
  POISSON|      1        0.1869E-06      0.7020E-06    1992.5539174876  0.26E-03
  POISSON|      2        0.8674E-17      0.1869E-06    1992.5539183767  0.89E-06
  POISSON| Poisson solver converged in 2 iterations.
    24 Broy./Diag. 0.30E+00   11.5     0.00003039     -5672.5799120673 -8.68E-04
  POISSON|   iter        pres error      nabs error        E_hartree    delta E
  POISSON|      1        0.1141E-06      0.4334E-06    1992.5546207615  0.70E-03
  POISSON|      2        0.3554E-17      0.1141E-06    1992.5546213044  0.54E-06
  POISSON| Poisson solver converged in 2 iterations.
    25 Broy./Diag. 0.30E+00   11.6     0.00002336     -5672.5794729520  4.39E-04
  POISSON|   iter        pres error      nabs error        E_hartree    delta E
  POISSON|      1        0.7768E-07      0.3034E-06    1992.5551210984  0.50E-03
  POISSON|      2        0.6891E-17      0.7768E-07    1992.5551214679  0.37E-06
  POISSON| Poisson solver converged in 2 iterations.
    26 Broy./Diag. 0.30E+00   11.5     0.00001580     -5672.5781130471  1.36E-03
  POISSON|   iter        pres error      nabs error        E_hartree    delta E
  POISSON|      1        0.7996E-07      0.2966E-06    1992.5552688390  0.15E-03
  POISSON|      2        0.3819E-18      0.7996E-07    1992.5552692194  0.38E-06
  POISSON| Poisson solver converged in 2 iterations.
    27 Broy./Diag. 0.30E+00   11.2     0.00002018     -5672.5772764603  8.37E-04
  POISSON|   iter        pres error      nabs error        E_hartree    delta E
  POISSON|      1        0.3980E-07      0.1822E-06    1992.5554826215  0.21E-03
  POISSON|      2        0.3334E-17      0.3980E-07    1992.5554828108  0.19E-06
  POISSON| Poisson solver converged in 2 iterations.
    28 Broy./Diag. 0.30E+00   11.3     0.00003189     -5672.5770865331  1.90E-04
  POISSON|   iter        pres error      nabs error        E_hartree    delta E
  POISSON|      1        0.1173E-06      0.4810E-06    1992.5556765183  0.19E-03
  POISSON|      2        0.3922E-17      0.1173E-06    1992.5556770764  0.56E-06
  POISSON| Poisson solver converged in 2 iterations.
    29 Broy./Diag. 0.30E+00   14.2     0.00002293     -5672.5766408246  4.46E-04
  POISSON|   iter        pres error      nabs error        E_hartree    delta E
  POISSON|      1        0.8085E-07      0.3322E-06    1992.5555238355 -0.15E-03
  POISSON|      2        0.6574E-17      0.8085E-07    1992.5555242201  0.38E-06
  POISSON| Poisson solver converged in 2 iterations.
    30 Broy./Diag. 0.30E+00   13.5     0.00001012     -5672.5762051921  4.36E-04
  POISSON|   iter        pres error      nabs error        E_hartree    delta E
  POISSON|      1        0.1004E-06      0.4536E-06    1992.5550860420 -0.44E-03
  POISSON|      2        0.1094E-17      0.1004E-06    1992.5550865194  0.48E-06
  POISSON| Poisson solver converged in 2 iterations.
    31 Broy./Diag. 0.30E+00   13.3     0.00000836     -5672.5769017330 -6.97E-04
  POISSON|   iter        pres error      nabs error        E_hartree    delta E
  POISSON|      1        0.3005E-07      0.1435E-06    1992.5548620210 -0.22E-03
  POISSON|      2        0.2916E-17      0.3005E-07    1992.5548621640  0.14E-06
  POISSON| Poisson solver converged in 2 iterations.
    32 Broy./Diag. 0.30E+00   12.9     0.00001054     -5672.5769863858 -8.47E-05
  POISSON|   iter        pres error      nabs error        E_hartree    delta E
  POISSON|      1        0.2703E-07      0.1337E-06    1992.5547064292 -0.16E-03
  POISSON|      2        0.1879E-17      0.2703E-07    1992.5547065578  0.13E-06
  POISSON| Poisson solver converged in 2 iterations.
    33 Broy./Diag. 0.30E+00   11.8     0.00001258     -5672.5772955516 -3.09E-04
  POISSON|   iter        pres error      nabs error        E_hartree    delta E
  POISSON|      1        0.2358E-07      0.1237E-06    1992.5545277796 -0.18E-03
  POISSON|      2        0.8018E-17      0.2358E-07    1992.5545278918  0.11E-06
  POISSON| Poisson solver converged in 2 iterations.
    34 Broy./Diag. 0.30E+00   11.5     0.00000693     -5672.5772760542  1.95E-05
  POISSON|   iter        pres error      nabs error        E_hartree    delta E
  POISSON|      1        0.3040E-07      0.1687E-06    1992.5543438136 -0.18E-03
  POISSON|      2        0.5385E-17      0.3040E-07    1992.5543439582  0.14E-06
  POISSON| Poisson solver converged in 2 iterations.
    35 Broy./Diag. 0.30E+00   11.5     0.00000651     -5672.5773148744 -3.88E-05
  POISSON|   iter        pres error      nabs error        E_hartree    delta E
  POISSON|      1        0.2780E-07      0.1474E-06    1992.5543033528 -0.41E-04
  POISSON|      2        0.9292E-18      0.2780E-07    1992.5543034851  0.13E-06
  POISSON| Poisson solver converged in 2 iterations.
    36 Broy./Diag. 0.30E+00   11.5     0.00000582     -5672.5770508130  2.64E-04
  POISSON|   iter        pres error      nabs error        E_hartree    delta E
  POISSON|      1        0.1433E-07      0.8778E-07    1992.5543722176  0.69E-04
  POISSON|      2        0.1414E-17      0.1433E-07    1992.5543722858  0.68E-07
  POISSON| Poisson solver converged in 2 iterations.
    37 Broy./Diag. 0.30E+00   11.5     0.00000606     -5672.5765405520  5.10E-04
  POISSON|   iter        pres error      nabs error        E_hartree    delta E
  POISSON|      1        0.1810E-07      0.9477E-07    1992.5542647919 -0.11E-03
  POISSON|      2        0.6473E-17      0.1810E-07    1992.5542648780  0.86E-07
  POISSON| Poisson solver converged in 2 iterations.
    38 Broy./Diag. 0.30E+00   11.9     0.00000727     -5672.5762523545  2.88E-04
  POISSON|   iter        pres error      nabs error        E_hartree    delta E
  POISSON|      1        0.1379E-07      0.7180E-07    1992.5542643136 -0.56E-06
  POISSON|      2        0.3219E-18      0.1379E-07    1992.5542643792  0.66E-07
  POISSON| Poisson solver converged in 2 iterations.
    39 Broy./Diag. 0.30E+00   11.5     0.00000537     -5672.5761035090  1.49E-04
  POISSON|   iter        pres error      nabs error        E_hartree    delta E
  POISSON|      1        0.2006E-08      0.1676E-07    1992.5542984380  0.34E-04
  POISSON| Poisson solver converged in 1 iteration. 
    40 Broy./Diag. 0.30E+00   10.5     0.00000317     -5672.5759595886  1.44E-04
  POISSON|   iter        pres error      nabs error        E_hartree    delta E
  POISSON|      1        0.6383E-08      0.3297E-07    1992.5542669106 -0.32E-04
  POISSON| Poisson solver converged in 1 iteration. 
    41 Broy./Diag. 0.30E+00   10.6     0.00000142     -5672.5759142092  4.54E-05
  POISSON|   iter        pres error      nabs error        E_hartree    delta E
  POISSON|      1        0.6218E-08      0.3051E-07    1992.5542378704 -0.29E-04
  POISSON| Poisson solver converged in 1 iteration. 
    42 Broy./Diag. 0.30E+00   10.6     0.00000209     -5672.5759562353 -4.20E-05
  POISSON|   iter        pres error      nabs error        E_hartree    delta E
  POISSON|      1        0.5345E-08      0.2950E-07    1992.5542089700 -0.29E-04
  POISSON| Poisson solver converged in 1 iteration. 
    43 Broy./Diag. 0.30E+00   10.3     0.00000245     -5672.5760060594 -4.98E-05
  POISSON|   iter        pres error      nabs error        E_hartree    delta E
  POISSON|      1        0.2849E-08      0.1219E-07    1992.5541905152 -0.18E-04
  POISSON| Poisson solver converged in 1 iteration. 
    44 Broy./Diag. 0.30E+00   10.5     0.00000171     -5672.5760445205 -3.85E-05
  POISSON|   iter        pres error      nabs error        E_hartree    delta E
  POISSON|      1        0.1687E-08      0.8137E-08    1992.5541807336 -0.98E-05
  POISSON| Poisson solver converged in 1 iteration. 
    45 Broy./Diag. 0.30E+00   10.5     0.00000122     -5672.5760715415 -2.70E-05
  POISSON|   iter        pres error      nabs error        E_hartree    delta E
  POISSON|      1        0.2750E-08      0.1333E-07    1992.5541748566 -0.59E-05
  POISSON| Poisson solver converged in 1 iteration. 
    46 Broy./Diag. 0.30E+00   10.6     0.00000114     -5672.5760889713 -1.74E-05
  POISSON|   iter        pres error      nabs error        E_hartree    delta E
  POISSON|      1        0.4117E-08      0.1882E-07    1992.5541881716  0.13E-04
  POISSON| Poisson solver converged in 1 iteration. 
    47 Broy./Diag. 0.30E+00   10.6     0.00000060     -5672.5760597930  2.92E-05

  *** SCF run converged in    47 steps ***


  Electronic density on regular grids:      -2159.9999999992        0.0000000008
  Core density on regular grids:             2159.9999999995       -0.0000000005
  Total charge density on r-space grids:        0.0000000003
  Total charge density g-space grids:           0.0000000003

  Overlap energy of the core charge distribution:               0.00002390529568
  Self energy of the core charge distribution:              -9891.63555570741482
  Core Hamiltonian energy:                                   3203.16726165066211
  Hartree energy:                                            1992.55418817161103
  Electric enthalpy:                                         1992.54719864320464
  Exchange-correlation energy:                               -971.86935582133344
  Dispersion energy:                                           -4.74800350157800
  Electronic entropic energy:                                  -0.03762892363468
  Fermi energy:                                                -0.22692931129955

  Total energy:                                             -5672.57605979295658

 The electron density is written in cube file format to the file:

 cp2k-ELECTRON_DENSITY-1_0.cube

 !-----------------------------------------------------------------------------!
                     Mulliken Population Analysis

 #  Atom  Element  Kind  Atomic population                           Net charge
       1     Pt       1         10.052025                             -0.052025
       2     Pt       1         10.052021                             -0.052021
       3     Pt       1         10.052022                             -0.052022
       4     Pt       1         10.052023                             -0.052023
       5     Pt       1         10.052021                             -0.052021
       6     Pt       1         10.052026                             -0.052026
       7     Pt       1         10.052026                             -0.052026
       8     Pt       1         10.052021                             -0.052021
       9     Pt       1         10.052023                             -0.052023
      10     Pt       1         10.052024                             -0.052024
      11     Pt       1         10.052022                             -0.052022
      12     Pt       1         10.052027                             -0.052027
      13     Pt       1         10.052021                             -0.052021
      14     Pt       1         10.052016                             -0.052016
      15     Pt       1         10.052018                             -0.052018
      16     Pt       1         10.052019                             -0.052019
      17     Pt       1         10.052016                             -0.052016
      18     Pt       1         10.052022                             -0.052022
      19     Pt       1         10.052022                             -0.052022
      20     Pt       1         10.052018                             -0.052018
      21     Pt       1         10.052019                             -0.052019
      22     Pt       1         10.052020                             -0.052020
      23     Pt       1         10.052017                             -0.052017
      24     Pt       1         10.052023                             -0.052023
      25     Pt       1         10.052029                             -0.052029
[...]
    188      1      Pt         -0.00000009     0.00000019     0.00457293
    189      1      Pt         -0.00000011     0.00000056     0.00457285
    190      1      Pt          0.00000065     0.00000075     0.00457264
    191      1      Pt         -0.00000016    -0.00000008     0.00457284
    192      1      Pt          0.00000431    -0.00000100     0.00457039
    193      1      Pt         -0.00000413     0.00000064     0.00457171
    194      1      Pt         -0.00000022    -0.00000030     0.00457294
    195      1      Pt         -0.00000016     0.00000009     0.00457286
    196      1      Pt         -0.00000038    -0.00000079     0.00457270
    197      1      Pt         -0.00000019    -0.00000051     0.00457285
    198      1      Pt          0.00000432    -0.00000144     0.00457031
    199      1      Pt         -0.00000365     0.00000140     0.00457209
    200      1      Pt          0.00000034     0.00000047     0.00457330
    201      1      Pt         -0.00000059    -0.00000020     0.00457327
    202      1      Pt          0.00000020     0.00000003     0.00457308
    203      1      Pt          0.00000042     0.00000029     0.00457312
    204      1      Pt          0.00000384    -0.00000176     0.00457063
    205      1      Pt         -0.00000330     0.00000249     0.00457163
    206      1      Pt         -0.00000029     0.00000050     0.00457290
    207      1      Pt         -0.00000021     0.00000094     0.00457282
    208      1      Pt          0.00000060     0.00000115     0.00457252
    209      1      Pt         -0.00000026     0.00000030     0.00457264
    210      1      Pt          0.00000411    -0.00000068     0.00457019
    211      1      Pt         -0.00000338    -0.00000256     0.00457212
    212      1      Pt          0.00000063    -0.00000343     0.00457334
    213      1      Pt          0.00000074    -0.00000301     0.00457317
    214      1      Pt          0.00000047    -0.00000392     0.00457293
    215      1      Pt          0.00000057    -0.00000370     0.00457307
    216      1      Pt          0.00000501    -0.00000466     0.00457063
 SUM OF ATOMIC FORCES           0.00000196    -0.00000117     0.00004176     0.00004182

 -------------------------------------------------------------------------------
 -                                                                             -
 -                                DBCSR STATISTICS                             -
 -                                                                             -
 -------------------------------------------------------------------------------
 COUNTER                                    TOTAL       BLAS       SMM       ACC
 flops    20 x    20 x   204         183588249600       0.0%    100.0%      0.0%
 flops    20 x    20 x   224         201587097600       0.0%    100.0%      0.0%
 flops    20 x    20 x   192        1036733644800       0.0%    100.0%      0.0%
 flops inhomo. stacks                           0       0.0%      0.0%      0.0%
 flops total                         1.421909E+12       0.0%    100.0%      0.0%
 flops max/rank                     45.625344E+09       0.0%    100.0%      0.0%
 matmuls inhomo. stacks                         0       0.0%      0.0%      0.0%
 matmuls total                            8999424       0.0%    100.0%      0.0%
 number of processed stacks                 12288       0.0%    100.0%      0.0%
 average stack size                                     0.0     732.4       0.0
 marketing flops                     2.046034E+12
 -------------------------------------------------------------------------------
 # multiplications                             48
 max memory usage/rank               1.781559E+09
 # max total images/rank                        2
 # max 3D layers                                1
 # MPI messages exchanged                   19968
 MPI messages size (bytes):
  total size                        26.210304E+09
  min size                         829.440000E+03
  max size                           1.935360E+06
  average size                       1.312615E+06
 MPI breakdown and total messages size (bytes):
             size <=      128                   0                        0
       128 < size <=     8192                   0                        0
      8192 < size <=    32768                   0                        0
     32768 < size <=   131072                   0                        0
    131072 < size <=  4194304               19968              26210304000
   4194304 < size <= 16777216                   0                        0
  16777216 < size                               0                        0
 -------------------------------------------------------------------------------

 *** WARNING in dbcsr_mm.F:290 :: Using a non-square number of MPI ranks ***
 *** might lead to poor performance. Used ranks: 32 Suggested: 36 64     ***

 -------------------------------------------------------------------------------
 -                                                                             -
 -                      DBCSR MESSAGE PASSING PERFORMANCE                      -
 -                                                                             -
 -------------------------------------------------------------------------------
 ROUTINE             CALLS      AVE VOLUME [Bytes]
 MP_Bcast                4                     12.
 MP_Allreduce          362                      9.
 MP_Alltoall          1344                1286330.
 MP_ISend             1536                 567540.
 MP_IRecv             1536                 550260.
 -------------------------------------------------------------------------------

 -------------------------------------------------------------------------------
 -                                                                             -
 -                                DBM STATISTICS                               -
 -                                                                             -
 -------------------------------------------------------------------------------
    M  x    N  x    K                                          COUNT     PERCENT
 -------------------------------------------------------------------------------

 -------------------------------------------------------------------------------
 -                                                                             -
 -                                GRID STATISTICS                              -
 -                                                                             -
 -------------------------------------------------------------------------------
 LP    KERNEL             BACKEND                              COUNT     PERCENT
 4     collocate general  REF                               16625088      49.96%
 4     integrate general  REF                               16278732      48.92%
 5     integrate general  REF                                 346356       1.04%
 0     collocate general  REF                                  13824       0.04%
 0     integrate general  REF                                   6912       0.02%
 1     integrate general  REF                                   6912       0.02%
 -------------------------------------------------------------------------------

 MEMORY| Estimated peak process memory [MiB]                                2095

 -------------------------------------------------------------------------------
 ----                             MULTIGRID INFO                            ----
 -------------------------------------------------------------------------------
 count for grid        1:          18036          cutoff [a.u.]          200.00
 count for grid        2:         178044          cutoff [a.u.]           66.67
 count for grid        3:         113556          cutoff [a.u.]           22.22
 count for grid        4:         156948          cutoff [a.u.]            7.41
 total gridlevel count  :         466584

 -------------------------------------------------------------------------------
 -                                                                             -
 -                         MESSAGE PASSING PERFORMANCE                         -
 -                                                                             -
 -------------------------------------------------------------------------------

 ROUTINE             CALLS      AVE VOLUME [Bytes]
 MP_Group                4
 MP_Bcast              147                1622629.
 MP_Allreduce         1421                   1772.
 MP_Sync                51
 MP_Alltoall          2531               49877757.
 MP_SendRecv           124                  14994.
 MP_ISendRecv         5952                 214800.
 MP_Wait             14472
 MP_ISend             7640                 717427.
 MP_IRecv             7640                 717427.
 MP_Recv               144                1105920.
 MP_Write_All            3                4213860.
 -------------------------------------------------------------------------------


 -------------------------------------------------------------------------------
 -                                                                             -
 -                           R E F E R E N C E S                               -
 -                                                                             -
 -------------------------------------------------------------------------------
 
 CP2K version 2022.1, the CP2K developers group (2022).
 CP2K is freely available from https://www.cp2k.org/ .

 Kuehne,Thomas D.; Iannuzzi,Marcella; Del Ben,Mauro;
 Rybkin,Vladimir V.; Seewald,Patrick; Stein,Frederick; Laino,Teodoro;
 Khaliullin,Rustam Z.; Schuett,Ole; Schiffmann,Florian; Golze,Dorothea;
 Wilhelm,Jan; Chulkov,Sergey; Bani-Hashemian,Mohammad Hossein;
 Weber,Valery; Borstnik,Urban; Taillefumier,Mathieu;
 Jakobovits,Alice Shoshana; Lazzaro,Alfio; Pabst,Hans; Mueller,Tiziano;
 Schade,Robert; Guidon,Manuel; Andermatt,Samuel; Holmberg,Nico;
 Schenter,Gregory K.; Hehn,Anna; Bussy,Augustin; Belleflamme,Fabian;
 Tabacchi,Gloria; Gloess,Andreas; Lass,Michael; Bethune,Iain;
 Mundy,Christopher J.; Plessl,Christian; Watkins,Matt;
 VandeVondele,Joost; Krack,Matthias; Hutter,Juerg. 
 The Journal of Chemical Physics, 152 (19), (2020). 
 CP2K: An electronic structure and molecular dynamics software package -
 Quickstep: Efficient and accurate electronic structure calculations.
 https://doi.org/10.1063/5.0007045

 Goerigk, Lars; Hansen, Andreas; Bauer, Christoph; Ehrlich, Stephan;
 Najibi, Asim; Grimme, Stefan. , 19 (48), (2017). 
 A look at the density functional theory zoo with the advanced GMTKN55 database
 for general main group thermochemistry, kinetics and noncovalent interactions.
 https://doi.org/10.1039/C7CP04913G

 Bani-Hashemian, MH; Bruck, S; Luisier, M; VandeVondele, J. 
 JOURNAL OF CHEMICAL PHYSICS, 144 (4), 044113 (2016). 
 A generalized Poisson solver for first-principles device simulations.
 https://doi.org/10.1063/1.4940796

 Schuett, Ole; Messmer, Peter; Hutter, Juerg; VandeVondele, Joost. 
 Electronic Structure Calculations on Graphics Processing Units, John
 Wiley & Sons, Ltd, 173-190 (2016). 
 GPU-Accelerated Sparse Matrix-Matrix Multiplication for
 Linear Scaling Density Functional Theory.
 https://doi.org/10.1002/9781118670712.ch8

 Heinecke, A; Henry, G; Hutchinson, M; Pabst, H. 
 Proceedings of Intl. Supercomputing Conference, 981-991 (2016). 
 LIBXSMM: Accelerating Small Matrix Multiplications
 by Runtime Code Generation.
 https://doi.org/10.1109/SC.2016.83

 Borstnik, U; VandeVondele, J; Weber, V; Hutter, J. 
 PARALLEL COMPUTING, 40 (5-6), 47-58 (2014). 
 Sparse matrix multiplication: The distributed block-compressed sparse
 row library.
 https://doi.org/10.1016/j.parco.2014.03.012

 Hutter, J; Iannuzzi, M; Schiffmann, F; VandeVondele, J. 
 WIREs Comput Mol Sci., 4 (1), 15-25 (2014). 
 CP2K: atomistic simulations of condensed matter systems.
 https://doi.org/10.1002/wcms.1159

 Marek, A; Blum, V; Johanni, R; Havu, V; Lang, B; Auckenthaler, T;
 Heinecke, A; Bungartz, H; Lederer, H. 
 Journal of Physics: Condensed Matter, 26 (21), (2014). 
 The ELPA library: scalable parallel eigenvalue solutions for
 electronic structure
 theory and computational science.
 https://doi.org/10.1088/0953-8984/26/21/213201

 Grimme, S; Ehrlich, S; Goerigk, L. 
 JOURNAL OF COMPUTATIONAL CHEMISTRY, 32, 1456 (2011). 
 Effect of the damping function in dispersion corrected density functional theory.
 https://doi.org/10.1002/jcc.21759

 Grimme, S; Antony, J; Ehrlich, S; Krieg, H. 
 JOURNAL OF CHEMICAL PHYSICS, 132 (15), 154104 (2010). 
 A consistent and accurate ab initio parametrization of density
 functional dispersion correction (DFT-D) for the 94 elements H-Pu.
 https://doi.org/10.1063/1.3382344

 VandeVondele, J; Hutter, J. 
 JOURNAL OF CHEMICAL PHYSICS, 127 (11), 114105 (2007). 
 Gaussian basis sets for accurate calculations on molecular systems in
 gas and condensed phases.
 https://doi.org/10.1063/1.2770708

 Krack, M. 
 THEORETICAL CHEMISTRY ACCOUNTS, 114 (1-3), 145-152 (2005). 
 Pseudopotentials for H to Kr optimized for gradient-corrected
 exchange-correlation functionals.
 https://doi.org/10.1007/s00214-005-0655-y

 VandeVondele, J; Krack, M; Mohamed, F; Parrinello, M; Chassaing, T;
 Hutter, J. COMPUTER PHYSICS COMMUNICATIONS, 167 (2), 103-128 (2005). 
 QUICKSTEP: Fast and accurate density functional calculations using a
 mixed Gaussian and plane waves approach.
 https://doi.org/10.1016/j.cpc.2004.12.014

 Frigo, M; Johnson, SG. 
 PROCEEDINGS OF THE IEEE, 93 (2), 216-231 (2005). 
 The design and implementation of FFTW3.
 https://doi.org/10.1109/JPROC.2004.840301

 Hartwigsen, C; Goedecker, S; Hutter, J. 
 PHYSICAL REVIEW B, 58 (7), 3641-3662 (1998). 
 Relativistic separable dual-space Gaussian pseudopotentials from H to Rn.
 https://doi.org/10.1103/PhysRevB.58.3641

 Lippert, G; Hutter, J; Parrinello, M. 
 MOLECULAR PHYSICS, 92 (3), 477-487 (1997). 
 A hybrid Gaussian and plane wave density functional scheme.
 https://doi.org/10.1080/002689797170220

 Perdew, JP; Burke, K; Ernzerhof, M. 
 PHYSICAL REVIEW LETTERS, 77 (18), 3865-3868 (1996). 
 Generalized gradient approximation made simple.
 https://doi.org/10.1103/PhysRevLett.77.3865

 Goedecker, S; Teter, M; Hutter, J. 
 PHYSICAL REVIEW B, 54 (3), 1703-1710 (1996). 
 Separable dual-space Gaussian pseudopotentials.
 https://doi.org/10.1103/PhysRevB.54.1703


 -------------------------------------------------------------------------------
 -                                                                             -
 -                                T I M I N G                                  -
 -                                                                             -
 -------------------------------------------------------------------------------
 SUBROUTINE                       CALLS  ASD         SELF TIME        TOTAL TIME
                                MAXIMUM       AVERAGE  MAXIMUM  AVERAGE  MAXIMUM
 CP2K                                 1  1.0    0.014    0.027  564.208  564.210
 qs_forces                            1  2.0    0.001    0.001  563.857  563.858
 qs_energies                          1  3.0    0.000    0.000  551.063  551.072
 scf_env_do_scf                       1  4.0    0.000    0.000  543.303  543.386
 scf_env_do_scf_inner_loop           47  5.0    0.002    0.005  543.303  543.386
 rebuild_ks_matrix                   48  6.9    0.000    0.000  341.810  341.873
 qs_ks_build_kohn_sham_matrix        48  7.9    0.006    0.007  341.810  341.873
 qs_ks_update_qs_env                 47  6.0    0.000    0.000  333.663  333.723
 pw_transfer                       2420 12.2    0.150    0.212  176.867  177.808
 fft_wrap_pw1pw2                   2420 13.2    0.020    0.025  176.716  177.642
 fft_wrap_pw1pw2_200               2132 14.4   14.382   15.419  174.943  175.861
 pw_poisson_solve                    48  8.9    0.012    0.015  156.962  156.992
 implicit_poisson_solver_mixed_      48  9.9    4.298    4.628  148.489  148.533
 qs_rho_update_rho_low               48  6.0    0.000    0.000  144.374  144.385
 calculate_rho_elec                  48  7.0    0.263    0.284  144.374  144.385
 sum_up_and_integrate                48  8.9    0.557    0.606  136.201  136.271
 integrate_v_rspace                  48  9.9    0.001    0.001  135.644  135.749
 fft3d_ps                          2420 15.2   77.119   84.159  132.567  133.585
 grid_collocate_task_list            48  8.0   64.866  129.112   64.866  129.112
 grid_integrate_task_list            48 10.9   60.415  120.487   60.415  120.487
 derive_fft                         272 12.1    0.013    0.015  104.147  104.898
 rs_pw_transfer                     388 10.4    0.004    0.006   79.952  100.721
 density_rs2pw                       48  8.0    0.003    0.003   78.393   98.943
 mp_waitany                        7640 12.4   68.803   89.748   68.803   89.748
 rs_pw_transfer_RS2PW_200            50  9.9    2.485    2.865   68.232   89.032
 apply_P_operator                   224 11.1    1.800    1.926   87.769   88.341
 mp_alltoall_d11v                   673 10.2   61.386   80.831   61.386   80.831
 rs_gather_matrices                  48 10.9    0.127    0.146   60.538   80.019
 qs_scf_new_mos                      47  6.0    0.001    0.003   52.480   52.623
 eigensolver                         47  7.0    0.004    0.006   47.437   47.486
 qs_vxc_create                       48  8.9    0.001    0.001   44.017   44.434
 xc_vxc_pw_create                    48  9.9    0.895    1.042   44.016   44.433
 mp_alltoall_z22v                  2420 17.2   28.785   40.082   28.785   40.082
 x_to_yz                           1529 16.3   20.242   23.025   36.967   39.608
 cp_fm_diag_elpa                     47  8.0    0.000    0.000   30.555   30.641
 cp_fm_diag_elpa_base                47  9.0   29.994   30.056   30.483   30.504
 xc_pw_derive                       288 11.9    0.003    0.004   28.489   30.012
 apply_poisson_operator_fft          48 10.9    0.001    0.001   27.372   27.490
 yz_to_x                            891 15.9    6.378    6.718   18.438   24.977
 xc_rho_set_and_dset_create          48 10.9    0.394    0.471   24.034   24.765
 apply_inv_laplace_operator_fft     138 11.6    0.700    0.758   22.854   23.216
 xc_pw_divergence                    48 10.9    0.002    0.002   18.489   19.517
 pw_scatter_p                      1529 15.3   18.067   19.249   18.067   19.249
 ps_implicit_compute_veps            48 10.9    0.478    0.527   18.660   18.989
 ps_implicit_compute_error_fft       88 10.9    1.396    1.497   16.552   17.400
 cp_fm_triangular_multiply          141  8.0   16.354   16.527   16.354   16.527
 gspace_mixing                       46  6.0    0.251    0.269   15.607   15.607
 potential_pw2rs                     48 10.9    0.037    0.042   14.681   14.743
 pw_derive                         1104 13.1   14.320   14.737   14.320   14.737
 pw_gather_p                        891 14.9   11.525   11.774   11.525   11.774
 broyden_mixing                      46  7.0   10.851   11.050   11.218   11.372
 -------------------------------------------------------------------------------

 The number of warnings for this run is : 2
 
 -------------------------------------------------------------------------------
  **** **** ******  **  PROGRAM ENDED AT                 2023-12-02 20:05:52.532
 ***** ** ***  *** **   PROGRAM RAN ON                                     cu087
 **    ****   ******    PROGRAM RAN BY                                     jxzhu
 ***** **    ** ** **   PROGRAM PROCESS ID                                 50944
  **** **  *******  **  PROGRAM STOPPED IN /public/home/jxzhu/tmp_calc/0a3cf48f3
                                           e4bfd23fd4415c30d90d8b4c0a87311/calc/
                                           ref.002
