 DBCSR| CPU Multiplication driver                                           XSMM
 DBCSR| Multrec recursion limit                                              512
 DBCSR| Multiplication stack size                                           1000
 DBCSR| Maximum elements for images                                    UNLIMITED
 DBCSR| Multiplicative factor virtual images                                   1
 DBCSR| Use multiplication densification                                       T
 DBCSR| Multiplication size stacks                                             3
 DBCSR| Use memory pool for CPU allocation                                     F
 DBCSR| Number of 3D layers                                               SINGLE
 DBCSR| Use MPI memory allocation                                              F
 DBCSR| Use RMA algorithm                                                      F
 DBCSR| Use Communication thread                                               T
 DBCSR| Communication thread load                                             87
 DBCSR| MPI: My node id                                                        0
 DBCSR| MPI: Number of nodes                                                 128
 DBCSR| OMP: Current number of threads                                         1
 DBCSR| OMP: Max number of threads                                             1
 DBCSR| Split modifier for TAS multiplication algorithm                  1.0E+00


  **** **** ******  **  PROGRAM STARTED AT               2023-12-02 02:03:56.441
 ***** ** ***  *** **   PROGRAM STARTED ON                                 cu011
 **    ****   ******    PROGRAM STARTED BY                                 jxzhu
 ***** **    ** ** **   PROGRAM PROCESS ID                                 25875
  **** **  *******  **  PROGRAM STARTED IN /public/home/jxzhu/tmp_calc/ae09acc42
                                           5322201539737d0505f85856ffc7918/calc/
                                           000400.000/search_hi.000000

 CP2K| version string:                                       CP2K version 2022.1
 CP2K| source code revision number:                                  git:2caeb6f
 CP2K| cp2kflags: omp libint fftw3 libxc elpa parallel mpi3 scalapack cosma xsmm
 CP2K|             plumed2 spglib mkl sirius libvori libbqb
 CP2K| is freely available from                            https://www.cp2k.org/
 CP2K| Program compiled at                           Mon Jul 3 17:37:06 CST 2023
 CP2K| Program compiled on                                                 mu003
 CP2K| Program compiled for                                                local
 CP2K| Data directory path                             /public/home/jxzhu/basis/
 CP2K| Input file name                                                 input.inp
 
 GLOBAL| Force Environment number                                              1
 GLOBAL| Basis set file name                                        BASIS_MOLOPT
 GLOBAL| Potential file name                                      GTH_POTENTIALS
 GLOBAL| MM Potential file name                                     MM_POTENTIAL
 GLOBAL| Coordinate file name                                          coord.xyz
 GLOBAL| Method name                                                        CP2K
 GLOBAL| Project name                                                       cp2k
 GLOBAL| Run type                                                   ENERGY_FORCE
 GLOBAL| FFT library                                                       FFTW3
 GLOBAL| Diagonalization library                                            ELPA
 GLOBAL| Minimum number of eigenvectors for ELPA usage                        16
 GLOBAL| Orthonormality check for eigenvectors                          DISABLED
 GLOBAL| Matrix multiplication library                                     COSMA
 GLOBAL| All-to-all communication in single precision                          F
 GLOBAL| FFTs using library dependent lengths                                  T
 GLOBAL| Grid backend                                                       AUTO
 GLOBAL| Global print level                                               MEDIUM
 GLOBAL| MPI I/O enabled                                                       T
 GLOBAL| Total number of message passing processes                           128
 GLOBAL| Number of threads for this process                                    1
 GLOBAL| This output is from process                                           0
 GLOBAL| Stack size for threads created by OpenMP (OMP_STACKSIZE)        default
 GLOBAL| CPU model name                 Intel(R) Xeon(R) Gold 6338 CPU @ 2.00GHz
 GLOBAL| CPUID                                                              1003

 MEMORY| system memory details [Kb]
 MEMORY|                        rank 0           min           max       average
 MEMORY| MemTotal            263619172     263619172     263619172     263619172
 MEMORY| MemFree             201374024     189744440     201374024     195559324
 MEMORY| Buffers                  3320            20          3320          1670
 MEMORY| Cached                1704868        864336       1704868       1284602
 MEMORY| Slab                  1960060       1960060       2089916       2024988
 MEMORY| SReclaimable           282060        238804        282060        260432
 MEMORY| MemLikelyFree       203364272     190847600     203364272     197106028


 *** Fundamental physical constants (SI units) ***

 *** Literature: B. J. Mohr and B. N. Taylor,
 ***             CODATA recommended values of the fundamental physical
 ***             constants: 2006, Web Version 5.1
 ***             http://physics.nist.gov/constants

 Speed of light in vacuum [m/s]                             2.99792458000000E+08
 Magnetic constant or permeability of vacuum [N/A**2]       1.25663706143592E-06
 Electric constant or permittivity of vacuum [F/m]          8.85418781762039E-12
 Planck constant (h) [J*s]                                  6.62606896000000E-34
 Planck constant (h-bar) [J*s]                              1.05457162825177E-34
 Elementary charge [C]                                      1.60217648700000E-19
 Electron mass [kg]                                         9.10938215000000E-31
 Electron g factor [ ]                                     -2.00231930436220E+00
 Proton mass [kg]                                           1.67262163700000E-27
 Fine-structure constant                                    7.29735253760000E-03
 Rydberg constant [1/m]                                     1.09737315685270E+07
 Avogadro constant [1/mol]                                  6.02214179000000E+23
 Boltzmann constant [J/K]                                   1.38065040000000E-23
 Atomic mass unit [kg]                                      1.66053878200000E-27
 Bohr radius [m]                                            5.29177208590000E-11

 *** Conversion factors ***

 [u] -> [a.u.]                                              1.82288848426455E+03
 [Angstrom] -> [Bohr] = [a.u.]                              1.88972613288564E+00
 [a.u.] = [Bohr] -> [Angstrom]                              5.29177208590000E-01
 [a.u.] -> [s]                                              2.41888432650478E-17
 [a.u.] -> [fs]                                             2.41888432650478E-02
 [a.u.] -> [J]                                              4.35974393937059E-18
 [a.u.] -> [N]                                              8.23872205491840E-08
 [a.u.] -> [K]                                              3.15774647902944E+05
 [a.u.] -> [kJ/mol]                                         2.62549961709828E+03
 [a.u.] -> [kcal/mol]                                       6.27509468713739E+02
 [a.u.] -> [Pa]                                             2.94210107994716E+13
 [a.u.] -> [bar]                                            2.94210107994716E+08
 [a.u.] -> [atm]                                            2.90362800883016E+08
 [a.u.] -> [eV]                                             2.72113838565563E+01
 [a.u.] -> [Hz]                                             6.57968392072181E+15
 [a.u.] -> [1/cm] (wave numbers)                            2.19474631370540E+05
 [a.u./Bohr**2] -> [1/cm]                                   5.14048714338585E+03
 

 CELL_TOP| Volume [angstrom^3]:                                     17614.982639
 CELL_TOP| Vector a [angstrom    16.869     0.000     0.000   |a| =    16.869000
 CELL_TOP| Vector b [angstrom    -8.434    14.609     0.000   |b| =    16.869015
 CELL_TOP| Vector c [angstrom     0.000     0.000    71.478   |c| =    71.478000
 CELL_TOP| Angle (b,c), alpha [degree]:                                90.000000
 CELL_TOP| Angle (a,c), beta  [degree]:                                90.000000
 CELL_TOP| Angle (a,b), gamma [degree]:                               119.999970
 CELL_TOP| Numerically orthorhombic:                                          NO
 
 GENERATE|  Preliminary Number of Bonds generated:                             0
 GENERATE|  Achieved consistency in connectivity generation.

 CELL| Volume [angstrom^3]:                                         17614.982639
 CELL| Vector a [angstrom]:      16.869     0.000     0.000   |a| =    16.869000
 CELL| Vector b [angstrom]:      -8.434    14.609     0.000   |b| =    16.869015
 CELL| Vector c [angstrom]:       0.000     0.000    71.478   |c| =    71.478000
 CELL| Angle (b,c), alpha [degree]:                                    90.000000
 CELL| Angle (a,c), beta  [degree]:                                    90.000000
 CELL| Angle (a,b), gamma [degree]:                                   119.999970
 CELL| Numerically orthorhombic:                                              NO

 CELL_REF| Volume [angstrom^3]:                                     17614.982639
 CELL_REF| Vector a [angstrom    16.869     0.000     0.000   |a| =    16.869000
 CELL_REF| Vector b [angstrom    -8.434    14.609     0.000   |b| =    16.869015
 CELL_REF| Vector c [angstrom     0.000     0.000    71.478   |c| =    71.478000
 CELL_REF| Angle (b,c), alpha [degree]:                                90.000000
 CELL_REF| Angle (a,c), beta  [degree]:                                90.000000
 CELL_REF| Angle (a,b), gamma [degree]:                               119.999970
 CELL_REF| Numerically orthorhombic:                                          NO

 *******************************************************************************
 *******************************************************************************
 **                                                                           **
 **     #####                         ##              ##                      **
 **    ##   ##            ##          ##              ##                      **
 **   ##     ##                       ##            ######                    **
 **   ##     ##  ##   ##  ##   #####  ##  ##   ####   ##    #####    #####    **
 **   ##     ##  ##   ##  ##  ##      ## ##   ##      ##   ##   ##  ##   ##   **
 **   ##  ## ##  ##   ##  ##  ##      ####     ###    ##   ######   ######    **
 **    ##  ###   ##   ##  ##  ##      ## ##      ##   ##   ##       ##        **
 **     #######   #####   ##   #####  ##  ##  ####    ##    #####   ##        **
 **           ##                                                    ##        **
 **                                                                           **
 **                                                ... make the atoms dance   **
 **                                                                           **
 **            Copyright (C) by CP2K developers group (2000-2022)             **
 **                      J. Chem. Phys. 152, 194103 (2020)                    **
 **                                                                           **
 *******************************************************************************

 DFT| Spin restricted Kohn-Sham (RKS) calculation                            RKS
 DFT| Multiplicity                                                             1
 DFT| Number of spin states                                                    1
 DFT| Charge                                                                   0
 DFT| Self-interaction correction (SIC)                                       NO
 DFT| Cutoffs: density                                              1.000000E-10
 DFT|          gradient                                             1.000000E-10
 DFT|          tau                                                  1.000000E-10
 DFT|          cutoff_smoothing_range                               0.000000E+00
 DFT| XC density smoothing                                                  NONE
 DFT| XC derivatives                                                          PW

 FUNCTIONAL| PBE:
 FUNCTIONAL| J.P.Perdew, K.Burke, M.Ernzerhof, Phys. Rev. Letter, vol. 77, n 18,
 FUNCTIONAL|  pp. 3865-3868, (1996){spin unpolarized}                           

 vdW POTENTIAL|                                                   Pair Potential
 vdW POTENTIAL|          DFT-D3 (Version 3.1)
 vdW POTENTIAL|          Potential Form: S. Grimme et al, JCP 132: 154104 (2010)
 vdW POTENTIAL|          Zero Damping
 vdW POTENTIAL|          Cutoff Radius [Bohr]:                             20.00
 vdW POTENTIAL|          s6 Scaling Factor:                               1.0000
 vdW POTENTIAL|          sr6 Scaling Factor:                              1.2170
 vdW POTENTIAL|          s8 Scaling Factor:                               0.7220
 vdW POTENTIAL|          Cutoff for CN calculation:                   0.1000E-05

 QS| Method:                                                                 GPW
 QS| Density plane wave grid type                        NON-SPHERICAL FULLSPACE
 QS| Number of grid levels:                                                    4
 QS| Density cutoff [a.u.]:                                                200.0
 QS| Multi grid cutoff [a.u.]: 1) grid level                               200.0
 QS|                           2) grid level                                66.7
 QS|                           3) grid level                                22.2
 QS|                           4) grid level                                 7.4
 QS| Grid level progression factor:                                          3.0
 QS| Relative density cutoff [a.u.]:                                        20.0
 QS| Interaction thresholds: eps_pgf_orb:                                3.2E-07
 QS|                         eps_filter_matrix:                          0.0E+00
 QS|                         eps_core_charge:                            1.0E-15
 QS|                         eps_rho_gspace:                             1.0E-13
 QS|                         eps_rho_rspace:                             1.0E-13
 QS|                         eps_gvg_rspace:                             3.2E-07
 QS|                         eps_ppl:                                    1.0E-02
 QS|                         eps_ppnl:                                   3.2E-09


 ATOMIC KIND INFORMATION

  1. Atomic kind: O                                     Number of atoms:     100

     Orbital Basis Set                                        DZVP-MOLOPT-SR-GTH

       Number of orbital shell sets:                                           1
       Number of orbital shells:                                               5
       Number of primitive Cartesian functions:                                5
       Number of Cartesian basis functions:                                   14
       Number of spherical basis functions:                                   13
       Norm type:                                                              2

       Normalised Cartesian orbitals:

                        Set   Shell   Orbital            Exponent    Coefficient

                          1       1    2s               10.389228       0.396646
                                                         3.849621       0.208811
                                                         1.388401      -0.301641
                                                         0.496955      -0.274061
                                                         0.162492      -0.033677

                          1       2    3s               10.389228       0.303673
                                                         3.849621       0.240943
                                                         1.388401      -0.313066
                                                         0.496955      -0.043055
                                                         0.162492       0.213991

                          1       3    3px              10.389228      -1.530415
                                                         3.849621      -1.371928
                                                         1.388401      -0.761951
                                                         0.496955      -0.253695
                                                         0.162492      -0.035541
                          1       3    3py              10.389228      -1.530415
                                                         3.849621      -1.371928
                                                         1.388401      -0.761951
                                                         0.496955      -0.253695
                                                         0.162492      -0.035541
                          1       3    3pz              10.389228      -1.530415
                                                         3.849621      -1.371928
                                                         1.388401      -0.761951
                                                         0.496955      -0.253695
                                                         0.162492      -0.035541

                          1       4    4px              10.389228      -0.565392
                                                         3.849621      -0.038231
                                                         1.388401      -0.382373
                                                         0.496955       0.179070
                                                         0.162492       0.122714
                          1       4    4py              10.389228      -0.565392
                                                         3.849621      -0.038231
                                                         1.388401      -0.382373
                                                         0.496955       0.179070
                                                         0.162492       0.122714
                          1       4    4pz              10.389228      -0.565392
                                                         3.849621      -0.038231
                                                         1.388401      -0.382373
                                                         0.496955       0.179070
                                                         0.162492       0.122714

                          1       5    4dx2             10.389228       1.867377
                                                         3.849621       0.670994
                                                         1.388401       1.353441
                                                         0.496955       0.273538
                                                         0.162492       0.006620
                          1       5    4dxy             10.389228       3.234392
                                                         3.849621       1.162195
                                                         1.388401       2.344229
                                                         0.496955       0.473781
                                                         0.162492       0.011466
                          1       5    4dxz             10.389228       3.234392
                                                         3.849621       1.162195
                                                         1.388401       2.344229
                                                         0.496955       0.473781
                                                         0.162492       0.011466
                          1       5    4dy2             10.389228       1.867377
                                                         3.849621       0.670994
                                                         1.388401       1.353441
                                                         0.496955       0.273538
                                                         0.162492       0.006620
                          1       5    4dyz             10.389228       3.234392
                                                         3.849621       1.162195
                                                         1.388401       2.344229
                                                         0.496955       0.473781
                                                         0.162492       0.011466
                          1       5    4dz2             10.389228       1.867377
                                                         3.849621       0.670994
                                                         1.388401       1.353441
                                                         0.496955       0.273538
                                                         0.162492       0.006620

       Atomic covalent radius [Angstrom]:                                  0.730

       Atomic van der Waals radius [Angstrom]:                             1.520

     GTH Potential information for                                    GTH-PBE-q6

       Description:                       Goedecker-Teter-Hutter pseudopotential
                                           Goedecker et al., PRB 54, 1703 (1996)
                                          Hartwigsen et al., PRB 58, 3641 (1998)
                                                      Krack, TCA 114, 145 (2005)

       Gaussian exponent of the core charge distribution:               8.360253
       Electronic configuration (s p d ...):                               2   4

       Parameters of the local part of the GTH pseudopotential:

                          rloc        C1          C2          C3          C4
                        0.244554  -16.667215    2.487311

       Parameters of the non-local part of the GTH pseudopotential:

                   l      r(l)      h(i,j,l)

                   0    0.220956   18.337458
                   1    0.211332

  2. Atomic kind: H                                     Number of atoms:     200

     Orbital Basis Set                                        DZVP-MOLOPT-SR-GTH

       Number of orbital shell sets:                                           1
       Number of orbital shells:                                               3
       Number of primitive Cartesian functions:                                5
       Number of Cartesian basis functions:                                    5
       Number of spherical basis functions:                                    5
       Norm type:                                                              2

       Normalised Cartesian orbitals:

                        Set   Shell   Orbital            Exponent    Coefficient

                          1       1    2s               10.068468      -0.133023
                                                         2.680223      -0.177618
                                                         0.791502      -0.258419
                                                         0.239116      -0.107525
                                                         0.082193      -0.014019

                          1       2    3s               10.068468       0.344673
                                                         2.680223       1.819821
                                                         0.791502      -0.999069
                                                         0.239116       0.017430
                                                         0.082193       0.082660

                          1       3    3px              10.068468       0.155326
                                                         2.680223       0.367157
                                                         0.791502       0.311480
                                                         0.239116       0.080105
                                                         0.082193       0.033440
                          1       3    3py              10.068468       0.155326
                                                         2.680223       0.367157
                                                         0.791502       0.311480
                                                         0.239116       0.080105
                                                         0.082193       0.033440
                          1       3    3pz              10.068468       0.155326
                                                         2.680223       0.367157
                                                         0.791502       0.311480
                                                         0.239116       0.080105
                                                         0.082193       0.033440

       Atomic covalent radius [Angstrom]:                                  0.320

       Atomic van der Waals radius [Angstrom]:                             1.090

     GTH Potential information for                                    GTH-PBE-q1

       Description:                       Goedecker-Teter-Hutter pseudopotential
                                           Goedecker et al., PRB 54, 1703 (1996)
                                          Hartwigsen et al., PRB 58, 3641 (1998)
                                                      Krack, TCA 114, 145 (2005)

       Gaussian exponent of the core charge distribution:              12.500000
       Electronic configuration (s p d ...):                                   1

       Parameters of the local part of the GTH pseudopotential:

                          rloc        C1          C2          C3          C4
                        0.200000   -4.178900    0.724463

  3. Atomic kind: Pt                                    Number of atoms:     216

     Orbital Basis Set                      DZVP-A5-Q10-323-MOL-T1-DERIVED_SET-1

       Number of orbital shell sets:                                           1
       Number of orbital shells:                                               6
       Number of primitive Cartesian functions:                                5
       Number of Cartesian basis functions:                                   23
       Number of spherical basis functions:                                   20
       Norm type:                                                              2

       Normalised Cartesian orbitals:

                        Set   Shell   Orbital            Exponent    Coefficient

                          1       1    2s                2.521825       0.177473
                                                         1.453920      -0.063399
                                                         0.614053      -0.407089
                                                         0.232656       0.262254
                                                         0.074788       0.047371

                          1       2    3s                2.521825      -0.049056
                                                         1.453920       0.044904
                                                         0.614053      -0.009756
                                                         0.232656      -0.144709
                                                         0.074788       0.144085

                          1       3    3px               2.521825      -0.317572
                                                         1.453920       0.534826
                                                         0.614053      -0.489458
                                                         0.232656       0.245631
                                                         0.074788       0.018221
                          1       3    3py               2.521825      -0.317572
                                                         1.453920       0.534826
                                                         0.614053      -0.489458
                                                         0.232656       0.245631
                                                         0.074788       0.018221
                          1       3    3pz               2.521825      -0.317572
                                                         1.453920       0.534826
                                                         0.614053      -0.489458
                                                         0.232656       0.245631
                                                         0.074788       0.018221

                          1       4    4dx2              2.521825       3.008522
                                                         1.453920      -1.224251
                                                         0.614053       0.225691
                                                         0.232656       0.125144
                                                         0.074788      -0.015348
                          1       4    4dxy              2.521825       5.210912
                                                         1.453920      -2.120465
                                                         0.614053       0.390909
                                                         0.232656       0.216756
                                                         0.074788      -0.026584
                          1       4    4dxz              2.521825       5.210912
                                                         1.453920      -2.120465
                                                         0.614053       0.390909
                                                         0.232656       0.216756
                                                         0.074788      -0.026584
                          1       4    4dy2              2.521825       3.008522
                                                         1.453920      -1.224251
                                                         0.614053       0.225691
                                                         0.232656       0.125144
                                                         0.074788      -0.015348
                          1       4    4dyz              2.521825       5.210912
                                                         1.453920      -2.120465
                                                         0.614053       0.390909
                                                         0.232656       0.216756
                                                         0.074788      -0.026584
                          1       4    4dz2              2.521825       3.008522
                                                         1.453920      -1.224251
                                                         0.614053       0.225691
                                                         0.232656       0.125144
                                                         0.074788      -0.015348

                          1       5    5dx2              2.521825       0.698026
                                                         1.453920      -1.511486
                                                         0.614053      -0.335394
                                                         0.232656      -0.025564
                                                         0.074788      -0.002699
                          1       5    5dxy              2.521825       1.209017
                                                         1.453920      -2.617970
                                                         0.614053      -0.580920
                                                         0.232656      -0.044277
                                                         0.074788      -0.004674
                          1       5    5dxz              2.521825       1.209017
                                                         1.453920      -2.617970
                                                         0.614053      -0.580920
                                                         0.232656      -0.044277
                                                         0.074788      -0.004674
                          1       5    5dy2              2.521825       0.698026
                                                         1.453920      -1.511486
                                                         0.614053      -0.335394
                                                         0.232656      -0.025564
                                                         0.074788      -0.002699
                          1       5    5dyz              2.521825       1.209017
                                                         1.453920      -2.617970
                                                         0.614053      -0.580920
                                                         0.232656      -0.044277
                                                         0.074788      -0.004674
                          1       5    5dz2              2.521825       0.698026
                                                         1.453920      -1.511486
                                                         0.614053      -0.335394
                                                         0.232656      -0.025564
                                                         0.074788      -0.002699

                          1       6    6dx2              2.521825       0.831079
                                                         1.453920      -0.709226
                                                         0.614053      -0.137351
                                                         0.232656       0.068642
                                                         0.074788       0.011745
                          1       6    6dxy              2.521825       1.439472
                                                         1.453920      -1.228415
                                                         0.614053      -0.237899
                                                         0.232656       0.118891
                                                         0.074788       0.020343
                          1       6    6dxz              2.521825       1.439472
                                                         1.453920      -1.228415
                                                         0.614053      -0.237899
                                                         0.232656       0.118891
                                                         0.074788       0.020343
                          1       6    6dy2              2.521825       0.831079
                                                         1.453920      -0.709226
                                                         0.614053      -0.137351
                                                         0.232656       0.068642
                                                         0.074788       0.011745
                          1       6    6dyz              2.521825       1.439472
                                                         1.453920      -1.228415
                                                         0.614053      -0.237899
                                                         0.232656       0.118891
                                                         0.074788       0.020343
                          1       6    6dz2              2.521825       0.831079
                                                         1.453920      -0.709226
                                                         0.614053      -0.137351
                                                         0.232656       0.068642
                                                         0.074788       0.011745

       Atomic covalent radius [Angstrom]:                                  1.300

       Atomic van der Waals radius [Angstrom]:                             1.750

     GTH Potential information for                                   GTH-PBE-q10

       Description:                       Goedecker-Teter-Hutter pseudopotential
                                           Goedecker et al., PRB 54, 1703 (1996)
                                          Hartwigsen et al., PRB 58, 3641 (1998)
                                                      Krack, TCA 114, 145 (2005)

       Gaussian exponent of the core charge distribution:               1.317676
       Electronic configuration (s p d ...):                           1   0   9

       Parameters of the local part of the GTH pseudopotential:

                          rloc        C1          C2          C3          C4
                        0.616000   11.313635

       Parameters of the non-local part of the GTH pseudopotential:

                   l      r(l)      h(i,j,l)

                   0    0.550904    4.733491   -1.784594
                                   -1.784594    2.303901
                   1    0.674138    2.534798   -1.778066
                                   -1.778066    2.103836
                   2    0.457392   -7.264011    2.558665
                                    2.558665   -2.901253


 MOLECULE KIND INFORMATION


 All atoms are their own molecule, skipping detailed information


 TOTAL NUMBERS AND MAXIMUM NUMBERS

  Total number of            - Atomic kinds:                                   3
                             - Atoms:                                        516
                             - Shell sets:                                   516
                             - Shells:                                      2396
                             - Primitive Cartesian functions:               2580
                             - Cartesian basis functions:                   7368
                             - Spherical basis functions:                   6620

  Maximum angular momentum of- Orbital basis functions:                        2
                             - Local part of the GTH pseudopotential:          2
                             - Non-local part of the GTH pseudopotential:      4


 MODULE QUICKSTEP:  ATOMIC COORDINATES IN angstrom

 Atom  Kind  Element       X           Y           Z          Z(eff)       Mass
    1   1 O    8      -1.760000   -1.620000   39.398000       6.0000     15.9994
    2   2 H    1      -1.530000   -0.630000   39.408000       1.0000      1.0079
    3   2 H    1      -2.540000   -1.710000   38.797999       1.0000      1.0079
    4   1 O    8      -3.560000    2.910000   31.277999       6.0000     15.9994
    5   2 H    1      -3.350000    3.860000   30.948001       1.0000      1.0079
    6   2 H    1      -4.510000    3.030000   31.668000       1.0000      1.0079
    7   1 O    8       1.900000    0.440000   29.018000       6.0000     15.9994
    8   2 H    1       1.130000    0.910000   29.507998       1.0000      1.0079
    9   2 H    1       2.640000    1.010000   29.268000       1.0000      1.0079
   10   1 O    8       3.590000   14.910001   32.617999       6.0000     15.9994
   11   2 H    1       3.100000   15.800000   32.647998       1.0000      1.0079
   12   2 H    1       3.490000   14.620000   31.627997       1.0000      1.0079
   13   1 O    8      -3.550000    0.480000   36.307999       6.0000     15.9994
   14   2 H    1      -3.200000    0.320000   35.377997       1.0000      1.0079
   15   2 H    1      -2.840000    0.970000   36.898000       1.0000      1.0079
   16   1 O    8       3.570000   -8.120001   38.968001       6.0000     15.9994
   17   2 H    1       4.050000   -7.900000   39.777999       1.0000      1.0079
   18   2 H    1       3.240000   -7.210000   38.578000       1.0000      1.0079
   19   1 O    8      11.170001   -3.960000   30.137999       6.0000     15.9994
   20   2 H    1      11.160001   -4.020000   31.137997       1.0000      1.0079
   21   2 H    1      12.190001   -3.980000   30.068000       1.0000      1.0079
   22   1 O    8      -6.370000   -3.930000   33.057999       6.0000     15.9994
   23   2 H    1      -7.190001   -3.480000   33.407998       1.0000      1.0079
   24   2 H    1      -5.820000   -3.460000   33.687999       1.0000      1.0079
   25   1 O    8     -16.140001    0.840000   38.217999       6.0000     15.9994
   26   2 H    1     -15.740002    0.420000   39.087998       1.0000      1.0079
   27   2 H    1     -15.540000    1.560000   37.977998       1.0000      1.0079
   28   1 O    8       8.790001    2.700000   30.158000       6.0000     15.9994
   29   2 H    1       8.610001    3.660000   30.177996       1.0000      1.0079
   30   2 H    1       7.940001    2.250000   29.917998       1.0000      1.0079
   31   1 O    8     -17.889999   22.090000   34.357999       6.0000     15.9994
   32   2 H    1     -17.230000   22.139999   35.057999       1.0000      1.0079
   33   2 H    1      -1.280000   23.010002   33.947999       1.0000      1.0079
   34   1 O    8     -13.800001   12.910000   34.437999       6.0000     15.9994
   35   2 H    1     -13.790001   13.640001   33.717999       1.0000      1.0079
   36   2 H    1     -13.970001   13.370000   35.258000       1.0000      1.0079
   37   1 O    8      -3.310000    7.090001   34.478000       6.0000     15.9994
   38   2 H    1      -2.430000    7.100000   33.897998       1.0000      1.0079
   39   2 H    1      -3.000000    6.910000   35.407998       1.0000      1.0079
   40   1 O    8     -14.180001   -1.320000   35.737998       6.0000     15.9994
   41   2 H    1     -15.170001   -1.090000   35.717999       1.0000      1.0079
   42   2 H    1     -13.840000   -1.530000   34.858001       1.0000      1.0079
   43   1 O    8       3.850000    6.540000   32.967999       6.0000     15.9994
   44   2 H    1       4.410000    6.520000   33.797999       1.0000      1.0079
   45   2 H    1       3.170000    5.800000   33.088000       1.0000      1.0079
   46   1 O    8       1.520000   -4.380000   29.357997       6.0000     15.9994
   47   2 H    1       2.380000   -4.340000   29.728000       1.0000      1.0079
   48   2 H    1       1.230000   -5.300000   29.577998       1.0000      1.0079
   49   1 O    8      -3.990000    9.730001   35.288001       6.0000     15.9994
   50   2 H    1      -3.190000   10.270000   35.667998       1.0000      1.0079
   51   2 H    1      -3.710000    8.890000   34.807999       1.0000      1.0079
   52   1 O    8       0.520000   -1.810000   30.097998       6.0000     15.9994
   53   2 H    1       0.760000   -2.750000   29.877997       1.0000      1.0079
   54   2 H    1       0.970000   -1.290000   29.417998       1.0000      1.0079
   55   1 O    8      -8.110001   -1.160000   36.438001       6.0000     15.9994
   56   2 H    1      -7.870001   -0.190000   36.307999       1.0000      1.0079
   57   2 H    1      -8.680000   -1.260000   37.207999       1.0000      1.0079
   58   1 O    8       1.550000    8.130000   32.627999       6.0000     15.9994
   59   2 H    1       1.650000    9.070001   32.918000       1.0000      1.0079
   60   2 H    1       2.420000    7.660000   32.777999       1.0000      1.0079
   61   1 O    8      14.140000    1.080000   29.827998       6.0000     15.9994
   62   2 H    1      13.770000    1.300000   28.967997       1.0000      1.0079
   63   2 H    1      13.790001    1.830000   30.377997       1.0000      1.0079
   64   1 O    8      11.370001    2.440000   35.418000       6.0000     15.9994
   65   2 H    1      11.860001    2.980000   34.787997       1.0000      1.0079
   66   2 H    1      11.960001    1.730000   35.757998       1.0000      1.0079
   67   1 O    8     -25.140001   15.400001   32.658000       6.0000     15.9994
   68   2 H    1      -8.370000   15.720000   31.738000       1.0000      1.0079
   69   2 H    1      -9.150001   15.380001   33.037999       1.0000      1.0079
   70   1 O    8       2.060000   16.890001   32.377999       6.0000     15.9994
   71   2 H    1       1.610000   17.120001   31.438001       1.0000      1.0079
   72   2 H    1       1.690000   17.620001   32.907998       1.0000      1.0079
   73   1 O    8      -0.170000    4.130000   29.818000       6.0000     15.9994
   74   2 H    1      -1.130000    4.480000   29.998000       1.0000      1.0079
   75   2 H    1       0.030000    4.160000   28.818000       1.0000      1.0079
   76   1 O    8      15.060000    4.040000   36.617999       6.0000     15.9994
   77   2 H    1      16.010000    4.320000   36.457999       1.0000      1.0079
   78   2 H    1      14.610001    4.920000   36.957999       1.0000      1.0079
   79   1 O    8       6.070001    8.150001   29.437999       6.0000     15.9994
   80   2 H    1       5.450000    7.350000   29.637999       1.0000      1.0079
   81   2 H    1       5.720000    9.010000   29.757998       1.0000      1.0079
   82   1 O    8      -0.300000   11.630001   34.168000       6.0000     15.9994
   83   2 H    1      -0.140000   12.500000   34.607999       1.0000      1.0079
   84   2 H    1      -1.100000   11.820001   33.597998       1.0000      1.0079
   85   1 O    8      -5.370000    8.960000   37.607999       6.0000     15.9994
   86   2 H    1      -6.210001    8.740000   37.028001       1.0000      1.0079
   87   2 H    1      -4.740000    9.100000   36.847998       1.0000      1.0079
   88   1 O    8      -9.940001    1.000000   29.117999       6.0000     15.9994
   89   2 H    1      -9.470000    0.260000   29.637999       1.0000      1.0079
   90   2 H    1     -10.890001    1.030000   29.437999       1.0000      1.0079
   91   1 O    8      -7.490000   -9.880000   35.837998       6.0000     15.9994
   92   2 H    1      -7.770000   -9.910001   34.917998       1.0000      1.0079
   93   2 H    1      -7.410001   -8.860001   36.008000       1.0000      1.0079
   94   1 O    8      -2.510000    0.710000   33.787999       6.0000     15.9994
   95   2 H    1      -2.780000    1.660000   33.908000       1.0000      1.0079
   96   2 H    1      -3.190000    0.450000   33.088000       1.0000      1.0079
   97   1 O    8      -8.700001    5.310000   30.047999       6.0000     15.9994
   98   2 H    1      -9.150001    5.410000   30.887999       1.0000      1.0079
   99   2 H    1      -9.340000    5.240001   29.277999       1.0000      1.0079
  100   1 O    8      -0.760000    8.450001   37.697999       6.0000     15.9994
  101   2 H    1      -0.790000    8.750001   38.687999       1.0000      1.0079
  102   2 H    1      -1.170000    9.180000   37.158000       1.0000      1.0079
  103   1 O    8      -5.050000    9.400001   31.357999       6.0000     15.9994
  104   2 H    1      -4.340000    9.980000   31.727998       1.0000      1.0079
  105   2 H    1      -5.830000    9.140000   31.967999       1.0000      1.0079
  106   1 O    8       7.230001   -7.140000   32.887999       6.0000     15.9994
  107   2 H    1      -1.420000    7.900000   31.987998       1.0000      1.0079
  108   2 H    1       8.180000   -6.730001   33.027999       1.0000      1.0079
  109   1 O    8       2.840000   21.350000   33.088000       6.0000     15.9994
  110   2 H    1       3.660000   21.470001   33.608001       1.0000      1.0079
  111   2 H    1       3.010000   21.040001   32.157998       1.0000      1.0079
  112   1 O    8      -8.270000    8.140000   30.117999       6.0000     15.9994
  113   2 H    1      -9.240000    8.160001   29.917998       1.0000      1.0079
  114   2 H    1      -8.110001    7.230001   29.608001       1.0000      1.0079
  115   1 O    8      14.810000   -4.560000   32.807998       6.0000     15.9994
  116   2 H    1      15.610001   -4.170000   33.187999       1.0000      1.0079
  117   2 H    1      14.040001   -4.350000   33.508000       1.0000      1.0079
  118   1 O    8     -21.100002   23.340000   38.738000       6.0000     15.9994
  119   2 H    1      -4.510000   22.410002   38.547999       1.0000      1.0079
  120   2 H    1     -21.560001   23.760002   37.948001       1.0000      1.0079
  121   1 O    8       1.800000    6.000000   29.417998       6.0000     15.9994
  122   2 H    1       1.590000    7.040000   29.597998       1.0000      1.0079
  123   2 H    1       0.990000    5.520000   29.687999       1.0000      1.0079
  124   1 O    8       2.130000    4.280000   32.707999       6.0000     15.9994
  125   2 H    1       2.440000    3.850000   31.898000       1.0000      1.0079
  126   2 H    1       2.200000    3.620000   33.427998       1.0000      1.0079
  127   1 O    8      -3.510000   21.490002   35.728000       6.0000     15.9994
  128   2 H    1      -2.700000   22.090000   35.728000       1.0000      1.0079
  129   2 H    1      -4.110000   21.950001   36.338000       1.0000      1.0079
  130   1 O    8       2.650000   13.470001   30.317996       6.0000     15.9994
  131   2 H    1       2.790000   12.520000   30.058001       1.0000      1.0079
  132   2 H    1       2.600000   14.000001   29.498000       1.0000      1.0079
  133   1 O    8       5.590000    3.180000   33.767999       6.0000     15.9994
  134   2 H    1       6.200000    3.960000   33.608001       1.0000      1.0079
  135   2 H    1       5.260000    3.270000   34.658000       1.0000      1.0079
  136   1 O    8      -5.850000    5.580000   30.418002       6.0000     15.9994
  137   2 H    1      -5.340000    6.130000   29.807998       1.0000      1.0079
  138   2 H    1      -6.800000    5.680000   30.288001       1.0000      1.0079
  139   1 O    8      -5.540000    3.140000   28.948001       6.0000     15.9994
  140   2 H    1      -6.390000    2.750000   29.067996       1.0000      1.0079
  141   2 H    1      -5.560000    4.000000   29.427996       1.0000      1.0079
  142   1 O    8       6.720000   -3.980000   36.207999       6.0000     15.9994
  143   2 H    1       6.590000   -3.420000   37.007998       1.0000      1.0079
  144   2 H    1       7.430000   -3.560000   35.627999       1.0000      1.0079
  145   1 O    8      -3.110000   18.340000   30.317996       6.0000     15.9994
  146   2 H    1      -3.360000   19.310001   30.327998       1.0000      1.0079
  147   2 H    1      -2.990000   18.220001   29.308001       1.0000      1.0079
  148   1 O    8       1.080000    8.420001   30.147998       6.0000     15.9994
  149   2 H    1       1.700000    9.130000   29.887999       1.0000      1.0079
  150   2 H    1       1.260000    8.380001   31.167998       1.0000      1.0079
  151   1 O    8     -10.260000   -2.970000   29.917998       6.0000     15.9994
  152   2 H    1     -10.150002   -2.770000   28.948001       1.0000      1.0079
  153   2 H    1     -10.040001   -3.920000   30.087996       1.0000      1.0079
  154   1 O    8      -4.270000   13.070001   33.077998       6.0000     15.9994
  155   2 H    1      -3.900000   13.990001   32.998000       1.0000      1.0079
  156   2 H    1      -5.030000   13.120001   32.467999       1.0000      1.0079
  157   1 O    8       0.120000   -3.660000   34.187999       6.0000     15.9994
  158   2 H    1       0.600000   -4.510000   33.978000       1.0000      1.0079
  159   2 H    1       0.550000   -2.980000   33.627999       1.0000      1.0079
  160   1 O    8       1.170000   19.030001   33.867999       6.0000     15.9994
  161   2 H    1       9.470000    4.190001   34.838000       1.0000      1.0079
  162   2 H    1       1.670000   19.860001   33.887999       1.0000      1.0079
  163   1 O    8      -1.860000   12.470001   38.327998       6.0000     15.9994
  164   2 H    1      -1.080000   12.210001   38.887999       1.0000      1.0079
  165   2 H    1      -2.530000   12.560000   39.047999       1.0000      1.0079
  166   1 O    8      -8.210000    7.510000   36.768000       6.0000     15.9994
  167   2 H    1      -8.760000    8.210000   37.168000       1.0000      1.0079
  168   2 H    1      -8.140000    6.740000   37.417998       1.0000      1.0079
  169   1 O    8       4.380000    6.300001   30.327998       6.0000     15.9994
  170   2 H    1       3.460000    6.050000   29.917998       1.0000      1.0079
  171   2 H    1       4.310000    6.400001   31.347998       1.0000      1.0079
  172   1 O    8       0.710000   15.880001   35.448001       6.0000     15.9994
  173   2 H    1       1.630000   16.210001   35.237998       1.0000      1.0079
  174   2 H    1       8.820001    1.010000   34.568000       1.0000      1.0079
  175   1 O    8       5.660000   19.750002   29.867999       6.0000     15.9994
  176   2 H    1       5.280000   20.690001   30.027999       1.0000      1.0079
  177   2 H    1       5.370000   19.720001   28.847998       1.0000      1.0079
  178   1 O    8     -11.570001   18.120001   34.227998       6.0000     15.9994
  179   2 H    1     -11.090001   18.380001   33.418000       1.0000      1.0079
  180   2 H    1     -10.900001   18.190001   34.988000       1.0000      1.0079
  181   1 O    8      -0.220000   13.590001   30.518000       6.0000     15.9994
  182   2 H    1       0.830000   13.410001   30.387999       1.0000      1.0079
  183   2 H    1      -0.690000   12.730000   30.297999       1.0000      1.0079
  184   1 O    8       2.710000    2.890000   30.058001       6.0000     15.9994
  185   2 H    1       2.200000    3.480000   29.527999       1.0000      1.0079
  186   2 H    1       3.660000    3.010000   29.827998       1.0000      1.0079
  187   1 O    8      16.210001    4.580000   32.957999       6.0000     15.9994
  188   2 H    1      16.060001    5.580000   32.918000       1.0000      1.0079
  189   2 H    1       0.310000    4.490000   32.728000       1.0000      1.0079
  190   1 O    8     -13.880000    6.390000   38.567998       6.0000     15.9994
  191   2 H    1     -13.370000    5.580000   38.467997       1.0000      1.0079
  192   2 H    1     -14.550000    6.540000   37.747998       1.0000      1.0079
  193   1 O    8       4.370000    1.130000   32.577998       6.0000     15.9994
  194   2 H    1       3.550000    1.190000   33.027999       1.0000      1.0079
  195   2 H    1       4.940000    1.880000   32.818000       1.0000      1.0079
  196   1 O    8     -16.090000   20.200001   38.567998       6.0000     15.9994
  197   2 H    1     -16.020000   19.430000   37.898000       1.0000      1.0079
  198   2 H    1     -15.210000   20.350000   38.968001       1.0000      1.0079
  199   1 O    8      10.410000   16.600000   34.338000       6.0000     15.9994
  200   2 H    1      10.170001   16.300001   35.228000       1.0000      1.0079
  201   2 H    1       9.650001   16.240002   33.738000       1.0000      1.0079
  202   1 O    8      10.410000   26.390001   37.718001       6.0000     15.9994
  203   2 H    1       9.880000   27.020000   37.158000       1.0000      1.0079
  204   2 H    1      10.040001   26.480003   38.617999       1.0000      1.0079
  205   1 O    8      -0.040000    1.400000   30.228000       6.0000     15.9994
  206   2 H    1      -9.460000   15.690001   30.087996       1.0000      1.0079
  207   2 H    1      -0.100000    2.410000   30.077998       1.0000      1.0079
  208   1 O    8      -1.970000    1.800000   37.907998       6.0000     15.9994
  209   2 H    1     -10.540000   17.260000   37.488000       1.0000      1.0079
  210   2 H    1      -9.400001   16.320002   38.158000       1.0000      1.0079
  211   1 O    8       4.440001   12.840000   37.858001       6.0000     15.9994
  212   2 H    1       4.250000   13.610001   37.258000       1.0000      1.0079
  213   2 H    1       3.640000   12.270001   37.918000       1.0000      1.0079
  214   1 O    8      -9.890000   11.340000   36.297999       6.0000     15.9994
  215   2 H    1      -9.210001   11.130000   35.577998       1.0000      1.0079
  216   2 H    1      -9.670001   12.180000   36.627997       1.0000      1.0079
  217   1 O    8       2.510000    2.970000   37.437999       6.0000     15.9994
  218   2 H    1       2.090000    3.610000   36.768000       1.0000      1.0079
  219   2 H    1       3.150000    2.620000   36.797999       1.0000      1.0079
  220   1 O    8      -4.110000    7.520000   29.768000       6.0000     15.9994
  221   2 H    1      -4.220000    8.070001   28.867999       1.0000      1.0079
  222   2 H    1      -4.440001    8.240001   30.408000       1.0000      1.0079
  223   1 O    8      -9.160001    0.130000   32.988000       6.0000     15.9994
  224   2 H    1     -10.040001    0.350000   32.658000       1.0000      1.0079
  225   2 H    1      -8.780001   -0.060000   32.117999       1.0000      1.0079
  226   1 O    8      -7.320001    8.740000   32.777999       6.0000     15.9994
  227   2 H    1      -6.830000    8.000000   33.158000       1.0000      1.0079
  228   2 H    1      -7.950000    8.380001   32.087998       1.0000      1.0079
  229   1 O    8      -2.730000    6.660000   37.297999       6.0000     15.9994
  230   2 H    1      -3.330000    6.440001   37.998000       1.0000      1.0079
  231   2 H    1      -2.060000    7.210000   37.707999       1.0000      1.0079
  232   1 O    8     -12.450000    0.710000   30.058001       6.0000     15.9994
  233   2 H    1     -12.650002    1.130000   30.907998       1.0000      1.0079
  234   2 H    1     -12.510000   -0.250000   30.268000       1.0000      1.0079
  235   1 O    8      13.130001   -3.800000   35.017999       6.0000     15.9994
  236   2 H    1      12.700001   -2.950000   34.908000       1.0000      1.0079
  237   2 H    1      13.840000   -3.700000   35.697999       1.0000      1.0079
  238   1 O    8      -8.900001    1.220000   39.008000       6.0000     15.9994
  239   2 H    1      -8.470000    1.920000   38.437999       1.0000      1.0079
  240   2 H    1      -9.860001    1.380000   38.908000       1.0000      1.0079
  241   1 O    8       1.310000    7.270000   36.598000       6.0000     15.9994
  242   2 H    1       0.530000    7.750000   37.017999       1.0000      1.0079
  243   2 H    1       1.760000    8.020000   36.167998       1.0000      1.0079
  244   1 O    8      -1.040000   -9.290000   32.717997       6.0000     15.9994
  245   2 H    1      -0.290000   -9.800000   33.187999       1.0000      1.0079
  246   2 H    1      -1.230000   -8.410000   33.237998       1.0000      1.0079
  247   1 O    8      -3.010000   10.820000   32.408000       6.0000     15.9994
  248   2 H    1      -3.430000   10.430001   33.267999       1.0000      1.0079
  249   2 H    1      -3.360000   11.770000   32.408000       1.0000      1.0079
  250   1 O    8      -8.090000   10.910001   39.898000       6.0000     15.9994
  251   2 H    1      -7.250000   11.270000   39.528001       1.0000      1.0079
  252   2 H    1      -8.970000   11.220001   39.487998       1.0000      1.0079
  253   1 O    8     -11.880001    4.280000   38.968001       6.0000     15.9994
  254   2 H    1     -10.970000    4.580000   39.178000       1.0000      1.0079
  255   2 H    1     -11.850000    3.290000   38.957999       1.0000      1.0079
  256   1 O    8      -4.550000   12.590000   30.007998       6.0000     15.9994
  257   2 H    1      -4.590000   12.850000   29.038001       1.0000      1.0079
  258   2 H    1      -3.590000   12.320002   30.058001       1.0000      1.0079
  259   1 O    8       8.320000    3.750000   36.438001       6.0000     15.9994
  260   2 H    1      -1.120000   18.390001   36.228000       1.0000      1.0079
  261   2 H    1       8.690001    2.820000   36.187999       1.0000      1.0079
  262   1 O    8      -3.080000   16.160000   38.757998       6.0000     15.9994
  263   2 H    1      -3.460000   15.670000   38.027999       1.0000      1.0079
  264   2 H    1      -3.360000   15.730000   39.647998       1.0000      1.0079
  265   1 O    8     -12.410001    0.570000   36.408000       6.0000     15.9994
  266   2 H    1     -11.530000    0.290000   35.918000       1.0000      1.0079
  267   2 H    1     -12.990000   -0.220000   36.267999       1.0000      1.0079
  268   1 O    8     -16.600000   11.970000   39.797999       6.0000     15.9994
  269   2 H    1     -17.010000   11.310000   40.457999       1.0000      1.0079
  270   2 H    1     -16.500000   12.800001   40.358001       1.0000      1.0079
  271   1 O    8       2.850000    9.370001   36.417998       6.0000     15.9994
  272   2 H    1       2.370000   10.160000   36.777999       1.0000      1.0079
  273   2 H    1       3.320000    9.760000   35.627999       1.0000      1.0079
  274   1 O    8      -7.150001   12.860001   32.557999       6.0000     15.9994
  275   2 H    1      -7.470000   13.830000   32.797999       1.0000      1.0079
  276   2 H    1      -7.340000   12.760000   31.597998       1.0000      1.0079
  277   1 O    8      -9.880000   23.540001   30.527999       6.0000     15.9994
  278   2 H    1     -10.470000   23.210001   29.787997       1.0000      1.0079
  279   2 H    1      -9.010000   23.220001   30.137999       1.0000      1.0079
  280   1 O    8      -5.970000   11.650001   38.448001       6.0000     15.9994
  281   2 H    1      -6.190000   12.110001   37.597998       1.0000      1.0079
  282   2 H    1      -5.750000   10.690001   38.187999       1.0000      1.0079
  283   1 O    8      -4.320000    2.520000   39.328000       6.0000     15.9994
  284   2 H    1      -4.580000    1.700000   39.738000       1.0000      1.0079
  285   2 H    1      -3.430000    2.410000   38.927998       1.0000      1.0079
  286   1 O    8       5.430000   10.470000   30.338000       6.0000     15.9994
  287   2 H    1       5.850000   11.290001   29.998000       1.0000      1.0079
  288   2 H    1       5.950000   10.370001   31.207999       1.0000      1.0079
  289   1 O    8       8.330001   13.940001   36.178000       6.0000     15.9994
  290   2 H    1      -8.370000   14.460001   36.957999       1.0000      1.0079
  291   2 H    1       7.670000   14.350000   35.568000       1.0000      1.0079
  292   1 O    8      -9.870001    9.340000   38.018000       6.0000     15.9994
  293   2 H    1      -9.860001   10.070001   37.317998       1.0000      1.0079
  294   2 H    1     -10.740000    9.170000   38.387999       1.0000      1.0079
  295   1 O    8      -2.140000   -1.720000   29.827998       6.0000     15.9994
  296   2 H    1      -1.170000   -1.550000   29.818000       1.0000      1.0079
  297   2 H    1      -2.490000   -0.790000   29.937999       1.0000      1.0079
  298   1 O    8     -11.270000    4.360000   36.248000       6.0000     15.9994
  299   2 H    1     -11.660000    4.410000   37.207999       1.0000      1.0079
  300   2 H    1     -11.400002    5.280000   35.897998       1.0000      1.0079
  301   3 Pt  78       1.780000    0.850000   26.887999      10.0000    195.0840
  302   3 Pt  78       4.520000    0.830000   26.728000      10.0000    195.0840
  303   3 Pt  78       7.280001    0.760000   26.827998      10.0000    195.0840
  304   3 Pt  78      10.110001    0.860000   26.908000      10.0000    195.0840
  305   3 Pt  78      12.890000    0.830000   26.838000      10.0000    195.0840
  306   3 Pt  78      15.680000    0.880000   26.797999      10.0000    195.0840
  307   3 Pt  78       3.100000    3.250000   26.847998      10.0000    195.0840
  308   3 Pt  78       5.880000    3.290000   26.818000      10.0000    195.0840
  309   3 Pt  78       8.670000    3.350000   26.908000      10.0000    195.0840
  310   3 Pt  78      11.550001    3.210000   26.808001      10.0000    195.0840
  311   3 Pt  78      14.330001    3.250000   26.678000      10.0000    195.0840
  312   3 Pt  78       0.230000    3.310000   26.808001      10.0000    195.0840
  313   3 Pt  78       4.440001    5.690000   26.987998      10.0000    195.0840
  314   3 Pt  78       7.280001    5.830000   26.857997      10.0000    195.0840
  315   3 Pt  78      10.130000    5.710001   26.948001      10.0000    195.0840
  316   3 Pt  78      12.950001    5.610001   26.687999      10.0000    195.0840
  317   3 Pt  78      -1.050000    5.710001   26.697997      10.0000    195.0840
  318   3 Pt  78       1.800000    5.670000   27.068000      10.0000    195.0840
  319   3 Pt  78       5.980001    8.170000   26.948001      10.0000    195.0840
  320   3 Pt  78       8.740000    8.120001   26.787997      10.0000    195.0840
  321   3 Pt  78      11.540001    8.160001   26.818000      10.0000    195.0840
  322   3 Pt  78      -2.550000    8.110001   26.738002      10.0000    195.0840
  323   3 Pt  78       0.220000    8.080000   26.808001      10.0000    195.0840
  324   3 Pt  78       3.110000    8.070001   26.847998      10.0000    195.0840
  325   3 Pt  78       7.290000   10.559999   26.818000      10.0000    195.0840
  326   3 Pt  78      10.050000   10.520000   26.968001      10.0000    195.0840
  327   3 Pt  78      -4.030000   10.530001   26.927996      10.0000    195.0840
  328   3 Pt  78      -1.160000   10.510000   26.897998      10.0000    195.0840
  329   3 Pt  78       1.600000   10.570001   26.917998      10.0000    195.0840
  330   3 Pt  78       4.370000   10.460000   26.787997      10.0000    195.0840
  331   3 Pt  78       8.530001   12.890000   26.838000      10.0000    195.0840
  332   3 Pt  78      -5.460000   12.840000   26.838000      10.0000    195.0840
  333   3 Pt  78      -2.650000   12.940001   26.808001      10.0000    195.0840
  334   3 Pt  78       0.200000   13.030001   26.757998      10.0000    195.0840
  335   3 Pt  78       3.040000   12.880001   26.827998      10.0000    195.0840
  336   3 Pt  78       5.860000   12.850000   26.917998      10.0000    195.0840
  337   3 Pt  78       0.200000    1.560000   24.547999      10.0000    195.0840
  338   3 Pt  78       2.930000    1.660000   24.478000      10.0000    195.0840
  339   3 Pt  78       5.950000    1.630000   24.527999      10.0000    195.0840
  340   3 Pt  78       8.640000    1.380000   24.608001      10.0000    195.0840
  341   3 Pt  78      11.430000    1.480000   24.538001      10.0000    195.0840
  342   3 Pt  78      14.320001    1.690000   24.457999      10.0000    195.0840
  343   3 Pt  78       1.630000    4.070000   24.547999      10.0000    195.0840
  344   3 Pt  78       4.490000    4.110000   24.507998      10.0000    195.0840
  345   3 Pt  78       7.350000    4.080000   24.468001      10.0000    195.0840
  346   3 Pt  78      10.110001    4.000000   24.437999      10.0000    195.0840
  347   3 Pt  78      12.900001    4.140000   24.357997      10.0000    195.0840
  348   3 Pt  78      -1.060000    4.060000   24.408000      10.0000    195.0840
  349   3 Pt  78       2.970000    6.500000   24.497996      10.0000    195.0840
  350   3 Pt  78       5.730000    6.500000   24.507998      10.0000    195.0840
  351   3 Pt  78       8.680000    6.400001   24.568000      10.0000    195.0840
  352   3 Pt  78      11.510000    6.410000   24.538001      10.0000    195.0840
  353   3 Pt  78      -2.560000    6.480000   24.457999      10.0000    195.0840
  354   3 Pt  78       0.320000    6.490001   24.497996      10.0000    195.0840
  355   3 Pt  78       4.500000    8.920000   24.427996      10.0000    195.0840
  356   3 Pt  78       7.190001    8.900001   24.547999      10.0000    195.0840
  357   3 Pt  78      10.050000    8.810000   24.527999      10.0000    195.0840
  358   3 Pt  78      -4.020000    8.810000   24.597998      10.0000    195.0840
  359   3 Pt  78      -1.120000    8.890000   24.487998      10.0000    195.0840
  360   3 Pt  78       1.690000    8.910000   24.408000      10.0000    195.0840
  361   3 Pt  78       5.850000   11.400002   24.408000      10.0000    195.0840
  362   3 Pt  78       8.670000   11.340000   24.497996      10.0000    195.0840
  363   3 Pt  78      -5.390000   11.220001   24.518000      10.0000    195.0840
  364   3 Pt  78      -2.540000   11.220001   24.417998      10.0000    195.0840
  365   3 Pt  78       0.250000   11.160001   24.568000      10.0000    195.0840
  366   3 Pt  78       2.970000   11.390000   24.527999      10.0000    195.0840
  367   3 Pt  78       7.180000   13.750001   24.538001      10.0000    195.0840
  368   3 Pt  78      -6.770000   13.760000   24.577998      10.0000    195.0840
  369   3 Pt  78      -3.940000   13.710001   24.547999      10.0000    195.0840
  370   3 Pt  78      -1.210000   13.750001   24.478000      10.0000    195.0840
  371   3 Pt  78       1.590000   13.670001   24.338000      10.0000    195.0840
  372   3 Pt  78       4.450000   13.870001   24.487998      10.0000    195.0840
  373   3 Pt  78      -8.280001   14.530001   22.137999      10.0000    195.0840
  374   3 Pt  78      -5.500000   14.530001   22.318000      10.0000    195.0840
  375   3 Pt  78      -2.610000   14.480001   22.177996      10.0000    195.0840
  376   3 Pt  78       0.140000   14.400001   22.158000      10.0000    195.0840
  377   3 Pt  78       2.910000   14.520000   22.117999      10.0000    195.0840
  378   3 Pt  78       5.770000   14.510001   22.068000      10.0000    195.0840
  379   3 Pt  78       1.580000    2.420000   22.217997      10.0000    195.0840
  380   3 Pt  78       4.500000    2.450000   22.128001      10.0000    195.0840
  381   3 Pt  78       7.260000    2.330000   22.158000      10.0000    195.0840
  382   3 Pt  78      10.050000    2.250000   22.147998      10.0000    195.0840
  383   3 Pt  78      12.930001    2.330000   22.107997      10.0000    195.0840
  384   3 Pt  78      -1.220000    2.300000   22.088000      10.0000    195.0840
  385   3 Pt  78       3.100000    4.770000   22.237998      10.0000    195.0840
  386   3 Pt  78       5.790000    4.790000   22.177996      10.0000    195.0840
  387   3 Pt  78       8.640000    4.780000   22.128001      10.0000    195.0840
  388   3 Pt  78      11.380000    4.730000   22.117999      10.0000    195.0840
  389   3 Pt  78      -2.640000    4.790000   22.137999      10.0000    195.0840
  390   3 Pt  78       0.290000    4.700000   22.158000      10.0000    195.0840
  391   3 Pt  78       4.410000    7.280001   22.147998      10.0000    195.0840
  392   3 Pt  78       7.190001    7.170000   22.147998      10.0000    195.0840
  393   3 Pt  78       9.950001    7.260000   22.237998      10.0000    195.0840
  394   3 Pt  78      -4.190001    7.220001   22.198001      10.0000    195.0840
  395   3 Pt  78      -1.220000    7.120000   22.128001      10.0000    195.0840
  396   3 Pt  78       1.650000    7.230001   22.167998      10.0000    195.0840
  397   3 Pt  78       5.800000    9.700001   22.158000      10.0000    195.0840
  398   3 Pt  78       8.610001    9.600000   22.297999      10.0000    195.0840
  399   3 Pt  78      -5.370000    9.670001   22.268000      10.0000    195.0840
  400   3 Pt  78      -2.540000    9.530001   22.137999      10.0000    195.0840
  401   3 Pt  78       0.230000    9.630001   22.158000      10.0000    195.0840
  402   3 Pt  78       3.010000    9.700001   22.077998      10.0000    195.0840
  403   3 Pt  78       7.210000   12.120000   22.167998      10.0000    195.0840
  404   3 Pt  78      -6.960001   12.120000   22.287997      10.0000    195.0840
  405   3 Pt  78      -4.000000   12.070000   22.187999      10.0000    195.0840
  406   3 Pt  78      -1.240000   11.970000   22.158000      10.0000    195.0840
  407   3 Pt  78       1.570000   12.100000   22.117999      10.0000    195.0840
  408   3 Pt  78       4.340000   12.190001   22.137999      10.0000    195.0840
  409   3 Pt  78       1.580000    0.720000   19.930000      10.0000    195.0840
  410   3 Pt  78       4.430000    0.610000   20.030000      10.0000    195.0840
  411   3 Pt  78       7.160000    0.720000   19.900000      10.0000    195.0840
  412   3 Pt  78       9.920000    0.720000   19.780000      10.0000    195.0840
  413   3 Pt  78      12.760000    0.620000   19.710000      10.0000    195.0840
  414   3 Pt  78      15.530001    0.670000   19.820000      10.0000    195.0840
  415   3 Pt  78       3.040000    3.080000   19.910000      10.0000    195.0840
  416   3 Pt  78       5.740000    3.180000   19.870000      10.0000    195.0840
  417   3 Pt  78       8.530001    3.150000   19.890000      10.0000    195.0840
  418   3 Pt  78      11.350001    3.060000   19.820000      10.0000    195.0840
  419   3 Pt  78      14.240000    3.070000   19.810000      10.0000    195.0840
  420   3 Pt  78       0.130000    3.040000   19.820000      10.0000    195.0840
  421   3 Pt  78       4.390000    5.600000   19.850000      10.0000    195.0840
  422   3 Pt  78       7.190001    5.630000   19.900000      10.0000    195.0840
  423   3 Pt  78       9.890000    5.650000   19.750000      10.0000    195.0840
  424   3 Pt  78      12.730000    5.540000   19.920000      10.0000    195.0840
  425   3 Pt  78      -1.250000    5.500000   19.890000      10.0000    195.0840
  426   3 Pt  78       1.650000    5.420001   19.890000      10.0000    195.0840
  427   3 Pt  78       5.790000    8.110001   19.870000      10.0000    195.0840
  428   3 Pt  78       8.590000    8.070001   19.880000      10.0000    195.0840
  429   3 Pt  78      11.410000    8.010000   19.920000      10.0000    195.0840
  430   3 Pt  78      -2.690000    7.860000   19.900000      10.0000    195.0840
  431   3 Pt  78       0.190000    7.920001   19.930000      10.0000    195.0840
  432   3 Pt  78       2.990000    7.990000   19.820000      10.0000    195.0840
  433   3 Pt  78       7.230001   10.540000   19.920000      10.0000    195.0840
  434   3 Pt  78       9.970000   10.530001   19.910000      10.0000    195.0840
  435   3 Pt  78      -4.010000   10.450001   19.950000      10.0000    195.0840
  436   3 Pt  78      -1.240000   10.340000   19.790000      10.0000    195.0840
  437   3 Pt  78       1.460000   10.470000   19.790000      10.0000    195.0840
  438   3 Pt  78       4.340000   10.440001   19.850000      10.0000    195.0840
  439   3 Pt  78       8.600000   12.910000   19.860000      10.0000    195.0840
  440   3 Pt  78      -5.450000   12.810000   20.120000      10.0000    195.0840
  441   3 Pt  78      -2.650000   12.790001   19.880000      10.0000    195.0840
  442   3 Pt  78       0.030000   12.800001   19.850000      10.0000    195.0840
  443   3 Pt  78       2.890000   12.850000   19.720001      10.0000    195.0840
  444   3 Pt  78       5.680000   12.890000   19.800000      10.0000    195.0840
  445   3 Pt  78       0.110000    1.470000   17.530000      10.0000    195.0840
  446   3 Pt  78       2.920000    1.500000   17.620000      10.0000    195.0840
  447   3 Pt  78       5.740000    1.530000   17.630000      10.0000    195.0840
  448   3 Pt  78       8.480000    1.500000   17.490000      10.0000    195.0840
  449   3 Pt  78      11.300000    1.470000   17.510000      10.0000    195.0840
  450   3 Pt  78      14.130001    1.500000   17.330000      10.0000    195.0840
  451   3 Pt  78       1.580000    3.800000   17.520000      10.0000    195.0840
  452   3 Pt  78       4.400000    3.870000   17.570000      10.0000    195.0840
  453   3 Pt  78       7.100000    3.970000   17.550000      10.0000    195.0840
  454   3 Pt  78       9.930000    3.950000   17.530000      10.0000    195.0840
  455   3 Pt  78      12.720001    3.880000   17.430000      10.0000    195.0840
  456   3 Pt  78      -1.310000    3.900000   17.520000      10.0000    195.0840
  457   3 Pt  78       2.870000    6.230001   17.500000      10.0000    195.0840
  458   3 Pt  78       5.710001    6.430000   17.540000      10.0000    195.0840
  459   3 Pt  78       8.530001    6.400001   17.520000      10.0000    195.0840
  460   3 Pt  78      11.240001    6.410000   17.450000      10.0000    195.0840
  461   3 Pt  78      -2.770000    6.250000   17.650000      10.0000    195.0840
  462   3 Pt  78       0.030000    6.210001   17.500000      10.0000    195.0840
  463   3 Pt  78       4.300000    8.790001   17.530000      10.0000    195.0840
  464   3 Pt  78       7.220001    8.810000   17.580000      10.0000    195.0840
  465   3 Pt  78       9.970000    8.800000   17.610000      10.0000    195.0840
  466   3 Pt  78      -4.080000    8.830000   17.670000      10.0000    195.0840
  467   3 Pt  78      -1.360000    8.650001   17.610000      10.0000    195.0840
  468   3 Pt  78       1.510000    8.630000   17.520000      10.0000    195.0840
  469   3 Pt  78       5.820000   11.260000   17.560000      10.0000    195.0840
  470   3 Pt  78       8.590000   11.240001   17.600000      10.0000    195.0840
  471   3 Pt  78      -5.470000   11.260000   17.700000      10.0000    195.0840
  472   3 Pt  78      -2.690000   11.140001   17.440000      10.0000    195.0840
  473   3 Pt  78       0.080000   11.180000   17.460000      10.0000    195.0840
  474   3 Pt  78       2.900000   11.130000   17.530000      10.0000    195.0840
  475   3 Pt  78       7.160000   13.710001   17.420000      10.0000    195.0840
  476   3 Pt  78      -6.930000   13.670001   17.590000      10.0000    195.0840
  477   3 Pt  78      -4.150000   13.720001   17.680000      10.0000    195.0840
  478   3 Pt  78      -1.410000   13.680000   17.560000      10.0000    195.0840
  479   3 Pt  78       1.440000   13.660001   17.540000      10.0000    195.0840
  480   3 Pt  78       4.260000   13.590001   17.390000      10.0000    195.0840
  481   3 Pt  78      -8.230000   14.410001   15.030000      10.0000    195.0840
  482   3 Pt  78      -5.430000   14.540001   15.400000      10.0000    195.0840
  483   3 Pt  78      -2.790000   14.440001   15.250000      10.0000    195.0840
  484   3 Pt  78      -0.010000   14.480001   15.170001      10.0000    195.0840
  485   3 Pt  78       2.910000   14.440001   15.170001      10.0000    195.0840
  486   3 Pt  78       5.800000   14.470000   15.000000      10.0000    195.0840
  487   3 Pt  78       1.560000    2.280000   15.030000      10.0000    195.0840
  488   3 Pt  78       4.270000    2.300000   15.170001      10.0000    195.0840
  489   3 Pt  78       7.040000    2.210000   15.000000      10.0000    195.0840
  490   3 Pt  78       9.910001    2.220000   15.270000      10.0000    195.0840
  491   3 Pt  78      12.760000    2.310000   15.050000      10.0000    195.0840
  492   3 Pt  78      -1.230000    2.310000   15.050000      10.0000    195.0840
  493   3 Pt  78       2.970000    4.730000   15.080000      10.0000    195.0840
  494   3 Pt  78       5.690000    4.800000   15.250000      10.0000    195.0840
  495   3 Pt  78       8.430000    4.630000   15.200000      10.0000    195.0840
  496   3 Pt  78      11.370001    4.650001   15.060000      10.0000    195.0840
  497   3 Pt  78      -2.680000    4.820000   15.170001      10.0000    195.0840
  498   3 Pt  78       0.210000    4.660000   15.150000      10.0000    195.0840
  499   3 Pt  78       4.360000    7.100000   15.280000      10.0000    195.0840
  500   3 Pt  78       7.220001    7.140000   15.160000      10.0000    195.0840
  501   3 Pt  78       9.980000    7.120000   15.140000      10.0000    195.0840
  502   3 Pt  78      -4.150000    7.070000   15.350000      10.0000    195.0840
  503   3 Pt  78      -1.340000    7.250000   15.230000      10.0000    195.0840
  504   3 Pt  78       1.510000    7.250000   15.160000      10.0000    195.0840
  505   3 Pt  78       5.770000    9.710001   15.400000      10.0000    195.0840
[...]
 -                                                                             -
 -                                DBCSR STATISTICS                             -
 -                                                                             -
 -------------------------------------------------------------------------------
 COUNTER                                    TOTAL       BLAS       SMM       ACC
 flops     5 x     5 x   124           7351848400       0.0%    100.0%      0.0%
 flops     5 x    13 x   124           9372893400       0.0%    100.0%      0.0%
 flops    13 x     5 x   124           9374795560       0.0%    100.0%      0.0%
 flops    13 x    13 x   124          11263640440       0.0%    100.0%      0.0%
 flops     5 x     5 x    96          11383507200       0.0%    100.0%      0.0%
 flops     5 x    13 x    96          14512867200       0.0%    100.0%      0.0%
 flops    13 x     5 x    96          14515812480       0.0%    100.0%      0.0%
 flops    20 x    13 x   124          16046621760       0.0%    100.0%      0.0%
 flops    13 x    20 x   124          16084664960       0.0%    100.0%      0.0%
 flops    20 x     5 x   124          17189673600       0.0%    100.0%      0.0%
 flops     5 x    20 x   124          17227716800       0.0%    100.0%      0.0%
 flops    13 x    13 x    96          17440475520       0.0%    100.0%      0.0%
 flops    20 x    13 x    96          24846382080       0.0%    100.0%      0.0%
 flops    13 x    20 x    96          24905287680       0.0%    100.0%      0.0%
 flops    20 x     5 x    96          26616268800       0.0%    100.0%      0.0%
 flops     5 x    20 x    96          26675174400       0.0%    100.0%      0.0%
 flops     5 x     5 x   128          98657062400       0.0%    100.0%      0.0%
 flops     5 x    13 x   128         125778182400       0.0%    100.0%      0.0%
 flops    13 x     5 x   128         125803708160       0.0%    100.0%      0.0%
 flops    20 x    20 x   124         137166220800       0.0%    100.0%      0.0%
 flops    13 x    13 x   128         151150787840       0.0%    100.0%      0.0%
 flops    20 x    20 x    96         212386406400       0.0%    100.0%      0.0%
 flops    20 x    13 x   128         215335311360       0.0%    100.0%      0.0%
 flops    13 x    20 x   128         215845826560       0.0%    100.0%      0.0%
 flops    20 x     5 x   128         230674329600       0.0%    100.0%      0.0%
 flops     5 x    20 x   128         231184844800       0.0%    100.0%      0.0%
 flops    20 x    20 x   128        1840682188800       0.0%    100.0%      0.0%
 flops inhomo. stacks                           0       0.0%      0.0%      0.0%
 flops total                         3.849472E+12       0.0%    100.0%      0.0%
 flops max/rank                     35.986635E+09       0.0%    100.0%      0.0%
 matmuls inhomo. stacks                         0       0.0%      0.0%      0.0%
 matmuls total                           94181936       0.0%    100.0%      0.0%
 number of processed stacks               1078992       0.0%    100.0%      0.0%
 average stack size                                     0.0      87.3       0.0
 marketing flops                     7.967799E+12
 -------------------------------------------------------------------------------
 # multiplications                             59
 max memory usage/rank               1.639318E+09
 # max total images/rank                        2
 # max 3D layers                                1
 # MPI messages exchanged                  219008
 MPI messages size (bytes):
  total size                       136.109310E+09
  min size                         315.648000E+03
  max size                         850.944000E+03
  average size                     621.481000E+03
 MPI breakdown and total messages size (bytes):
             size <=      128                   0                        0
       128 < size <=     8192                   0                        0
      8192 < size <=    32768                   0                        0
     32768 < size <=   131072                   0                        0
    131072 < size <=  4194304              219008             136109318400
   4194304 < size <= 16777216                   0                        0
  16777216 < size                               0                        0
 -------------------------------------------------------------------------------

 *** WARNING in dbcsr_mm.F:290 :: Using a non-square number of MPI ranks ***
 *** might lead to poor performance. Used ranks: 128 Suggested: 121 256  ***

 -------------------------------------------------------------------------------
 -                                                                             -
 -                      DBCSR MESSAGE PASSING PERFORMANCE                      -
 -                                                                             -
 -------------------------------------------------------------------------------
 ROUTINE             CALLS      AVE VOLUME [Bytes]
 MP_Bcast               28                     12.
 MP_Allreduce          487                     10.
 MP_Alltoall          1664                 594591.
 MP_ISend             3776                 294020.
 MP_IRecv             3776                 287412.
 -------------------------------------------------------------------------------

 -------------------------------------------------------------------------------
 -                                                                             -
 -                                DBM STATISTICS                               -
 -                                                                             -
 -------------------------------------------------------------------------------
    M  x    N  x    K                                          COUNT     PERCENT
 -------------------------------------------------------------------------------

 -------------------------------------------------------------------------------
 -                                                                             -
 -                                GRID STATISTICS                              -
 -                                                                             -
 -------------------------------------------------------------------------------
 LP    KERNEL             BACKEND                              COUNT     PERCENT
 4     collocate general  REF                               23970638      22.01%
 4     integrate general  REF                               23851283      21.90%
 3     collocate general  REF                               16928693      15.54%
 3     integrate general  REF                               16869466      15.49%
 2     collocate general  REF                               13434300      12.33%
 2     integrate general  REF                               13206600      12.12%
 5     integrate general  REF                                 406282       0.37%
 0     collocate general  REF                                 132096       0.12%
 0     integrate general  REF                                  66048       0.06%
 1     integrate general  REF                                  66048       0.06%
 -------------------------------------------------------------------------------

 MEMORY| Estimated peak process memory [MiB]                                1827

 -------------------------------------------------------------------------------
 ----                             MULTIGRID INFO                            ----
 -------------------------------------------------------------------------------
 count for grid        1:        1097639          cutoff [a.u.]          200.00
 count for grid        2:        1093002          cutoff [a.u.]           66.67
 count for grid        3:         718075          cutoff [a.u.]           22.22
 count for grid        4:         557518          cutoff [a.u.]            7.41
 total gridlevel count  :        3466234

 -------------------------------------------------------------------------------
 -                                                                             -
 -                         MESSAGE PASSING PERFORMANCE                         -
 -                                                                             -
 -------------------------------------------------------------------------------

 ROUTINE             CALLS      AVE VOLUME [Bytes]
 MP_Group                4
 MP_Bcast              280                2038154.
 MP_Allreduce         3913                  27730.
 MP_Sync               122
 MP_Alltoall          3552               16700471.
 MP_SendRecv           508                   6060.
 MP_ISendRecv        29972                  61740.
 MP_Wait             52838
 MP_comm_split          59
 MP_ISend            21548                 256195.
 MP_IRecv            21548                 256195.
 MP_Recv               183                1694720.
 MP_Write_All            3                1797408.
 -------------------------------------------------------------------------------


 -------------------------------------------------------------------------------
 -                                                                             -
 -                           R E F E R E N C E S                               -
 -                                                                             -
 -------------------------------------------------------------------------------
 
 CP2K version 2022.1, the CP2K developers group (2022).
 CP2K is freely available from https://www.cp2k.org/ .

 Kuehne,Thomas D.; Iannuzzi,Marcella; Del Ben,Mauro;
 Rybkin,Vladimir V.; Seewald,Patrick; Stein,Frederick; Laino,Teodoro;
 Khaliullin,Rustam Z.; Schuett,Ole; Schiffmann,Florian; Golze,Dorothea;
 Wilhelm,Jan; Chulkov,Sergey; Bani-Hashemian,Mohammad Hossein;
 Weber,Valery; Borstnik,Urban; Taillefumier,Mathieu;
 Jakobovits,Alice Shoshana; Lazzaro,Alfio; Pabst,Hans; Mueller,Tiziano;
 Schade,Robert; Guidon,Manuel; Andermatt,Samuel; Holmberg,Nico;
 Schenter,Gregory K.; Hehn,Anna; Bussy,Augustin; Belleflamme,Fabian;
 Tabacchi,Gloria; Gloess,Andreas; Lass,Michael; Bethune,Iain;
 Mundy,Christopher J.; Plessl,Christian; Watkins,Matt;
 VandeVondele,Joost; Krack,Matthias; Hutter,Juerg. 
 The Journal of Chemical Physics, 152 (19), (2020). 
 CP2K: An electronic structure and molecular dynamics software package -
 Quickstep: Efficient and accurate electronic structure calculations.
 https://doi.org/10.1063/5.0007045

 Goerigk, Lars; Hansen, Andreas; Bauer, Christoph; Ehrlich, Stephan;
 Najibi, Asim; Grimme, Stefan. , 19 (48), (2017). 
 A look at the density functional theory zoo with the advanced GMTKN55 database
 for general main group thermochemistry, kinetics and noncovalent interactions.
 https://doi.org/10.1039/C7CP04913G

 Bani-Hashemian, MH; Bruck, S; Luisier, M; VandeVondele, J. 
 JOURNAL OF CHEMICAL PHYSICS, 144 (4), 044113 (2016). 
 A generalized Poisson solver for first-principles device simulations.
 https://doi.org/10.1063/1.4940796

 Schuett, Ole; Messmer, Peter; Hutter, Juerg; VandeVondele, Joost. 
 Electronic Structure Calculations on Graphics Processing Units, John
 Wiley & Sons, Ltd, 173-190 (2016). 
 GPU-Accelerated Sparse Matrix-Matrix Multiplication for
 Linear Scaling Density Functional Theory.
 https://doi.org/10.1002/9781118670712.ch8

 Heinecke, A; Henry, G; Hutchinson, M; Pabst, H. 
 Proceedings of Intl. Supercomputing Conference, 981-991 (2016). 
 LIBXSMM: Accelerating Small Matrix Multiplications
 by Runtime Code Generation.
 https://doi.org/10.1109/SC.2016.83

 Borstnik, U; VandeVondele, J; Weber, V; Hutter, J. 
 PARALLEL COMPUTING, 40 (5-6), 47-58 (2014). 
 Sparse matrix multiplication: The distributed block-compressed sparse
 row library.
 https://doi.org/10.1016/j.parco.2014.03.012

 Hutter, J; Iannuzzi, M; Schiffmann, F; VandeVondele, J. 
 WIREs Comput Mol Sci., 4 (1), 15-25 (2014). 
 CP2K: atomistic simulations of condensed matter systems.
 https://doi.org/10.1002/wcms.1159

 Marek, A; Blum, V; Johanni, R; Havu, V; Lang, B; Auckenthaler, T;
 Heinecke, A; Bungartz, H; Lederer, H. 
 Journal of Physics: Condensed Matter, 26 (21), (2014). 
 The ELPA library: scalable parallel eigenvalue solutions for
 electronic structure
 theory and computational science.
 https://doi.org/10.1088/0953-8984/26/21/213201

 Grimme, S; Ehrlich, S; Goerigk, L. 
 JOURNAL OF COMPUTATIONAL CHEMISTRY, 32, 1456 (2011). 
 Effect of the damping function in dispersion corrected density functional theory.
 https://doi.org/10.1002/jcc.21759

 Grimme, S; Antony, J; Ehrlich, S; Krieg, H. 
 JOURNAL OF CHEMICAL PHYSICS, 132 (15), 154104 (2010). 
 A consistent and accurate ab initio parametrization of density
 functional dispersion correction (DFT-D) for the 94 elements H-Pu.
 https://doi.org/10.1063/1.3382344

 VandeVondele, J; Hutter, J. 
 JOURNAL OF CHEMICAL PHYSICS, 127 (11), 114105 (2007). 
 Gaussian basis sets for accurate calculations on molecular systems in
 gas and condensed phases.
 https://doi.org/10.1063/1.2770708

 Krack, M. 
 THEORETICAL CHEMISTRY ACCOUNTS, 114 (1-3), 145-152 (2005). 
 Pseudopotentials for H to Kr optimized for gradient-corrected
 exchange-correlation functionals.
 https://doi.org/10.1007/s00214-005-0655-y

 VandeVondele, J; Krack, M; Mohamed, F; Parrinello, M; Chassaing, T;
 Hutter, J. COMPUTER PHYSICS COMMUNICATIONS, 167 (2), 103-128 (2005). 
 QUICKSTEP: Fast and accurate density functional calculations using a
 mixed Gaussian and plane waves approach.
 https://doi.org/10.1016/j.cpc.2004.12.014

 Frigo, M; Johnson, SG. 
 PROCEEDINGS OF THE IEEE, 93 (2), 216-231 (2005). 
 The design and implementation of FFTW3.
 https://doi.org/10.1109/JPROC.2004.840301

 Hartwigsen, C; Goedecker, S; Hutter, J. 
 PHYSICAL REVIEW B, 58 (7), 3641-3662 (1998). 
 Relativistic separable dual-space Gaussian pseudopotentials from H to Rn.
 https://doi.org/10.1103/PhysRevB.58.3641

 Lippert, G; Hutter, J; Parrinello, M. 
 MOLECULAR PHYSICS, 92 (3), 477-487 (1997). 
 A hybrid Gaussian and plane wave density functional scheme.
 https://doi.org/10.1080/002689797170220

 Perdew, JP; Burke, K; Ernzerhof, M. 
 PHYSICAL REVIEW LETTERS, 77 (18), 3865-3868 (1996). 
 Generalized gradient approximation made simple.
 https://doi.org/10.1103/PhysRevLett.77.3865

 Goedecker, S; Teter, M; Hutter, J. 
 PHYSICAL REVIEW B, 54 (3), 1703-1710 (1996). 
 Separable dual-space Gaussian pseudopotentials.
 https://doi.org/10.1103/PhysRevB.54.1703


 -------------------------------------------------------------------------------
 -                                                                             -
 -                                T I M I N G                                  -
 -                                                                             -
 -------------------------------------------------------------------------------
 SUBROUTINE                       CALLS  ASD         SELF TIME        TOTAL TIME
                                MAXIMUM       AVERAGE  MAXIMUM  AVERAGE  MAXIMUM
 CP2K                                 1  1.0    0.087    0.099  408.079  408.081
 qs_forces                            1  2.0    0.002    0.003  407.502  407.505
 qs_energies                          1  3.0    0.000    0.001  401.358  401.367
 scf_env_do_scf                       1  4.0    0.000    0.001  393.033  393.171
 scf_env_do_scf_inner_loop           58  5.0    0.003    0.007  393.033  393.171
 rebuild_ks_matrix                   59  6.9    0.000    0.000  209.476  209.520
 qs_ks_build_kohn_sham_matrix        59  7.9    0.009    0.010  209.476  209.520
 qs_ks_update_qs_env                 58  6.0    0.000    0.001  205.535  205.579
 pw_transfer                       3062 12.2    0.222    0.280  131.598  134.117
 fft_wrap_pw1pw2                   3062 13.2    0.030    0.035  131.376  133.857
 fft_wrap_pw1pw2_200               2708 14.4    8.998   10.619  129.589  132.048
 pw_poisson_solve                    59  8.9    0.005    0.014  113.211  113.256
 qs_scf_new_mos                      58  6.0    0.002    0.009  112.667  112.909
 fft3d_ps                          3062 15.2   38.463   42.798  105.322  108.962
 implicit_poisson_solver_mixed_      59  9.9    2.412    2.954  107.293  107.363
 eigensolver                         58  7.0    0.005    0.007  106.144  106.502
 derive_fft                         352 12.1    0.022    0.029   75.339   75.566
 cp_fm_diag_elpa                     59  8.0    0.001    0.001   74.270   74.471
 cp_fm_redistribute_end              59  9.0    9.702   73.566    9.822   73.631
 cp_fm_diag_elpa_base                59  9.0   62.844   71.945   63.450   72.662
 mp_alltoall_z22v                  3062 17.2   55.623   69.115   55.623   69.115
 qs_rho_update_rho_low               59  6.0    0.000    0.001   65.223   65.236
 calculate_rho_elec                  59  7.0    0.115    0.141   65.223   65.236
 apply_P_operator                   293 11.2    1.561    1.742   64.182   64.392
 sum_up_and_integrate                59  8.9    0.321    0.393   63.918   63.966
 integrate_v_rspace                  59  9.9    0.002    0.003   63.597   63.740
 grid_collocate_task_list            59  8.0   43.206   51.005   43.206   51.005
 grid_integrate_task_list            59 10.9   40.050   46.129   40.050   46.129
 x_to_yz                           1764 16.4    7.512   10.122   42.015   43.961
 cp_fm_triangular_multiply          174  8.0   32.977   33.418   32.977   33.418
 yz_to_x                            944 16.4    2.591    2.984   23.476   32.140
 rs_pw_transfer                     476 10.4    0.006    0.007   27.561   31.988
 qs_vxc_create                       59  8.9    0.002    0.002   29.021   29.372
 xc_vxc_pw_create                    59  9.9    0.503    0.625   29.019   29.371
 density_rs2pw                       59  8.0    0.004    0.004   20.634   24.740
 xc_pw_derive                       354 11.9    0.005    0.006   20.321   22.510
 apply_poisson_operator_fft          59 10.9    0.001    0.001   18.875   19.183
 apply_inv_laplace_operator_fft     178 11.6    0.447    0.518   17.159   17.807
 potential_pw2rs                     59 10.9    0.018    0.019   16.693   16.827
 rs_pw_transfer_RS2PW_200            61 10.0    3.999    4.466   11.690   16.094
 mp_waitany                       21548 12.4   11.493   15.951   11.493   15.951
 xc_pw_divergence                    59 10.9    0.003    0.004   13.871   15.535
 xc_rho_set_and_dset_create          59 10.9    0.293    0.348   14.075   14.911
 ps_implicit_compute_error_fft      117 10.9    0.735    0.901   12.656   13.534
 ps_implicit_compute_veps            59 10.9    0.342    0.405   13.065   13.282
 pw_scatter_p                      1941 15.4   10.869   12.827   10.869   12.827
 mp_alltoall_d11v                   833 10.3    8.611   12.774    8.611   12.774
 rs_gather_matrices                  59 10.9    0.070    0.093    6.841   10.870
 gspace_mixing                       57  6.0    0.109    0.135   10.261   10.263
 rs_pw_transfer_PW2RS_200            61 12.8    4.618    4.830    9.580    9.876
 pw_derive                         1410 13.1    8.939    9.578    8.939    9.578
 -------------------------------------------------------------------------------

 The number of warnings for this run is : 1
 
 -------------------------------------------------------------------------------
  **** **** ******  **  PROGRAM ENDED AT                 2023-12-02 02:10:48.528
 ***** ** ***  *** **   PROGRAM RAN ON                                     cu011
 **    ****   ******    PROGRAM RAN BY                                     jxzhu
 ***** **    ** ** **   PROGRAM PROCESS ID                                 25875
  **** **  *******  **  PROGRAM STOPPED IN /public/home/jxzhu/tmp_calc/ae09acc42
                                           5322201539737d0505f85856ffc7918/calc/
                                           000400.000/search_hi.000000
