 DBCSR| CPU Multiplication driver                                           XSMM
 DBCSR| Multrec recursion limit                                              512
 DBCSR| Multiplication stack size                                           1000
 DBCSR| Maximum elements for images                                    UNLIMITED
 DBCSR| Multiplicative factor virtual images                                   1
 DBCSR| Use multiplication densification                                       T
 DBCSR| Multiplication size stacks                                             3
 DBCSR| Use memory pool for CPU allocation                                     F
 DBCSR| Number of 3D layers                                               SINGLE
 DBCSR| Use MPI memory allocation                                              F
 DBCSR| Use RMA algorithm                                                      F
 DBCSR| Use Communication thread                                               T
 DBCSR| Communication thread load                                             87
 DBCSR| MPI: My node id                                                        0
 DBCSR| MPI: Number of nodes                                                  64
 DBCSR| OMP: Current number of threads                                         1
 DBCSR| OMP: Max number of threads                                             1
 DBCSR| Split modifier for TAS multiplication algorithm                  1.0E+00


  **** **** ******  **  PROGRAM STARTED AT               2024-07-29 22:19:22.522
 ***** ** ***  *** **   PROGRAM STARTED ON                                 cu324
 **    ****   ******    PROGRAM STARTED BY                                 jxzhu
 ***** **    ** ** **   PROGRAM PROCESS ID                                 25362
  **** **  *******  **  PROGRAM STARTED IN /public/home/jxzhu/tmp_calc/9d643e66b
                                           35f886dcfbeec425b872811054e1b1a/calc.
                                           001/task.003.000001

 CP2K| version string:                                       CP2K version 2022.1
 CP2K| source code revision number:                                  git:2caeb6f
 CP2K| cp2kflags: omp libint fftw3 libxc elpa parallel mpi3 scalapack cosma xsmm
 CP2K|             plumed2 spglib mkl sirius libvori libbqb
 CP2K| is freely available from                            https://www.cp2k.org/
 CP2K| Program compiled at                           Mon Jul 3 17:37:06 CST 2023
 CP2K| Program compiled on                                                 mu003
 CP2K| Program compiled for                                                local
 CP2K| Data directory path                             /public/home/jxzhu/basis/
 CP2K| Input file name                                                 input.inp
 
 GLOBAL| Force Environment number                                              1
 GLOBAL| Basis set file name                                        BASIS_MOLOPT
 GLOBAL| Potential file name                                      GTH_POTENTIALS
 GLOBAL| MM Potential file name                                     MM_POTENTIAL
 GLOBAL| Coordinate file name                                          coord.xyz
 GLOBAL| Method name                                                        CP2K
 GLOBAL| Project name                                                       cp2k
 GLOBAL| Run type                                                   ENERGY_FORCE
 GLOBAL| FFT library                                                       FFTW3
 GLOBAL| Diagonalization library                                            ELPA
 GLOBAL| Minimum number of eigenvectors for ELPA usage                        16
 GLOBAL| Orthonormality check for eigenvectors                          DISABLED
 GLOBAL| Matrix multiplication library                                     COSMA
 GLOBAL| All-to-all communication in single precision                          F
 GLOBAL| FFTs using library dependent lengths                                  F
 GLOBAL| Grid backend                                                       AUTO
 GLOBAL| Global print level                                               MEDIUM
 GLOBAL| MPI I/O enabled                                                       T
 GLOBAL| Total number of message passing processes                            64
 GLOBAL| Number of threads for this process                                    1
 GLOBAL| This output is from process                                           0
 GLOBAL| Stack size for threads created by OpenMP (OMP_STACKSIZE)        default
 GLOBAL| CPU model name                 Intel(R) Xeon(R) Gold 6338 CPU @ 2.00GHz
 GLOBAL| CPUID                                                              1003

 MEMORY| system memory details [Kb]
 MEMORY|                        rank 0           min           max       average
 MEMORY| MemTotal            263619172     263619172     263619172     263619172
 MEMORY| MemFree             244254240     244254240     244254860     244254375
 MEMORY| Buffers                  3320          3320          3320          3320
 MEMORY| Cached                1211848       1211848       1211848       1211848
 MEMORY| Slab                   518688        518688        518688        518688
 MEMORY| SReclaimable           167584        167584        167584        167584
 MEMORY| MemLikelyFree       245636992     245636992     245637612     245637127


 *** Fundamental physical constants (SI units) ***

 *** Literature: B. J. Mohr and B. N. Taylor,
 ***             CODATA recommended values of the fundamental physical
 ***             constants: 2006, Web Version 5.1
 ***             http://physics.nist.gov/constants

 Speed of light in vacuum [m/s]                             2.99792458000000E+08
 Magnetic constant or permeability of vacuum [N/A**2]       1.25663706143592E-06
 Electric constant or permittivity of vacuum [F/m]          8.85418781762039E-12
 Planck constant (h) [J*s]                                  6.62606896000000E-34
 Planck constant (h-bar) [J*s]                              1.05457162825177E-34
 Elementary charge [C]                                      1.60217648700000E-19
 Electron mass [kg]                                         9.10938215000000E-31
 Electron g factor [ ]                                     -2.00231930436220E+00
 Proton mass [kg]                                           1.67262163700000E-27
 Fine-structure constant                                    7.29735253760000E-03
 Rydberg constant [1/m]                                     1.09737315685270E+07
 Avogadro constant [1/mol]                                  6.02214179000000E+23
 Boltzmann constant [J/K]                                   1.38065040000000E-23
 Atomic mass unit [kg]                                      1.66053878200000E-27
 Bohr radius [m]                                            5.29177208590000E-11

 *** Conversion factors ***

 [u] -> [a.u.]                                              1.82288848426455E+03
 [Angstrom] -> [Bohr] = [a.u.]                              1.88972613288564E+00
 [a.u.] = [Bohr] -> [Angstrom]                              5.29177208590000E-01
 [a.u.] -> [s]                                              2.41888432650478E-17
 [a.u.] -> [fs]                                             2.41888432650478E-02
 [a.u.] -> [J]                                              4.35974393937059E-18
 [a.u.] -> [N]                                              8.23872205491840E-08
 [a.u.] -> [K]                                              3.15774647902944E+05
 [a.u.] -> [kJ/mol]                                         2.62549961709828E+03
 [a.u.] -> [kcal/mol]                                       6.27509468713739E+02
 [a.u.] -> [Pa]                                             2.94210107994716E+13
 [a.u.] -> [bar]                                            2.94210107994716E+08
 [a.u.] -> [atm]                                            2.90362800883016E+08
 [a.u.] -> [eV]                                             2.72113838565563E+01
 [a.u.] -> [Hz]                                             6.57968392072181E+15
 [a.u.] -> [1/cm] (wave numbers)                            2.19474631370540E+05
 [a.u./Bohr**2] -> [1/cm]                                   5.14048714338585E+03
 

 CELL_TOP| Volume [angstrom^3]:                                      4542.849048
 CELL_TOP| Vector a [angstrom    11.246     0.000     0.000   |a| =    11.245800
 CELL_TOP| Vector b [angstrom     0.000     9.739     0.000   |b| =     9.739200
 CELL_TOP| Vector c [angstrom     0.000     0.000    41.478   |c| =    41.477700
 CELL_TOP| Angle (b,c), alpha [degree]:                                90.000000
 CELL_TOP| Angle (a,c), beta  [degree]:                                90.000000
 CELL_TOP| Angle (a,b), gamma [degree]:                                90.000000
 CELL_TOP| Numerically orthorhombic:                                         YES
 
 GENERATE|  Preliminary Number of Bonds generated:                             0
 GENERATE|  Achieved consistency in connectivity generation.

 CELL| Volume [angstrom^3]:                                          4542.849048
 CELL| Vector a [angstrom]:      11.246     0.000     0.000   |a| =    11.245800
 CELL| Vector b [angstrom]:       0.000     9.739     0.000   |b| =     9.739200
 CELL| Vector c [angstrom]:       0.000     0.000    41.478   |c| =    41.477700
 CELL| Angle (b,c), alpha [degree]:                                    90.000000
 CELL| Angle (a,c), beta  [degree]:                                    90.000000
 CELL| Angle (a,b), gamma [degree]:                                    90.000000
 CELL| Numerically orthorhombic:                                             YES

 CELL_REF| Volume [angstrom^3]:                                      4542.849048
 CELL_REF| Vector a [angstrom    11.246     0.000     0.000   |a| =    11.245800
 CELL_REF| Vector b [angstrom     0.000     9.739     0.000   |b| =     9.739200
 CELL_REF| Vector c [angstrom     0.000     0.000    41.478   |c| =    41.477700
 CELL_REF| Angle (b,c), alpha [degree]:                                90.000000
 CELL_REF| Angle (a,c), beta  [degree]:                                90.000000
 CELL_REF| Angle (a,b), gamma [degree]:                                90.000000
 CELL_REF| Numerically orthorhombic:                                         YES

 *******************************************************************************
 *******************************************************************************
 **                                                                           **
 **     #####                         ##              ##                      **
 **    ##   ##            ##          ##              ##                      **
 **   ##     ##                       ##            ######                    **
 **   ##     ##  ##   ##  ##   #####  ##  ##   ####   ##    #####    #####    **
 **   ##     ##  ##   ##  ##  ##      ## ##   ##      ##   ##   ##  ##   ##   **
 **   ##  ## ##  ##   ##  ##  ##      ####     ###    ##   ######   ######    **
 **    ##  ###   ##   ##  ##  ##      ## ##      ##   ##   ##       ##        **
 **     #######   #####   ##   #####  ##  ##  ####    ##    #####   ##        **
 **           ##                                                    ##        **
 **                                                                           **
 **                                                ... make the atoms dance   **
 **                                                                           **
 **            Copyright (C) by CP2K developers group (2000-2022)             **
 **                      J. Chem. Phys. 152, 194103 (2020)                    **
 **                                                                           **
 *******************************************************************************

 DFT| Spin restricted Kohn-Sham (RKS) calculation                            RKS
 DFT| Multiplicity                                                             1
 DFT| Number of spin states                                                    1
 DFT| Charge                                                                   0
 DFT| Self-interaction correction (SIC)                                       NO
 DFT| Cutoffs: density                                              1.000000E-10
 DFT|          gradient                                             1.000000E-10
 DFT|          tau                                                  1.000000E-10
 DFT|          cutoff_smoothing_range                               0.000000E+00
 DFT| XC density smoothing                                                  NONE
 DFT| XC derivatives                                                          PW

 FUNCTIONAL| PBE:
 FUNCTIONAL| J.P.Perdew, K.Burke, M.Ernzerhof, Phys. Rev. Letter, vol. 77, n 18,
 FUNCTIONAL|  pp. 3865-3868, (1996){spin unpolarized}                           

 vdW POTENTIAL|                                                   Pair Potential
 vdW POTENTIAL|          DFT-D3 (Version 3.1)
 vdW POTENTIAL|          Potential Form: S. Grimme et al, JCP 132: 154104 (2010)
 vdW POTENTIAL|          Zero Damping
 vdW POTENTIAL|          Cutoff Radius [Bohr]:                             20.00
 vdW POTENTIAL|          s6 Scaling Factor:                               1.0000
 vdW POTENTIAL|          sr6 Scaling Factor:                              1.2170
 vdW POTENTIAL|          s8 Scaling Factor:                               0.7220
 vdW POTENTIAL|          Cutoff for CN calculation:                   0.1000E-05

 QS| Method:                                                                 GPW
 QS| Density plane wave grid type                        NON-SPHERICAL FULLSPACE
 QS| Number of grid levels:                                                    4
 QS| Density cutoff [a.u.]:                                                200.0
 QS| Multi grid cutoff [a.u.]: 1) grid level                               200.0
 QS|                           2) grid level                                66.7
 QS|                           3) grid level                                22.2
 QS|                           4) grid level                                 7.4
 QS| Grid level progression factor:                                          3.0
 QS| Relative density cutoff [a.u.]:                                        20.0
 QS| Interaction thresholds: eps_pgf_orb:                                3.2E-07
 QS|                         eps_filter_matrix:                          0.0E+00
 QS|                         eps_core_charge:                            1.0E-15
 QS|                         eps_rho_gspace:                             1.0E-13
 QS|                         eps_rho_rspace:                             1.0E-13
 QS|                         eps_gvg_rspace:                             3.2E-07
 QS|                         eps_ppl:                                    1.0E-02
 QS|                         eps_ppnl:                                   3.2E-09


 ATOMIC KIND INFORMATION

  1. Atomic kind: Pt                                    Number of atoms:      96

     Orbital Basis Set                      DZVP-A5-Q10-323-MOL-T1-DERIVED_SET-1

       Number of orbital shell sets:                                           1
       Number of orbital shells:                                               6
       Number of primitive Cartesian functions:                                5
       Number of Cartesian basis functions:                                   23
       Number of spherical basis functions:                                   20
       Norm type:                                                              2

       Normalised Cartesian orbitals:

                        Set   Shell   Orbital            Exponent    Coefficient

                          1       1    2s                2.521825       0.177473
                                                         1.453920      -0.063399
                                                         0.614053      -0.407089
                                                         0.232656       0.262254
                                                         0.074788       0.047371

                          1       2    3s                2.521825      -0.049056
                                                         1.453920       0.044904
                                                         0.614053      -0.009756
                                                         0.232656      -0.144709
                                                         0.074788       0.144085

                          1       3    3px               2.521825      -0.317572
                                                         1.453920       0.534826
                                                         0.614053      -0.489458
                                                         0.232656       0.245631
                                                         0.074788       0.018221
                          1       3    3py               2.521825      -0.317572
                                                         1.453920       0.534826
                                                         0.614053      -0.489458
                                                         0.232656       0.245631
                                                         0.074788       0.018221
                          1       3    3pz               2.521825      -0.317572
                                                         1.453920       0.534826
                                                         0.614053      -0.489458
                                                         0.232656       0.245631
                                                         0.074788       0.018221

                          1       4    4dx2              2.521825       3.008522
                                                         1.453920      -1.224251
                                                         0.614053       0.225691
                                                         0.232656       0.125144
                                                         0.074788      -0.015348
                          1       4    4dxy              2.521825       5.210912
                                                         1.453920      -2.120465
                                                         0.614053       0.390909
                                                         0.232656       0.216756
                                                         0.074788      -0.026584
                          1       4    4dxz              2.521825       5.210912
                                                         1.453920      -2.120465
                                                         0.614053       0.390909
                                                         0.232656       0.216756
                                                         0.074788      -0.026584
                          1       4    4dy2              2.521825       3.008522
                                                         1.453920      -1.224251
                                                         0.614053       0.225691
                                                         0.232656       0.125144
                                                         0.074788      -0.015348
                          1       4    4dyz              2.521825       5.210912
                                                         1.453920      -2.120465
                                                         0.614053       0.390909
                                                         0.232656       0.216756
                                                         0.074788      -0.026584
                          1       4    4dz2              2.521825       3.008522
                                                         1.453920      -1.224251
                                                         0.614053       0.225691
                                                         0.232656       0.125144
                                                         0.074788      -0.015348

                          1       5    5dx2              2.521825       0.698026
                                                         1.453920      -1.511486
                                                         0.614053      -0.335394
                                                         0.232656      -0.025564
                                                         0.074788      -0.002699
                          1       5    5dxy              2.521825       1.209017
                                                         1.453920      -2.617970
                                                         0.614053      -0.580920
                                                         0.232656      -0.044277
                                                         0.074788      -0.004674
                          1       5    5dxz              2.521825       1.209017
                                                         1.453920      -2.617970
                                                         0.614053      -0.580920
                                                         0.232656      -0.044277
                                                         0.074788      -0.004674
                          1       5    5dy2              2.521825       0.698026
                                                         1.453920      -1.511486
                                                         0.614053      -0.335394
                                                         0.232656      -0.025564
                                                         0.074788      -0.002699
                          1       5    5dyz              2.521825       1.209017
                                                         1.453920      -2.617970
                                                         0.614053      -0.580920
                                                         0.232656      -0.044277
                                                         0.074788      -0.004674
                          1       5    5dz2              2.521825       0.698026
                                                         1.453920      -1.511486
                                                         0.614053      -0.335394
                                                         0.232656      -0.025564
                                                         0.074788      -0.002699

                          1       6    6dx2              2.521825       0.831079
                                                         1.453920      -0.709226
                                                         0.614053      -0.137351
                                                         0.232656       0.068642
                                                         0.074788       0.011745
                          1       6    6dxy              2.521825       1.439472
                                                         1.453920      -1.228415
                                                         0.614053      -0.237899
                                                         0.232656       0.118891
                                                         0.074788       0.020343
                          1       6    6dxz              2.521825       1.439472
                                                         1.453920      -1.228415
                                                         0.614053      -0.237899
                                                         0.232656       0.118891
                                                         0.074788       0.020343
                          1       6    6dy2              2.521825       0.831079
                                                         1.453920      -0.709226
                                                         0.614053      -0.137351
                                                         0.232656       0.068642
                                                         0.074788       0.011745
                          1       6    6dyz              2.521825       1.439472
                                                         1.453920      -1.228415
                                                         0.614053      -0.237899
                                                         0.232656       0.118891
                                                         0.074788       0.020343
                          1       6    6dz2              2.521825       0.831079
                                                         1.453920      -0.709226
                                                         0.614053      -0.137351
                                                         0.232656       0.068642
                                                         0.074788       0.011745

       Atomic covalent radius [Angstrom]:                                  1.300

       Atomic van der Waals radius [Angstrom]:                             1.750

     GTH Potential information for                                   GTH-PBE-q10

       Description:                       Goedecker-Teter-Hutter pseudopotential
                                           Goedecker et al., PRB 54, 1703 (1996)
                                          Hartwigsen et al., PRB 58, 3641 (1998)
                                                      Krack, TCA 114, 145 (2005)

       Gaussian exponent of the core charge distribution:               1.317676
       Electronic configuration (s p d ...):                           1   0   9

       Parameters of the local part of the GTH pseudopotential:

                          rloc        C1          C2          C3          C4
                        0.616000   11.313635

       Parameters of the non-local part of the GTH pseudopotential:

                   l      r(l)      h(i,j,l)

                   0    0.550904    4.733491   -1.784594
                                   -1.784594    2.303901
                   1    0.674138    2.534798   -1.778066
                                   -1.778066    2.103836
                   2    0.457392   -7.264011    2.558665
                                    2.558665   -2.901253

  2. Atomic kind: O                                     Number of atoms:       1

     Orbital Basis Set                                        DZVP-MOLOPT-SR-GTH

       Number of orbital shell sets:                                           1
       Number of orbital shells:                                               5
       Number of primitive Cartesian functions:                                5
       Number of Cartesian basis functions:                                   14
       Number of spherical basis functions:                                   13
       Norm type:                                                              2

       Normalised Cartesian orbitals:

                        Set   Shell   Orbital            Exponent    Coefficient

                          1       1    2s               10.389228       0.396646
                                                         3.849621       0.208811
                                                         1.388401      -0.301641
                                                         0.496955      -0.274061
                                                         0.162492      -0.033677

                          1       2    3s               10.389228       0.303673
                                                         3.849621       0.240943
                                                         1.388401      -0.313066
                                                         0.496955      -0.043055
                                                         0.162492       0.213991

                          1       3    3px              10.389228      -1.530415
                                                         3.849621      -1.371928
                                                         1.388401      -0.761951
                                                         0.496955      -0.253695
                                                         0.162492      -0.035541
                          1       3    3py              10.389228      -1.530415
                                                         3.849621      -1.371928
                                                         1.388401      -0.761951
                                                         0.496955      -0.253695
                                                         0.162492      -0.035541
                          1       3    3pz              10.389228      -1.530415
                                                         3.849621      -1.371928
                                                         1.388401      -0.761951
                                                         0.496955      -0.253695
                                                         0.162492      -0.035541

                          1       4    4px              10.389228      -0.565392
                                                         3.849621      -0.038231
                                                         1.388401      -0.382373
                                                         0.496955       0.179070
                                                         0.162492       0.122714
                          1       4    4py              10.389228      -0.565392
                                                         3.849621      -0.038231
                                                         1.388401      -0.382373
                                                         0.496955       0.179070
                                                         0.162492       0.122714
                          1       4    4pz              10.389228      -0.565392
                                                         3.849621      -0.038231
                                                         1.388401      -0.382373
                                                         0.496955       0.179070
                                                         0.162492       0.122714

                          1       5    4dx2             10.389228       1.867377
                                                         3.849621       0.670994
                                                         1.388401       1.353441
                                                         0.496955       0.273538
                                                         0.162492       0.006620
                          1       5    4dxy             10.389228       3.234392
                                                         3.849621       1.162195
                                                         1.388401       2.344229
                                                         0.496955       0.473781
                                                         0.162492       0.011466
                          1       5    4dxz             10.389228       3.234392
                                                         3.849621       1.162195
                                                         1.388401       2.344229
                                                         0.496955       0.473781
                                                         0.162492       0.011466
                          1       5    4dy2             10.389228       1.867377
                                                         3.849621       0.670994
                                                         1.388401       1.353441
                                                         0.496955       0.273538
                                                         0.162492       0.006620
                          1       5    4dyz             10.389228       3.234392
                                                         3.849621       1.162195
                                                         1.388401       2.344229
                                                         0.496955       0.473781
                                                         0.162492       0.011466
                          1       5    4dz2             10.389228       1.867377
                                                         3.849621       0.670994
                                                         1.388401       1.353441
                                                         0.496955       0.273538
                                                         0.162492       0.006620

       Atomic covalent radius [Angstrom]:                                  0.730

       Atomic van der Waals radius [Angstrom]:                             1.520

     GTH Potential information for                                    GTH-PBE-q6

       Description:                       Goedecker-Teter-Hutter pseudopotential
                                           Goedecker et al., PRB 54, 1703 (1996)
                                          Hartwigsen et al., PRB 58, 3641 (1998)
                                                      Krack, TCA 114, 145 (2005)

       Gaussian exponent of the core charge distribution:               8.360253
       Electronic configuration (s p d ...):                               2   4

       Parameters of the local part of the GTH pseudopotential:

                          rloc        C1          C2          C3          C4
                        0.244554  -16.667215    2.487311

       Parameters of the non-local part of the GTH pseudopotential:

                   l      r(l)      h(i,j,l)

                   0    0.220956   18.337458
                   1    0.211332

  3. Atomic kind: H                                     Number of atoms:       2

     Orbital Basis Set                                        DZVP-MOLOPT-SR-GTH

       Number of orbital shell sets:                                           1
       Number of orbital shells:                                               3
       Number of primitive Cartesian functions:                                5
       Number of Cartesian basis functions:                                    5
       Number of spherical basis functions:                                    5
       Norm type:                                                              2

       Normalised Cartesian orbitals:

                        Set   Shell   Orbital            Exponent    Coefficient

                          1       1    2s               10.068468      -0.133023
                                                         2.680223      -0.177618
                                                         0.791502      -0.258419
                                                         0.239116      -0.107525
                                                         0.082193      -0.014019

                          1       2    3s               10.068468       0.344673
                                                         2.680223       1.819821
                                                         0.791502      -0.999069
                                                         0.239116       0.017430
                                                         0.082193       0.082660

                          1       3    3px              10.068468       0.155326
                                                         2.680223       0.367157
                                                         0.791502       0.311480
                                                         0.239116       0.080105
                                                         0.082193       0.033440
                          1       3    3py              10.068468       0.155326
                                                         2.680223       0.367157
                                                         0.791502       0.311480
                                                         0.239116       0.080105
                                                         0.082193       0.033440
                          1       3    3pz              10.068468       0.155326
                                                         2.680223       0.367157
                                                         0.791502       0.311480
                                                         0.239116       0.080105
                                                         0.082193       0.033440

       Atomic covalent radius [Angstrom]:                                  0.320

       Atomic van der Waals radius [Angstrom]:                             1.090

     GTH Potential information for                                    GTH-PBE-q1

       Description:                       Goedecker-Teter-Hutter pseudopotential
                                           Goedecker et al., PRB 54, 1703 (1996)
                                          Hartwigsen et al., PRB 58, 3641 (1998)
                                                      Krack, TCA 114, 145 (2005)

       Gaussian exponent of the core charge distribution:              12.500000
       Electronic configuration (s p d ...):                                   1

       Parameters of the local part of the GTH pseudopotential:

                          rloc        C1          C2          C3          C4
                        0.200000   -4.178900    0.724463


 MOLECULE KIND INFORMATION


 All atoms are their own molecule, skipping detailed information


 TOTAL NUMBERS AND MAXIMUM NUMBERS

  Total number of            - Atomic kinds:                                   3
                             - Atoms:                                         99
                             - Shell sets:                                    99
                             - Shells:                                       587
                             - Primitive Cartesian functions:                495
                             - Cartesian basis functions:                   2232
                             - Spherical basis functions:                   1943

  Maximum angular momentum of- Orbital basis functions:                        2
                             - Local part of the GTH pseudopotential:          2
                             - Non-local part of the GTH pseudopotential:      4


 MODULE QUICKSTEP:  ATOMIC COORDINATES IN angstrom

 Atom  Kind  Element       X           Y           Z          Z(eff)       Mass
    1   1 Pt  78       1.405728    0.811598   15.000000      10.0000    195.0840
    2   1 Pt  78       4.217185    0.811598   15.000000      10.0000    195.0840
    3   1 Pt  78       7.028641    0.811598   15.000000      10.0000    195.0840
    4   1 Pt  78       9.840098    0.811598   15.000000      10.0000    195.0840
    5   1 Pt  78       0.000000    3.246390   15.000000      10.0000    195.0840
    6   1 Pt  78       2.811457    3.246390   15.000000      10.0000    195.0840
    7   1 Pt  78       5.622913    3.246390   15.000000      10.0000    195.0840
    8   1 Pt  78       8.434370    3.246390   15.000000      10.0000    195.0840
    9   1 Pt  78       1.405728    5.681183   15.000000      10.0000    195.0840
   10   1 Pt  78       4.217185    5.681183   15.000000      10.0000    195.0840
   11   1 Pt  78       7.028641    5.681183   15.000000      10.0000    195.0840
   12   1 Pt  78       9.840098    5.681183   15.000000      10.0000    195.0840
   13   1 Pt  78       0.000000    8.115976   15.000000      10.0000    195.0840
   14   1 Pt  78       2.811457    8.115976   15.000000      10.0000    195.0840
   15   1 Pt  78       5.622913    8.115976   15.000000      10.0000    195.0840
   16   1 Pt  78       8.434370    8.115976   15.000000      10.0000    195.0840
   17   1 Pt  78       0.000000    1.623195   17.295545      10.0000    195.0840
   18   1 Pt  78       2.811457    1.623195   17.295545      10.0000    195.0840
   19   1 Pt  78       5.622913    1.623195   17.295545      10.0000    195.0840
   20   1 Pt  78       8.434370    1.623195   17.295545      10.0000    195.0840
   21   1 Pt  78       1.405728    4.057988   17.295545      10.0000    195.0840
   22   1 Pt  78       4.217185    4.057988   17.295545      10.0000    195.0840
   23   1 Pt  78       7.028641    4.057988   17.295545      10.0000    195.0840
   24   1 Pt  78       9.840098    4.057988   17.295545      10.0000    195.0840
   25   1 Pt  78       0.000000    6.492781   17.295545      10.0000    195.0840
   26   1 Pt  78       2.811457    6.492781   17.295545      10.0000    195.0840
   27   1 Pt  78       5.622913    6.492781   17.295545      10.0000    195.0840
   28   1 Pt  78       8.434370    6.492781   17.295545      10.0000    195.0840
   29   1 Pt  78       1.405728    8.927574   17.295545      10.0000    195.0840
   30   1 Pt  78       4.217185    8.927574   17.295545      10.0000    195.0840
   31   1 Pt  78       7.028641    8.927574   17.295545      10.0000    195.0840
   32   1 Pt  78       9.840098    8.927574   17.295545      10.0000    195.0840
   33   1 Pt  78       0.000000    0.000000   19.591089      10.0000    195.0840
   34   1 Pt  78       2.811457    0.000000   19.591089      10.0000    195.0840
   35   1 Pt  78       5.622913    0.000000   19.591089      10.0000    195.0840
   36   1 Pt  78       8.434370    0.000000   19.591089      10.0000    195.0840
   37   1 Pt  78       1.405728    2.434793   19.591089      10.0000    195.0840
   38   1 Pt  78       4.217185    2.434793   19.591089      10.0000    195.0840
   39   1 Pt  78       7.028641    2.434793   19.591089      10.0000    195.0840
   40   1 Pt  78       9.840098    2.434793   19.591089      10.0000    195.0840
   41   1 Pt  78       0.000000    4.869586   19.591089      10.0000    195.0840
   42   1 Pt  78       2.811457    4.869586   19.591089      10.0000    195.0840
   43   1 Pt  78       5.622913    4.869586   19.591089      10.0000    195.0840
   44   1 Pt  78       8.434370    4.869586   19.591089      10.0000    195.0840
   45   1 Pt  78       1.405728    7.304378   19.591089      10.0000    195.0840
   46   1 Pt  78       4.217185    7.304378   19.591089      10.0000    195.0840
   47   1 Pt  78       7.028641    7.304378   19.591089      10.0000    195.0840
   48   1 Pt  78       9.840098    7.304378   19.591089      10.0000    195.0840
   49   1 Pt  78       1.405728    0.811598   21.886634      10.0000    195.0840
   50   1 Pt  78       4.217185    0.811598   21.886634      10.0000    195.0840
   51   1 Pt  78       7.028641    0.811598   21.886634      10.0000    195.0840
   52   1 Pt  78       9.840098    0.811598   21.886634      10.0000    195.0840
   53   1 Pt  78       0.000000    3.246390   21.886634      10.0000    195.0840
   54   1 Pt  78       2.811457    3.246390   21.886634      10.0000    195.0840
   55   1 Pt  78       5.622913    3.246390   21.886634      10.0000    195.0840
   56   1 Pt  78       8.434370    3.246390   21.886634      10.0000    195.0840
   57   1 Pt  78       1.405728    5.681183   21.886634      10.0000    195.0840
   58   1 Pt  78       4.217185    5.681183   21.886634      10.0000    195.0840
   59   1 Pt  78       7.028641    5.681183   21.886634      10.0000    195.0840
   60   1 Pt  78       9.840098    5.681183   21.886634      10.0000    195.0840
   61   1 Pt  78       0.000000    8.115976   21.886634      10.0000    195.0840
   62   1 Pt  78       2.811457    8.115976   21.886634      10.0000    195.0840
   63   1 Pt  78       5.622913    8.115976   21.886634      10.0000    195.0840
   64   1 Pt  78       8.434370    8.115976   21.886634      10.0000    195.0840
   65   1 Pt  78       0.000000    1.623195   24.182179      10.0000    195.0840
   66   1 Pt  78       2.811457    1.623195   24.182179      10.0000    195.0840
   67   1 Pt  78       5.622913    1.623195   24.182179      10.0000    195.0840
   68   1 Pt  78       8.434370    1.623195   24.182179      10.0000    195.0840
   69   1 Pt  78       1.405728    4.057988   24.182179      10.0000    195.0840
   70   1 Pt  78       4.217185    4.057988   24.182179      10.0000    195.0840
   71   1 Pt  78       7.028641    4.057988   24.182179      10.0000    195.0840
   72   1 Pt  78       9.840098    4.057988   24.182179      10.0000    195.0840
   73   1 Pt  78       0.000000    6.492781   24.182179      10.0000    195.0840
   74   1 Pt  78       2.811457    6.492781   24.182179      10.0000    195.0840
   75   1 Pt  78       5.622913    6.492781   24.182179      10.0000    195.0840
   76   1 Pt  78       8.434370    6.492781   24.182179      10.0000    195.0840
   77   1 Pt  78       1.405728    8.927574   24.182179      10.0000    195.0840
   78   1 Pt  78       4.217185    8.927574   24.182179      10.0000    195.0840
   79   1 Pt  78       7.028641    8.927574   24.182179      10.0000    195.0840
   80   1 Pt  78       9.840098    8.927574   24.182179      10.0000    195.0840
   81   1 Pt  78       0.000000    0.000000   26.477723      10.0000    195.0840
   82   1 Pt  78       2.811457    0.000000   26.477723      10.0000    195.0840
   83   1 Pt  78       5.622913    0.000000   26.477723      10.0000    195.0840
   84   1 Pt  78       8.434370    0.000000   26.477723      10.0000    195.0840
   85   1 Pt  78       1.405728    2.434793   26.477723      10.0000    195.0840
   86   1 Pt  78       4.217185    2.434793   26.477723      10.0000    195.0840
   87   1 Pt  78       7.028641    2.434793   26.477723      10.0000    195.0840
   88   1 Pt  78       9.840098    2.434793   26.477723      10.0000    195.0840
   89   1 Pt  78       0.000000    4.869586   26.477723      10.0000    195.0840
   90   1 Pt  78       2.811457    4.869586   26.477723      10.0000    195.0840
   91   1 Pt  78       5.622913    4.869586   26.477723      10.0000    195.0840
   92   1 Pt  78       8.434370    4.869586   26.477723      10.0000    195.0840
   93   1 Pt  78       1.405728    7.304378   26.477723      10.0000    195.0840
   94   1 Pt  78       4.217185    7.304378   26.477723      10.0000    195.0840
   95   1 Pt  78       7.028641    7.304378   26.477723      10.0000    195.0840
   96   1 Pt  78       9.840098    7.304378   26.477723      10.0000    195.0840
   97   2 O    8       5.622913    4.869586   31.977723       6.0000     15.9994
   98   3 H    1       5.622913    5.809381   32.212038       1.0000      1.0079
   99   3 H    1       5.622913    4.869585   31.009158       1.0000      1.0079




 SCF PARAMETERS         Density guess:                                   RESTART
                        --------------------------------------------------------
                        max_scf:                                             500
                        max_scf_history:                                       0
                        max_diis:                                              4
                        --------------------------------------------------------
                        eps_scf:                                        1.00E-06
                        eps_scf_history:                                0.00E+00
                        eps_diis:                                       1.00E-01
                        eps_eigval:                                     1.00E-05
                        --------------------------------------------------------
                        level_shift [a.u.]:                             0.000000
                        added MOs                                       500    0
                        --------------------------------------------------------
                        Mixing method:                            BROYDEN_MIXING
                                                charge density mixing in g-space
                        --------------------------------------------------------
                        Smear method:                                FERMI_DIRAC
                        Electronic temperature [K]:                        300.0
                        Electronic temperature [a.u.]:                  9.50E-04
                        Accuracy threshold:                             1.00E-10
                        --------------------------------------------------------
                        No outer SCF

 PW_GRID| Information for grid number                                          1
 PW_GRID| Grid distributed over                                    64 processors
 PW_GRID| Real space group dimensions                                    64    1
 PW_GRID| the grid is blocked:                                                NO
 PW_GRID| Cutoff [a.u.]                                                    200.0
 PW_GRID| spherical cutoff:                                                   NO
 PW_GRID|   Bounds   1            -67      67                Points:         135
 PW_GRID|   Bounds   2            -60      59                Points:         120
 PW_GRID|   Bounds   3           -250     249                Points:         500
 PW_GRID| Volume element (a.u.^3)  0.3785E-02     Volume (a.u.^3)     30656.6653
 PW_GRID| Grid span                                                    FULLSPACE
 PW_GRID|   Distribution                         Average         Max         Min
 PW_GRID|   G-Vectors                           126562.5      126630      126495
 PW_GRID|   G-Rays                                 937.5         938         937
 PW_GRID|   Real Space Points                   126562.5      180000      120000

 PW_GRID| Information for grid number                                          2
 PW_GRID| Number of the reference grid                                         1
 PW_GRID| Grid distributed over                                    64 processors
 PW_GRID| Real space group dimensions                                    64    1
 PW_GRID| the grid is blocked:                                                NO
 PW_GRID| Cutoff [a.u.]                                                     66.7
 PW_GRID| spherical cutoff:                                                   NO
 PW_GRID|   Bounds   1            -40      39                Points:          80
 PW_GRID|   Bounds   2            -36      35                Points:          72
 PW_GRID|   Bounds   3           -150     149                Points:         300
 PW_GRID| Volume element (a.u.^3)  0.1774E-01     Volume (a.u.^3)     30656.6653
 PW_GRID| Grid span                                                    FULLSPACE
 PW_GRID|   Distribution                         Average         Max         Min
 PW_GRID|   G-Vectors                            27000.0       27360       26560
 PW_GRID|   G-Rays                                 337.5         342         332
 PW_GRID|   Real Space Points                    27000.0       43200       21600

 PW_GRID| Information for grid number                                          3
 PW_GRID| Number of the reference grid                                         1
 PW_GRID| Grid distributed over                                    64 processors
 PW_GRID| Real space group dimensions                                     8    8
 PW_GRID| the grid is blocked:                                                NO
 PW_GRID| Cutoff [a.u.]                                                     22.2
 PW_GRID| spherical cutoff:                                                   NO
 PW_GRID|   Bounds   1            -22      22                Points:          45
 PW_GRID|   Bounds   2            -20      19                Points:          40
 PW_GRID|   Bounds   3            -90      89                Points:         180
 PW_GRID| Volume element (a.u.^3)  0.9462E-01     Volume (a.u.^3)     30656.6653
 PW_GRID| Grid span                                                    FULLSPACE
 PW_GRID|   Distribution                         Average         Max         Min
 PW_GRID|   G-Vectors                             5062.5        5490        4635
 PW_GRID|   G-Rays                                 112.5         122         103
 PW_GRID|   Real Space Points                     5062.5        5400        4500

 PW_GRID| Information for grid number                                          4
 PW_GRID| Number of the reference grid                                         1
 PW_GRID| Grid distributed over                                    64 processors
 PW_GRID| Real space group dimensions                                     8    8
 PW_GRID| the grid is blocked:                                                NO
 PW_GRID| Cutoff [a.u.]                                                      7.4
 PW_GRID| spherical cutoff:                                                   NO
 PW_GRID|   Bounds   1            -13      13                Points:          27
 PW_GRID|   Bounds   2            -12      11                Points:          24
 PW_GRID|   Bounds   3            -50      49                Points:         100
 PW_GRID| Volume element (a.u.^3)  0.4731         Volume (a.u.^3)     30656.6653
 PW_GRID| Grid span                                                    FULLSPACE
 PW_GRID|   Distribution                         Average         Max         Min
 PW_GRID|   G-Vectors                             1012.5        1269         675
 PW_GRID|   G-Rays                                  37.5          47          25
 PW_GRID|   Real Space Points                     1012.5        1200         900

 POISSON| Solver                                          IMPLICIT (GENERALIZED)
 POISSON| Boundary Condition                                PERIODIC & DIRICHLET
 POISSON| Maximum number of iterations                                        30
 POISSON| Convergence threshold                                         1.00E-08
 POISSON| Dielectric Constant                                              80.00
 POISSON| Relaxation parameter                                          1.00E+00

 RS_GRID| Information for grid number                                          1
 RS_GRID|   Bounds   1            -67      67                Points:         135
 RS_GRID|   Bounds   2            -60      59                Points:         120
 RS_GRID|   Bounds   3           -250     249                Points:         500
 RS_GRID| Real space distribution over                                 64 groups
 RS_GRID| Real space distribution along direction                              3
 RS_GRID| Border size                                                         34
 RS_GRID|   Distribution                         Average         Max         Min
 RS_GRID|   Planes                                  75.8          76          75

 RS_GRID| Information for grid number                                          2
 RS_GRID|   Bounds   1            -40      39                Points:          80
 RS_GRID|   Bounds   2            -36      35                Points:          72
 RS_GRID|   Bounds   3           -150     149                Points:         300
 RS_GRID| Real space distribution over                                 64 groups
 RS_GRID| Real space distribution along direction                              3
 RS_GRID| Border size                                                         24
 RS_GRID|   Distribution                         Average         Max         Min
 RS_GRID|   Planes                                  52.7          53          52

 RS_GRID| Information for grid number                                          3
 RS_GRID|   Bounds   1            -22      22                Points:          45
 RS_GRID|   Bounds   2            -20      19                Points:          40
 RS_GRID|   Bounds   3            -90      89                Points:         180
 RS_GRID| Real space fully replicated
 RS_GRID| Group size                                                           1

 RS_GRID| Information for grid number                                          4
 RS_GRID|   Bounds   1            -13      13                Points:          27
 RS_GRID|   Bounds   2            -12      11                Points:          24
 RS_GRID|   Bounds   3            -50      49                Points:         100
 RS_GRID| Real space fully replicated
 RS_GRID| Group size                                                           1

 Number of electrons:                                                        968
 Number of occupied orbitals:                                                484
 Number of molecular orbitals:                                               984

 Number of orbital functions:                                               1943
 Number of independent orbital functions:                                   1943

 Extrapolation method: initial_guess

 *** WARNING in qs_initial_guess.F:310 :: User requested to restart the    ***
 *** wavefunction from the file named: cp2k-RESTART.wfn. This file does    ***
 *** not exist. Please check the existence of the file or change properly  ***
 *** the value of the keyword WFN_RESTART_FILE_NAME. Calculation continues ***
 *** using ATOMIC GUESS.                                                   ***


 Atomic guess: The first density matrix is obtained in terms of atomic orbitals
               and electronic configurations assigned to each atomic kind

 Guess for atomic kind: Pt

 Electronic structure
    Total number of core electrons                                         68.00
    Total number of valence electrons                                      10.00
    Total number of electrons                                              78.00
    Multiplicity                                                   not specified
    S   [  2.00  2.00  2.00  2.00  2.00] 1.00
    P   [  6.00  6.00  6.00  6.00]
    D   [ 10.00 10.00] 9.00
    F   [ 14.00]
 

 *******************************************************************************
                  Iteration          Convergence                     Energy [au]
 *******************************************************************************
                          1         2.31440                     -25.408827593796
                          2         1.51653                     -25.553485547781
                          3        0.756718E-01                 -25.848084769772
                          4        0.846688E-02                 -25.848827784449
                          5        0.789087E-04                 -25.848836001288
                          6        0.389389E-04                 -25.848836001863
                          7        0.125194E-06                 -25.848836002049

 Energy components [Hartree]           Total Energy ::          -25.848836002049
                                        Band Energy ::           -2.040347634070
                                     Kinetic Energy ::           20.020057968093
                                   Potential Energy ::          -45.868893970142
                                      Virial (-V/T) ::            2.291146910925
                                        Core Energy ::          -46.706460602493
                                          XC Energy ::           -4.268953034213
                                     Coulomb Energy ::           25.126577634658
                       Total Pseudopotential Energy ::          -66.819945130261
                       Local Pseudopotential Energy ::          -50.953816608059
                    Nonlocal Pseudopotential Energy ::          -15.866128522202
                                        Confinement ::            0.934265596747

 Orbital energies  State     L     Occupation   Energy[a.u.]          Energy[eV]

                       1     0          1.000      -0.180914           -4.922914
 
                       1     2          9.000      -0.206604           -5.621974
 

 Total Electron Density at R=0:                                         0.000036

 Guess for atomic kind: O

 Electronic structure
    Total number of core electrons                                          2.00
    Total number of valence electrons                                       6.00
    Total number of electrons                                               8.00
    Multiplicity                                                   not specified
    S   [  2.00] 2.00
    P      4.00
 

 *******************************************************************************
                  Iteration          Convergence                     Energy [au]
 *******************************************************************************
                          1        0.702811                     -15.577904332270
                          2        0.612408                     -15.588447180504
                          3        0.955344E-02                 -15.655871208406
                          4        0.223754E-02                 -15.655885053552
                          5        0.157183E-02                 -15.655885461027
                          6        0.124953E-02                 -15.655885607150
                          7        0.312011E-06                 -15.655885858066

 Energy components [Hartree]           Total Energy ::          -15.655885858066
                                        Band Energy ::           -2.983128125584
                                     Kinetic Energy ::           11.754765134683
                                   Potential Energy ::          -27.410650992750
                                      Virial (-V/T) ::            2.331875684345
                                        Core Energy ::          -26.153522949072
                                          XC Energy ::           -3.157392363346
                                     Coulomb Energy ::           13.655029454351
                       Total Pseudopotential Energy ::          -37.943026860963
                       Local Pseudopotential Energy ::          -39.220419683052
                    Nonlocal Pseudopotential Energy ::            1.277392822089
                                        Confinement ::            0.347387772086

 Orbital energies  State     L     Occupation   Energy[a.u.]          Energy[eV]

                       1     0          2.000      -0.861522          -23.443215
 
                       1     1          4.000      -0.315021           -8.572154
 

 Total Electron Density at R=0:                                         0.000093

 Guess for atomic kind: H

 Electronic structure
    Total number of core electrons                                          0.00
    Total number of valence electrons                                       1.00
    Total number of electrons                                               1.00
    Multiplicity                                                   not specified
    S      1.00
 

 *******************************************************************************
                  Iteration          Convergence                     Energy [au]
 *******************************************************************************
                          1        0.250972E-02                  -0.375256815885
                          2        0.570752E-04                  -0.375258666164
                          3        0.832405E-09                  -0.375258667122

 Energy components [Hartree]           Total Energy ::           -0.375258667122
                                        Band Energy ::           -0.076317618391
                                     Kinetic Energy ::            0.771356566341
                                   Potential Energy ::           -1.146615233463
                                      Virial (-V/T) ::            1.486491829455
                                        Core Energy ::           -0.456090715790
                                          XC Energy ::           -0.314218627334
                                     Coulomb Energy ::            0.395050676003
                       Total Pseudopotential Energy ::           -1.238482237174
                       Local Pseudopotential Energy ::           -1.238482237174
                    Nonlocal Pseudopotential Energy ::            0.000000000000
                                        Confinement ::            0.110349550431

 Orbital energies  State     L     Occupation   Energy[a.u.]          Energy[eV]

                       1     0          1.000      -0.076318           -2.076708
 

 Total Electron Density at R=0:                                         0.425022
 Re-scaling the density matrix to get the right number of electrons
                  # Electrons              Trace(P)               Scaling factor
                          968               968.001                        1.000


 SCF WAVEFUNCTION OPTIMIZATION

  Step     Update method      Time    Convergence         Total energy    Change
  ------------------------------------------------------------------------------

  POISSON| IMPLICIT (GENERALIZED) SOLVER ---------------------------------------
  POISSON| Preparing Dirichlet regions ...
  POISSON| Dirichlet region    1
  POISSON|     type : axis-aligned planar
  POISSON|     applied potential :   0.0000E+00  [Eh/e]
  POISSON| Dirichlet region    2
  POISSON|     type : axis-aligned planar
  POISSON|     applied potential :   0.1837E+00  [Eh/e]
  POISSON| ... Done. 
  ------------------------------------------------------------------------------

  POISSON|   iter        pres error      nabs error        E_hartree    delta E
  POISSON|      1        0.5118E-02      0.5740E-01     870.8993492909  0.87E+03
  POISSON|      2        0.2323E-15      0.5118E-02     870.9374720907  0.38E-01
  POISSON| Poisson solver converged in 2 iterations.
     1 NoMix/Diag. 0.30E+00    1.6     0.69313069     -2533.5500918398 -2.53E+03
  POISSON|   iter        pres error      nabs error        E_hartree    delta E
  POISSON|      1        0.9252E-02      0.5897E-01     880.4888132943  0.96E+01
  POISSON|      2        0.2113E-16      0.9252E-02     880.5577319414  0.69E-01
  POISSON| Poisson solver converged in 2 iterations.
     2 Broy./Diag. 0.30E+00    1.7     0.83043594     -2605.2083399898 -7.17E+01
  POISSON|   iter        pres error      nabs error        E_hartree    delta E
  POISSON|      1        0.2933E-02      0.8742E-02     883.1502291515  0.26E+01
  POISSON|      2        0.1010E-15      0.2933E-02     883.1283836058 -0.22E-01
  POISSON| Poisson solver converged in 2 iterations.
     3 Broy./Diag. 0.30E+00    1.7     0.74372310     -2607.0546415456 -1.85E+00
  POISSON|   iter        pres error      nabs error        E_hartree    delta E
  POISSON|      1        0.1901E-03      0.1429E-02     884.7905679381  0.17E+01
  POISSON|      2        0.7098E-16      0.1901E-03     884.7891521381 -0.14E-02
  POISSON| Poisson solver converged in 2 iterations.
     4 Broy./Diag. 0.30E+00    1.7     0.21723921     -2590.0032334115  1.71E+01
  POISSON|   iter        pres error      nabs error        E_hartree    delta E
  POISSON|      1        0.3501E-03      0.1298E-02     889.4794259955  0.47E+01
  POISSON|      2        0.2033E-16      0.3501E-03     889.4768176992 -0.26E-02
  POISSON| Poisson solver converged in 2 iterations.
     5 Broy./Diag. 0.30E+00    1.7     0.35506949     -2574.9165874072  1.51E+01
  POISSON|   iter        pres error      nabs error        E_hartree    delta E
  POISSON|      1        0.3724E-03      0.1175E-02     895.6241590644  0.61E+01
  POISSON|      2        0.6469E-16      0.3724E-03     895.6269335408  0.28E-02
  POISSON| Poisson solver converged in 2 iterations.
     6 Broy./Diag. 0.30E+00    1.7     0.29232204     -2560.5864038373  1.43E+01
  POISSON|   iter        pres error      nabs error        E_hartree    delta E
  POISSON|      1        0.6266E-05      0.2972E-03     899.3008277950  0.37E+01
  POISSON|      2        0.6777E-17      0.6266E-05     899.3008744735  0.47E-04
  POISSON| Poisson solver converged in 2 iterations.
     7 Broy./Diag. 0.30E+00    2.0     0.10162195     -2545.5344136690  1.51E+01
  POISSON|   iter        pres error      nabs error        E_hartree    delta E
  POISSON|      1        0.3898E-04      0.1414E-03     900.2391005377  0.94E+00
  POISSON|      2        0.7234E-17      0.3898E-04     900.2393908803  0.29E-03
  POISSON| Poisson solver converged in 2 iterations.
     8 Broy./Diag. 0.30E+00    1.7     0.07647484     -2541.5457748267  3.99E+00
  POISSON|   iter        pres error      nabs error        E_hartree    delta E
  POISSON|      1        0.1428E-04      0.1250E-03     901.3099524475  0.11E+01
  POISSON|      2        0.4209E-17      0.1428E-04     901.3100588550  0.11E-03
  POISSON| Poisson solver converged in 2 iterations.
     9 Broy./Diag. 0.30E+00    1.7     0.07820113     -2538.7177366009  2.83E+00
  POISSON|   iter        pres error      nabs error        E_hartree    delta E
  POISSON|      1        0.2540E-04      0.1192E-03     901.5798342734  0.27E+00
  POISSON|      2        0.3048E-17      0.2540E-04     901.5796450635 -0.19E-03
  POISSON| Poisson solver converged in 2 iterations.
    10 Broy./Diag. 0.30E+00    1.7     0.04928847     -2537.5770209975  1.14E+00
  POISSON|   iter        pres error      nabs error        E_hartree    delta E
  POISSON|      1        0.1828E-04      0.6202E-04     901.5571878499 -0.22E-01
  POISSON|      2        0.7556E-17      0.1828E-04     901.5573239949  0.14E-03
  POISSON| Poisson solver converged in 2 iterations.
    11 Broy./Diag. 0.30E+00    1.7     0.03539959     -2537.4561556844  1.21E-01
  POISSON|   iter        pres error      nabs error        E_hartree    delta E
  POISSON|      1        0.9776E-05      0.6415E-04     901.6037946787  0.46E-01
  POISSON|      2        0.9198E-17      0.9776E-05     901.6038675012  0.73E-04
  POISSON| Poisson solver converged in 2 iterations.
    12 Broy./Diag. 0.30E+00    1.7     0.01663379     -2537.7084249494 -2.52E-01
  POISSON|   iter        pres error      nabs error        E_hartree    delta E
  POISSON|      1        0.8509E-05      0.2325E-04     901.5940047567 -0.99E-02
  POISSON|      2        0.1352E-16      0.8509E-05     901.5940681413  0.63E-04
  POISSON| Poisson solver converged in 2 iterations.
    13 Broy./Diag. 0.30E+00    1.7     0.01111044     -2537.9009460643 -1.93E-01
  POISSON|   iter        pres error      nabs error        E_hartree    delta E
  POISSON|      1        0.4789E-05      0.1473E-04     901.5921349516 -0.19E-02
  POISSON|      2        0.9151E-17      0.4789E-05     901.5921706287  0.36E-04
  POISSON| Poisson solver converged in 2 iterations.
    14 Broy./Diag. 0.30E+00    1.7     0.00601780     -2537.9980487558 -9.71E-02
  POISSON|   iter        pres error      nabs error        E_hartree    delta E
  POISSON|      1        0.1583E-04      0.4361E-04     901.5415609963 -0.51E-01
  POISSON|      2        0.2516E-17      0.1583E-04     901.5416789161  0.12E-03
  POISSON| Poisson solver converged in 2 iterations.
    15 Broy./Diag. 0.30E+00    1.7     0.00534831     -2538.0784881222 -8.04E-02
  POISSON|   iter        pres error      nabs error        E_hartree    delta E
  POISSON|      1        0.1345E-04      0.3436E-04     901.5312681417 -0.10E-01
  POISSON|      2        0.0000E+00      0.1345E-04     901.5313683622  0.10E-03
  POISSON| Poisson solver converged in 2 iterations.
    16 Broy./Diag. 0.30E+00    1.7     0.00245752     -2538.1616483161 -8.32E-02
  POISSON|   iter        pres error      nabs error        E_hartree    delta E
  POISSON|      1        0.1233E-04      0.3289E-04     901.5384614910  0.71E-02
  POISSON|      2        0.8631E-18      0.1233E-04     901.5385533721  0.92E-04
  POISSON| Poisson solver converged in 2 iterations.
    17 Broy./Diag. 0.30E+00    1.7     0.00256078     -2538.1858725403 -2.42E-02
  POISSON|   iter        pres error      nabs error        E_hartree    delta E
  POISSON|      1        0.7492E-05      0.2157E-04     901.5375820612 -0.97E-03
  POISSON|      2        0.7733E-18      0.7492E-05     901.5376378707  0.56E-04
  POISSON| Poisson solver converged in 2 iterations.
    18 Broy./Diag. 0.30E+00    1.7     0.00235175     -2538.1791930809  6.68E-03
  POISSON|   iter        pres error      nabs error        E_hartree    delta E
  POISSON|      1        0.1695E-04      0.4334E-04     901.5553481311  0.18E-01
  POISSON|      2        0.2215E-17      0.1695E-04     901.5554744203  0.13E-03
  POISSON| Poisson solver converged in 2 iterations.
    19 Broy./Diag. 0.30E+00    1.7     0.00181506     -2538.1191875759  6.00E-02
  POISSON|   iter        pres error      nabs error        E_hartree    delta E
  POISSON|      1        0.1018E-04      0.2488E-04     901.5605968973  0.51E-02
  POISSON|      2        0.1074E-16      0.1018E-04     901.5606726944  0.76E-04
  POISSON| Poisson solver converged in 2 iterations.
    20 Broy./Diag. 0.30E+00    1.7     0.00177917     -2538.1292262996 -1.00E-02
  POISSON|   iter        pres error      nabs error        E_hartree    delta E
  POISSON|      1        0.7941E-05      0.2402E-04     901.5761592996  0.15E-01
  POISSON|      2        0.1009E-16      0.7941E-05     901.5762184511  0.59E-04
  POISSON| Poisson solver converged in 2 iterations.
    21 Broy./Diag. 0.30E+00    1.7     0.00252416     -2538.1017713515  2.75E-02
  POISSON|   iter        pres error      nabs error        E_hartree    delta E
  POISSON|      1        0.1796E-04      0.4568E-04     901.5843329401  0.81E-02
  POISSON|      2        0.8614E-18      0.1796E-04     901.5844667158  0.13E-03
  POISSON| Poisson solver converged in 2 iterations.
    22 Broy./Diag. 0.30E+00    1.7     0.00162310     -2538.0805290877  2.12E-02
  POISSON|   iter        pres error      nabs error        E_hartree    delta E
  POISSON|      1        0.1067E-04      0.2897E-04     901.5882472800  0.38E-02
  POISSON|      2        0.6369E-17      0.1067E-04     901.5883267485  0.79E-04
  POISSON| Poisson solver converged in 2 iterations.
    23 Broy./Diag. 0.30E+00    1.7     0.00051919     -2538.0865847739 -6.06E-03
  POISSON|   iter        pres error      nabs error        E_hartree    delta E
  POISSON|      1        0.1082E-04      0.2918E-04     901.5848737497 -0.35E-02
  POISSON|      2        0.2198E-17      0.1082E-04     901.5849543545  0.81E-04
  POISSON| Poisson solver converged in 2 iterations.
    24 Broy./Diag. 0.30E+00    1.7     0.00066533     -2538.0874804294 -8.96E-04
  POISSON|   iter        pres error      nabs error        E_hartree    delta E
  POISSON|      1        0.9163E-05      0.2626E-04     901.5812417142 -0.37E-02
  POISSON|      2        0.5329E-17      0.9163E-05     901.5813099719  0.68E-04
  POISSON| Poisson solver converged in 2 iterations.
    25 Broy./Diag. 0.30E+00    1.7     0.00047109     -2538.1062300165 -1.87E-02
  POISSON|   iter        pres error      nabs error        E_hartree    delta E
  POISSON|      1        0.3399E-05      0.1011E-04     901.5788480227 -0.25E-02
  POISSON|      2        0.1677E-17      0.3399E-05     901.5788733406  0.25E-04
  POISSON| Poisson solver converged in 2 iterations.
    26 Broy./Diag. 0.30E+00    1.7     0.00048388     -2538.1035389180  2.69E-03
  POISSON|   iter        pres error      nabs error        E_hartree    delta E
  POISSON|      1        0.5187E-05      0.1463E-04     901.5753314052 -0.35E-02
  POISSON|      2        0.0000E+00      0.5187E-05     901.5753700433  0.39E-04
  POISSON| Poisson solver converged in 2 iterations.
    27 Broy./Diag. 0.30E+00    1.7     0.00048001     -2538.1082748803 -4.74E-03
  POISSON|   iter        pres error      nabs error        E_hartree    delta E
  POISSON|      1        0.4336E-05      0.1238E-04     901.5744152381 -0.95E-03
  POISSON|      2        0.2693E-17      0.4336E-05     901.5744475357  0.32E-04
  POISSON| Poisson solver converged in 2 iterations.
    28 Broy./Diag. 0.30E+00    1.7     0.00034919     -2538.1153481375 -7.07E-03
  POISSON|   iter        pres error      nabs error        E_hartree    delta E
  POISSON|      1        0.4162E-05      0.1167E-04     901.5750151073  0.57E-03
  POISSON|      2        0.2199E-17      0.4162E-05     901.5750461144  0.31E-04
  POISSON| Poisson solver converged in 2 iterations.
    29 Broy./Diag. 0.30E+00    1.7     0.00027071     -2538.1124979937  2.85E-03
  POISSON|   iter        pres error      nabs error        E_hartree    delta E
  POISSON|      1        0.3438E-05      0.9247E-05     901.5761568654  0.11E-02
  POISSON|      2        0.3333E-17      0.3438E-05     901.5761824784  0.26E-04
  POISSON| Poisson solver converged in 2 iterations.
    30 Broy./Diag. 0.30E+00    1.7     0.00020666     -2538.1082281788  4.27E-03
  POISSON|   iter        pres error      nabs error        E_hartree    delta E
  POISSON|      1        0.3829E-06      0.2008E-05     901.5763987992  0.22E-03
  POISSON|      2        0.3745E-17      0.3829E-06     901.5764016515  0.29E-05
  POISSON| Poisson solver converged in 2 iterations.
    31 Broy./Diag. 0.30E+00    1.7     0.00037221     -2538.1084658165 -2.38E-04
  POISSON|   iter        pres error      nabs error        E_hartree    delta E
  POISSON|      1        0.5119E-05      0.1347E-04     901.5793089595  0.29E-02
  POISSON|      2        0.4047E-17      0.5119E-05     901.5793470933  0.38E-04
  POISSON| Poisson solver converged in 2 iterations.
    32 Broy./Diag. 0.30E+00    1.7     0.00040536     -2538.1047176074  3.75E-03
  POISSON|   iter        pres error      nabs error        E_hartree    delta E
  POISSON|      1        0.1990E-05      0.5719E-05     901.5800307857  0.68E-03
  POISSON|      2        0.3822E-17      0.1990E-05     901.5800456108  0.15E-04
  POISSON| Poisson solver converged in 2 iterations.
    33 Broy./Diag. 0.30E+00    1.7     0.00013972     -2538.1010738013  3.64E-03
  POISSON|   iter        pres error      nabs error        E_hartree    delta E
  POISSON|      1        0.1675E-05      0.4661E-05     901.5800297803 -0.16E-04
  POISSON|      2        0.3813E-17      0.1675E-05     901.5800422610  0.12E-04
  POISSON| Poisson solver converged in 2 iterations.
    34 Broy./Diag. 0.30E+00    1.7     0.00012594     -2538.1001782161  8.96E-04
  POISSON|   iter        pres error      nabs error        E_hartree    delta E
  POISSON|      1        0.9791E-06      0.2799E-05     901.5797801329 -0.26E-03
  POISSON|      2        0.4254E-17      0.9791E-06     901.5797874268  0.73E-05
  POISSON| Poisson solver converged in 2 iterations.
    35 Broy./Diag. 0.30E+00    1.7     0.00011891     -2538.1016842078 -1.51E-03
  POISSON|   iter        pres error      nabs error        E_hartree    delta E
  POISSON|      1        0.1156E-05      0.3300E-05     901.5792419791 -0.55E-03
  POISSON|      2        0.2629E-17      0.1156E-05     901.5792505928  0.86E-05
  POISSON| Poisson solver converged in 2 iterations.
    36 Broy./Diag. 0.30E+00    1.7     0.00008499     -2538.1018208965 -1.37E-04
  POISSON|   iter        pres error      nabs error        E_hartree    delta E
  POISSON|      1        0.6154E-06      0.1734E-05     901.5788893589 -0.36E-03
  POISSON|      2        0.4768E-18      0.6154E-06     901.5788939431  0.46E-05
  POISSON| Poisson solver converged in 2 iterations.
    37 Broy./Diag. 0.30E+00    1.7     0.00009400     -2538.1015053527  3.16E-04
  POISSON|   iter        pres error      nabs error        E_hartree    delta E
[...]
 flops     5 x    32 x    13               748800       0.0%    100.0%      0.0%
 flops    13 x    32 x     5               748800       0.0%    100.0%      0.0%
 flops     5 x    13 x    96               836160       0.0%    100.0%      0.0%
 flops    13 x     5 x    96               836160       0.0%    100.0%      0.0%
 flops     5 x     5 x    96               964800       0.0%    100.0%      0.0%
 flops    13 x    32 x    13               973440       0.0%    100.0%      0.0%
 flops     5 x    13 x   120              1045200       0.0%    100.0%      0.0%
 flops    13 x     5 x   120              1045200       0.0%    100.0%      0.0%
 flops     5 x     5 x   120              1206000       0.0%    100.0%      0.0%
 flops    13 x    13 x    96              2174016       0.0%    100.0%      0.0%
 flops    13 x    13 x   120              2717520       0.0%    100.0%      0.0%
 flops     5 x    13 x   128              6689280       0.0%    100.0%      0.0%
 flops    13 x     5 x   128              6689280       0.0%    100.0%      0.0%
 flops     5 x     5 x   128              7718400       0.0%    100.0%      0.0%
 flops    13 x    13 x   128             17392128       0.0%    100.0%      0.0%
 flops    20 x    32 x    13             82368000       0.0%    100.0%      0.0%
 flops    13 x    32 x    20             82368000       0.0%    100.0%      0.0%
 flops    20 x    32 x     5             82944000       0.0%    100.0%      0.0%
 flops     5 x    32 x    20             82944000       0.0%    100.0%      0.0%
 flops    20 x    13 x    96             90305280       0.0%    100.0%      0.0%
 flops    20 x     5 x    96             91334400       0.0%    100.0%      0.0%
 flops    13 x    20 x    96             93649920       0.0%    100.0%      0.0%
 flops     5 x    20 x    96             93907200       0.0%    100.0%      0.0%
 flops    20 x    13 x   120            112881600       0.0%    100.0%      0.0%
 flops    20 x     5 x   120            114168000       0.0%    100.0%      0.0%
 flops    13 x    20 x   120            117062400       0.0%    100.0%      0.0%
 flops     5 x    20 x   120            117384000       0.0%    100.0%      0.0%
 flops    20 x     4 x    20            176947200       0.0%    100.0%      0.0%
 flops    20 x    13 x   128            722442240       0.0%    100.0%      0.0%
 flops    20 x     5 x   128            730675200       0.0%    100.0%      0.0%
 flops    13 x    20 x   128            749199360       0.0%    100.0%      0.0%
 flops     5 x    20 x   128            751257600       0.0%    100.0%      0.0%
 flops    20 x    32 x    20          21233664000       0.0%    100.0%      0.0%
 flops    20 x    20 x    96          23957913600       0.0%    100.0%      0.0%
 flops    20 x    20 x   120          29947392000       0.0%    100.0%      0.0%
 flops    20 x    20 x   128         191663308800       0.0%    100.0%      0.0%
 flops inhomo. stacks                           0       0.0%      0.0%      0.0%
 flops total                       271.149259E+09       0.0%    100.0%      0.0%
 flops max/rank                      4.778538E+09       0.0%    100.0%      0.0%
 matmuls inhomo. stacks                         0       0.0%      0.0%      0.0%
 matmuls total                            3529304       0.0%    100.0%      0.0%
 number of processed stacks                 69782       0.0%    100.0%      0.0%
 average stack size                                     0.0      50.6       0.0
 marketing flops                   283.838218E+09
 -------------------------------------------------------------------------------
 # multiplications                             73
 max memory usage/rank               1.142686E+09
 # max total images/rank                        1
 # max 3D layers                                1
 # MPI messages exchanged                   65408
 MPI messages size (bytes):
  total size                        15.921061E+09
  min size                          69.120000E+03
  max size                         495.432000E+03
  average size                     243.411516E+03
 MPI breakdown and total messages size (bytes):
             size <=      128                   0                        0
       128 < size <=     8192                   0                        0
      8192 < size <=    32768                   0                        0
     32768 < size <=   131072                2688                315978432
    131072 < size <=  4194304               62720              15605082192
   4194304 < size <= 16777216                   0                        0
  16777216 < size                               0                        0
 -------------------------------------------------------------------------------
 -                                                                             -
 -                      DBCSR MESSAGE PASSING PERFORMANCE                      -
 -                                                                             -
 -------------------------------------------------------------------------------
 ROUTINE             CALLS      AVE VOLUME [Bytes]
 MP_Bcast               46                     12.
 MP_Allreduce          597                     11.
 MP_Alltoall          2002                 144642.
 MP_ISend             2336                 108677.
 MP_IRecv             2336                 105153.
 -------------------------------------------------------------------------------

 -------------------------------------------------------------------------------
 -                                                                             -
 -                                DBM STATISTICS                               -
 -                                                                             -
 -------------------------------------------------------------------------------
    M  x    N  x    K                                          COUNT     PERCENT
 -------------------------------------------------------------------------------

 -------------------------------------------------------------------------------
 -                                                                             -
 -                                GRID STATISTICS                              -
 -                                                                             -
 -------------------------------------------------------------------------------
 LP    KERNEL             BACKEND                              COUNT     PERCENT
 4     collocate ortho    REF                               10421381      49.36%
 4     integrate ortho    REF                               10267546      48.63%
 5     integrate ortho    REF                                 155543       0.74%
 3     collocate ortho    REF                                 114436       0.54%
 3     integrate ortho    REF                                 112836       0.53%
 0     collocate general  REF                                  12672       0.06%
 2     collocate ortho    REF                                   7236       0.03%
 2     integrate ortho    REF                                   7128       0.03%
 0     integrate general  REF                                   6336       0.03%
 1     integrate general  REF                                   6336       0.03%
 -------------------------------------------------------------------------------

 MEMORY| Estimated peak process memory [MiB]                                1245

 -------------------------------------------------------------------------------
 ----                             MULTIGRID INFO                            ----
 -------------------------------------------------------------------------------
 count for grid        1:         504076          cutoff [a.u.]          200.00
 count for grid        2:         489085          cutoff [a.u.]           66.67
 count for grid        3:         274612          cutoff [a.u.]           22.22
 count for grid        4:         162434          cutoff [a.u.]            7.41
 total gridlevel count  :        1430207

 -------------------------------------------------------------------------------
 -                                                                             -
 -                         MESSAGE PASSING PERFORMANCE                         -
 -                                                                             -
 -------------------------------------------------------------------------------

 ROUTINE             CALLS      AVE VOLUME [Bytes]
 MP_Group                4
 MP_Bcast             2524                 223020.
 MP_Allreduce         5977                   2201.
 MP_Sync               137
 MP_Alltoall          3757                6437228.
 MP_SendRecv        224028                 105291.
 MP_ISendRecv        16884                  26400.
 MP_Wait             39046
 MP_comm_split          66
 MP_ISend            20396                  83570.
 MP_IRecv            20396                  83570.
 MP_Recv               150                 497408.
 MP_Write_All            3                 592560.
 -------------------------------------------------------------------------------


 -------------------------------------------------------------------------------
 -                                                                             -
 -                           R E F E R E N C E S                               -
 -                                                                             -
 -------------------------------------------------------------------------------
 
 CP2K version 2022.1, the CP2K developers group (2022).
 CP2K is freely available from https://www.cp2k.org/ .

 Kuehne,Thomas D.; Iannuzzi,Marcella; Del Ben,Mauro;
 Rybkin,Vladimir V.; Seewald,Patrick; Stein,Frederick; Laino,Teodoro;
 Khaliullin,Rustam Z.; Schuett,Ole; Schiffmann,Florian; Golze,Dorothea;
 Wilhelm,Jan; Chulkov,Sergey; Bani-Hashemian,Mohammad Hossein;
 Weber,Valery; Borstnik,Urban; Taillefumier,Mathieu;
 Jakobovits,Alice Shoshana; Lazzaro,Alfio; Pabst,Hans; Mueller,Tiziano;
 Schade,Robert; Guidon,Manuel; Andermatt,Samuel; Holmberg,Nico;
 Schenter,Gregory K.; Hehn,Anna; Bussy,Augustin; Belleflamme,Fabian;
 Tabacchi,Gloria; Gloess,Andreas; Lass,Michael; Bethune,Iain;
 Mundy,Christopher J.; Plessl,Christian; Watkins,Matt;
 VandeVondele,Joost; Krack,Matthias; Hutter,Juerg. 
 The Journal of Chemical Physics, 152 (19), (2020). 
 CP2K: An electronic structure and molecular dynamics software package -
 Quickstep: Efficient and accurate electronic structure calculations.
 https://doi.org/10.1063/5.0007045

 Goerigk, Lars; Hansen, Andreas; Bauer, Christoph; Ehrlich, Stephan;
 Najibi, Asim; Grimme, Stefan. , 19 (48), (2017). 
 A look at the density functional theory zoo with the advanced GMTKN55 database
 for general main group thermochemistry, kinetics and noncovalent interactions.
 https://doi.org/10.1039/C7CP04913G

 Bani-Hashemian, MH; Bruck, S; Luisier, M; VandeVondele, J. 
 JOURNAL OF CHEMICAL PHYSICS, 144 (4), 044113 (2016). 
 A generalized Poisson solver for first-principles device simulations.
 https://doi.org/10.1063/1.4940796

 Schuett, Ole; Messmer, Peter; Hutter, Juerg; VandeVondele, Joost. 
 Electronic Structure Calculations on Graphics Processing Units, John
 Wiley & Sons, Ltd, 173-190 (2016). 
 GPU-Accelerated Sparse Matrix-Matrix Multiplication for
 Linear Scaling Density Functional Theory.
 https://doi.org/10.1002/9781118670712.ch8

 Heinecke, A; Henry, G; Hutchinson, M; Pabst, H. 
 Proceedings of Intl. Supercomputing Conference, 981-991 (2016). 
 LIBXSMM: Accelerating Small Matrix Multiplications
 by Runtime Code Generation.
 https://doi.org/10.1109/SC.2016.83

 Borstnik, U; VandeVondele, J; Weber, V; Hutter, J. 
 PARALLEL COMPUTING, 40 (5-6), 47-58 (2014). 
 Sparse matrix multiplication: The distributed block-compressed sparse
 row library.
 https://doi.org/10.1016/j.parco.2014.03.012

 Hutter, J; Iannuzzi, M; Schiffmann, F; VandeVondele, J. 
 WIREs Comput Mol Sci., 4 (1), 15-25 (2014). 
 CP2K: atomistic simulations of condensed matter systems.
 https://doi.org/10.1002/wcms.1159

 Marek, A; Blum, V; Johanni, R; Havu, V; Lang, B; Auckenthaler, T;
 Heinecke, A; Bungartz, H; Lederer, H. 
 Journal of Physics: Condensed Matter, 26 (21), (2014). 
 The ELPA library: scalable parallel eigenvalue solutions for
 electronic structure
 theory and computational science.
 https://doi.org/10.1088/0953-8984/26/21/213201

 Grimme, S; Ehrlich, S; Goerigk, L. 
 JOURNAL OF COMPUTATIONAL CHEMISTRY, 32, 1456 (2011). 
 Effect of the damping function in dispersion corrected density functional theory.
 https://doi.org/10.1002/jcc.21759

 Grimme, S; Antony, J; Ehrlich, S; Krieg, H. 
 JOURNAL OF CHEMICAL PHYSICS, 132 (15), 154104 (2010). 
 A consistent and accurate ab initio parametrization of density
 functional dispersion correction (DFT-D) for the 94 elements H-Pu.
 https://doi.org/10.1063/1.3382344

 VandeVondele, J; Hutter, J. 
 JOURNAL OF CHEMICAL PHYSICS, 127 (11), 114105 (2007). 
 Gaussian basis sets for accurate calculations on molecular systems in
 gas and condensed phases.
 https://doi.org/10.1063/1.2770708

 Krack, M. 
 THEORETICAL CHEMISTRY ACCOUNTS, 114 (1-3), 145-152 (2005). 
 Pseudopotentials for H to Kr optimized for gradient-corrected
 exchange-correlation functionals.
 https://doi.org/10.1007/s00214-005-0655-y

 VandeVondele, J; Krack, M; Mohamed, F; Parrinello, M; Chassaing, T;
 Hutter, J. COMPUTER PHYSICS COMMUNICATIONS, 167 (2), 103-128 (2005). 
 QUICKSTEP: Fast and accurate density functional calculations using a
 mixed Gaussian and plane waves approach.
 https://doi.org/10.1016/j.cpc.2004.12.014

 Frigo, M; Johnson, SG. 
 PROCEEDINGS OF THE IEEE, 93 (2), 216-231 (2005). 
 The design and implementation of FFTW3.
 https://doi.org/10.1109/JPROC.2004.840301

 Hartwigsen, C; Goedecker, S; Hutter, J. 
 PHYSICAL REVIEW B, 58 (7), 3641-3662 (1998). 
 Relativistic separable dual-space Gaussian pseudopotentials from H to Rn.
 https://doi.org/10.1103/PhysRevB.58.3641

 Lippert, G; Hutter, J; Parrinello, M. 
 MOLECULAR PHYSICS, 92 (3), 477-487 (1997). 
 A hybrid Gaussian and plane wave density functional scheme.
 https://doi.org/10.1080/002689797170220

 Perdew, JP; Burke, K; Ernzerhof, M. 
 PHYSICAL REVIEW LETTERS, 77 (18), 3865-3868 (1996). 
 Generalized gradient approximation made simple.
 https://doi.org/10.1103/PhysRevLett.77.3865

 Goedecker, S; Teter, M; Hutter, J. 
 PHYSICAL REVIEW B, 54 (3), 1703-1710 (1996). 
 Separable dual-space Gaussian pseudopotentials.
 https://doi.org/10.1103/PhysRevB.54.1703


 -------------------------------------------------------------------------------
 -                                                                             -
 -                                T I M I N G                                  -
 -                                                                             -
 -------------------------------------------------------------------------------
 SUBROUTINE                       CALLS  ASD         SELF TIME        TOTAL TIME
                                MAXIMUM       AVERAGE  MAXIMUM  AVERAGE  MAXIMUM
 CP2K                                 1  1.0    0.018    0.025  243.003  243.004
 qs_forces                            1  2.0    0.002    0.002  242.613  242.614
 qs_energies                          1  3.0    0.000    0.000  239.970  239.972
 scf_post_calculation_gpw             1  4.0    0.001    0.001  129.282  129.283
 get_localization_info                1  5.0    0.000    0.000  128.046  128.058
 qs_loc_driver                        1  6.0    0.000    0.000  128.046  128.058
 optimize_loc_berry                   1  7.0    0.034    0.051  128.041  128.057
 jacobi_rot_para                      1  8.0   94.219  104.274  127.938  127.938
 scf_env_do_scf                       1  4.0    0.000    0.000  109.637  109.667
 scf_env_do_scf_inner_loop           66  5.0    0.003    0.007  109.637  109.666
 rebuild_ks_matrix                   67  7.0    0.000    0.000   73.760   73.789
 qs_ks_build_kohn_sham_matrix        67  8.0    0.009    0.010   73.760   73.789
 qs_ks_update_qs_env                 66  6.0    0.001    0.001   72.393   72.421
 pw_transfer                       3338 12.2    0.214    0.273   43.336   43.699
 fft_wrap_pw1pw2                   3338 13.2    0.028    0.034   43.121   43.440
 fft_wrap_pw1pw2_200               2936 14.4    4.076    4.865   42.552   42.848
 pw_poisson_solve                    67  9.0    0.022    0.047   39.218   39.233
 implicit_poisson_solver_mixed_      67 10.0    1.011    1.373   37.087   37.119
 fft3d_ps                          3338 15.2   16.557   18.933   32.675   33.155
 mp_allgather_d23                111888  9.0   24.756   32.864   24.756   32.864
 derive_fft                         372 12.1    0.023    0.027   25.622   25.796
 sum_up_and_integrate                67  9.0    0.147    0.191   21.922   21.952
 apply_P_operator                   305 11.2    0.612    0.738   21.712   21.909
 integrate_v_rspace                  67 10.0    0.001    0.002   21.775   21.809
 qs_rho_update_rho_low               67  6.0    0.000    0.000   20.757   20.760
 calculate_rho_elec                  67  7.0    0.056    0.080   20.756   20.759
 rs_pw_transfer                     540 10.5    0.005    0.005   15.195   17.254
 grid_integrate_task_list            67 11.0    5.931   17.232    5.931   17.232
 grid_collocate_task_list            67  8.0    6.109   16.489    6.109   16.489
 density_rs2pw                       67  8.0    0.004    0.004   14.265   16.305
 mp_alltoall_d11v                   993 10.4   11.769   13.976   11.769   13.976
 mp_waitany                       20396 12.4   11.669   13.818   11.669   13.818
 rs_gather_matrices                  67 11.0    0.018    0.023   11.465   13.660
 rs_pw_transfer_RS2PW_200            69 10.0    0.666    0.843   11.492   13.533
 qs_scf_new_mos                      66  6.0    0.002    0.005   12.462   12.525
 mp_alltoall_z22v                  3338 17.2   11.512   12.437   11.512   12.437
 qs_vxc_create                       67  9.0    0.001    0.002   11.525   11.560
 xc_vxc_pw_create                    67 10.0    0.194    0.235   11.524   11.559
 eigensolver                         66  7.0    0.005    0.007   11.359   11.397
 x_to_yz                           1973 16.4    3.178    4.463    9.362   10.098
 mp_sendrecv_zm3                 111888  9.0    6.769    9.432    6.769    9.432
 xc_pw_derive                       402 12.0    0.005    0.010    7.741    7.962
 cp_fm_diag_elpa                     66  8.0    0.001    0.001    7.781    7.850
 cp_fm_redistribute_end              66  9.0    3.376    7.604    3.390    7.608
 cp_fm_diag_elpa_base                66  9.0    4.124    7.357    4.190    7.476
 yz_to_x                           1097 16.2    1.224    1.368    6.533    7.244
 apply_poisson_operator_fft          67 11.0    0.001    0.001    6.969    6.995
 xc_rho_set_and_dset_create          67 11.0    0.134    0.150    5.746    6.502
 apply_inv_laplace_operator_fft     188 11.6    0.210    0.222    5.559    5.623
 xc_pw_divergence                    67 11.0    0.003    0.003    5.333    5.512
 -------------------------------------------------------------------------------

 The number of warnings for this run is : 2
 
 -------------------------------------------------------------------------------
  **** **** ******  **  PROGRAM ENDED AT                 2024-07-29 22:23:28.083
 ***** ** ***  *** **   PROGRAM RAN ON                                     cu324
 **    ****   ******    PROGRAM RAN BY                                     jxzhu
 ***** **    ** ** **   PROGRAM PROCESS ID                                 25362
  **** **  *******  **  PROGRAM STOPPED IN /public/home/jxzhu/tmp_calc/9d643e66b
                                           35f886dcfbeec425b872811054e1b1a/calc.
                                           001/task.003.000001
