 DBCSR| CPU Multiplication driver                                           XSMM
 DBCSR| Multrec recursion limit                                              512
 DBCSR| Multiplication stack size                                           1000
 DBCSR| Maximum elements for images                                    UNLIMITED
 DBCSR| Multiplicative factor virtual images                                   1
 DBCSR| Use multiplication densification                                       T
 DBCSR| Multiplication size stacks                                             3
 DBCSR| Use memory pool for CPU allocation                                     F
 DBCSR| Number of 3D layers                                               SINGLE
 DBCSR| Use MPI memory allocation                                              F
 DBCSR| Use RMA algorithm                                                      F
 DBCSR| Use Communication thread                                               T
 DBCSR| Communication thread load                                             87
 DBCSR| MPI: My node id                                                        0
 DBCSR| MPI: Number of nodes                                                  64
 DBCSR| OMP: Current number of threads                                         1
 DBCSR| OMP: Max number of threads                                             1
 DBCSR| Split modifier for TAS multiplication algorithm                  1.0E+00


  **** **** ******  **  PROGRAM STARTED AT               2023-11-26 19:57:08.006
 ***** ** ***  *** **   PROGRAM STARTED ON                                 cu054
 **    ****   ******    PROGRAM STARTED BY                                 jxzhu
 ***** **    ** ** **   PROGRAM PROCESS ID                                  6553
  **** **  *******  **  PROGRAM STARTED IN /public/home/jxzhu/tmp_calc/af2075565
                                           805657d94fa4669dad6f4b174b0a4fb/calc/
                                           000900.000/pbc

 CP2K| version string:                                       CP2K version 2022.1
 CP2K| source code revision number:                                  git:2caeb6f
 CP2K| cp2kflags: omp libint fftw3 libxc elpa parallel mpi3 scalapack cosma xsmm
 CP2K|             plumed2 spglib mkl sirius libvori libbqb
 CP2K| is freely available from                            https://www.cp2k.org/
 CP2K| Program compiled at                           Mon Jul 3 17:37:06 CST 2023
 CP2K| Program compiled on                                                 mu003
 CP2K| Program compiled for                                                local
 CP2K| Data directory path                             /public/home/jxzhu/basis/
 CP2K| Input file name                                                 input.inp
 
 GLOBAL| Force Environment number                                              1
 GLOBAL| Basis set file name                                        BASIS_MOLOPT
 GLOBAL| Potential file name                                      GTH_POTENTIALS
 GLOBAL| MM Potential file name                                     MM_POTENTIAL
 GLOBAL| Coordinate file name                                          coord.xyz
 GLOBAL| Method name                                                        CP2K
 GLOBAL| Project name                                                       cp2k
 GLOBAL| Run type                                                   ENERGY_FORCE
 GLOBAL| FFT library                                                       FFTW3
 GLOBAL| Diagonalization library                                            ELPA
 GLOBAL| Minimum number of eigenvectors for ELPA usage                        16
 GLOBAL| Orthonormality check for eigenvectors                          DISABLED
 GLOBAL| Matrix multiplication library                                     COSMA
 GLOBAL| All-to-all communication in single precision                          F
 GLOBAL| FFTs using library dependent lengths                                  F
 GLOBAL| Grid backend                                                       AUTO
 GLOBAL| Global print level                                               MEDIUM
 GLOBAL| MPI I/O enabled                                                       T
 GLOBAL| Total number of message passing processes                            64
 GLOBAL| Number of threads for this process                                    1
 GLOBAL| This output is from process                                           0
 GLOBAL| Stack size for threads created by OpenMP (OMP_STACKSIZE)        default
 GLOBAL| CPU model name                 Intel(R) Xeon(R) Gold 6338 CPU @ 2.00GHz
 GLOBAL| CPUID                                                              1003

 MEMORY| system memory details [Kb]
 MEMORY|                        rank 0           min           max       average
 MEMORY| MemTotal            263619172     263619172     263619172     263619172
 MEMORY| MemFree             210676420     210676420     210679520     210677233
 MEMORY| Buffers                  3320          3320          3320          3320
 MEMORY| Cached                4068260       4068260       4068260       4068260
 MEMORY| Slab                  1787620       1787620       1787620       1787620
 MEMORY| SReclaimable           243356        243356        243356        243356
 MEMORY| MemLikelyFree       214991356     214991356     214994456     214992169


 *** Fundamental physical constants (SI units) ***

 *** Literature: B. J. Mohr and B. N. Taylor,
 ***             CODATA recommended values of the fundamental physical
 ***             constants: 2006, Web Version 5.1
 ***             http://physics.nist.gov/constants

 Speed of light in vacuum [m/s]                             2.99792458000000E+08
 Magnetic constant or permeability of vacuum [N/A**2]       1.25663706143592E-06
 Electric constant or permittivity of vacuum [F/m]          8.85418781762039E-12
 Planck constant (h) [J*s]                                  6.62606896000000E-34
 Planck constant (h-bar) [J*s]                              1.05457162825177E-34
 Elementary charge [C]                                      1.60217648700000E-19
 Electron mass [kg]                                         9.10938215000000E-31
 Electron g factor [ ]                                     -2.00231930436220E+00
 Proton mass [kg]                                           1.67262163700000E-27
 Fine-structure constant                                    7.29735253760000E-03
 Rydberg constant [1/m]                                     1.09737315685270E+07
 Avogadro constant [1/mol]                                  6.02214179000000E+23
 Boltzmann constant [J/K]                                   1.38065040000000E-23
 Atomic mass unit [kg]                                      1.66053878200000E-27
 Bohr radius [m]                                            5.29177208590000E-11

 *** Conversion factors ***

 [u] -> [a.u.]                                              1.82288848426455E+03
 [Angstrom] -> [Bohr] = [a.u.]                              1.88972613288564E+00
 [a.u.] = [Bohr] -> [Angstrom]                              5.29177208590000E-01
 [a.u.] -> [s]                                              2.41888432650478E-17
 [a.u.] -> [fs]                                             2.41888432650478E-02
 [a.u.] -> [J]                                              4.35974393937059E-18
 [a.u.] -> [N]                                              8.23872205491840E-08
 [a.u.] -> [K]                                              3.15774647902944E+05
 [a.u.] -> [kJ/mol]                                         2.62549961709828E+03
 [a.u.] -> [kcal/mol]                                       6.27509468713739E+02
 [a.u.] -> [Pa]                                             2.94210107994716E+13
 [a.u.] -> [bar]                                            2.94210107994716E+08
 [a.u.] -> [atm]                                            2.90362800883016E+08
 [a.u.] -> [eV]                                             2.72113838565563E+01
 [a.u.] -> [Hz]                                             6.57968392072181E+15
 [a.u.] -> [1/cm] (wave numbers)                            2.19474631370540E+05
 [a.u./Bohr**2] -> [1/cm]                                   5.14048714338585E+03
 

 CELL_TOP| Volume [angstrom^3]:                                     10221.806009
 CELL_TOP| Vector a [angstrom    16.869     0.000     0.000   |a| =    16.869000
 CELL_TOP| Vector b [angstrom    -8.434    14.609     0.000   |b| =    16.869015
 CELL_TOP| Vector c [angstrom     0.000     0.000    41.478   |c| =    41.478000
 CELL_TOP| Angle (b,c), alpha [degree]:                                90.000000
 CELL_TOP| Angle (a,c), beta  [degree]:                                90.000000
 CELL_TOP| Angle (a,b), gamma [degree]:                               119.999970
 CELL_TOP| Numerically orthorhombic:                                          NO
 
 GENERATE|  Preliminary Number of Bonds generated:                             0
 GENERATE|  Achieved consistency in connectivity generation.

 CELL| Volume [angstrom^3]:                                         10221.806009
 CELL| Vector a [angstrom]:      16.869     0.000     0.000   |a| =    16.869000
 CELL| Vector b [angstrom]:      -8.434    14.609     0.000   |b| =    16.869015
 CELL| Vector c [angstrom]:       0.000     0.000    41.478   |c| =    41.478000
 CELL| Angle (b,c), alpha [degree]:                                    90.000000
 CELL| Angle (a,c), beta  [degree]:                                    90.000000
 CELL| Angle (a,b), gamma [degree]:                                   119.999970
 CELL| Numerically orthorhombic:                                              NO

 CELL_REF| Volume [angstrom^3]:                                     10221.806009
 CELL_REF| Vector a [angstrom    16.869     0.000     0.000   |a| =    16.869000
 CELL_REF| Vector b [angstrom    -8.434    14.609     0.000   |b| =    16.869015
 CELL_REF| Vector c [angstrom     0.000     0.000    41.478   |c| =    41.478000
 CELL_REF| Angle (b,c), alpha [degree]:                                90.000000
 CELL_REF| Angle (a,c), beta  [degree]:                                90.000000
 CELL_REF| Angle (a,b), gamma [degree]:                               119.999970
 CELL_REF| Numerically orthorhombic:                                          NO

 *******************************************************************************
 *******************************************************************************
 **                                                                           **
 **     #####                         ##              ##                      **
 **    ##   ##            ##          ##              ##                      **
 **   ##     ##                       ##            ######                    **
 **   ##     ##  ##   ##  ##   #####  ##  ##   ####   ##    #####    #####    **
 **   ##     ##  ##   ##  ##  ##      ## ##   ##      ##   ##   ##  ##   ##   **
 **   ##  ## ##  ##   ##  ##  ##      ####     ###    ##   ######   ######    **
 **    ##  ###   ##   ##  ##  ##      ## ##      ##   ##   ##       ##        **
 **     #######   #####   ##   #####  ##  ##  ####    ##    #####   ##        **
 **           ##                                                    ##        **
 **                                                                           **
 **                                                ... make the atoms dance   **
 **                                                                           **
 **            Copyright (C) by CP2K developers group (2000-2022)             **
 **                      J. Chem. Phys. 152, 194103 (2020)                    **
 **                                                                           **
 *******************************************************************************

 DFT| Spin restricted Kohn-Sham (RKS) calculation                            RKS
 DFT| Multiplicity                                                             1
 DFT| Number of spin states                                                    1
 DFT| Charge                                                                   0
 DFT| Self-interaction correction (SIC)                                       NO
 DFT| Cutoffs: density                                              1.000000E-10
 DFT|          gradient                                             1.000000E-10
 DFT|          tau                                                  1.000000E-10
 DFT|          cutoff_smoothing_range                               0.000000E+00
 DFT| XC density smoothing                                                  NONE
 DFT| XC derivatives                                                          PW

 FUNCTIONAL| PBE:
 FUNCTIONAL| J.P.Perdew, K.Burke, M.Ernzerhof, Phys. Rev. Letter, vol. 77, n 18,
 FUNCTIONAL|  pp. 3865-3868, (1996){spin unpolarized}                           

 vdW POTENTIAL|                                                   Pair Potential
 vdW POTENTIAL|          DFT-D3 (Version 3.1)
 vdW POTENTIAL|          Potential Form: S. Grimme et al, JCP 132: 154104 (2010)
 vdW POTENTIAL|          Zero Damping
 vdW POTENTIAL|          Cutoff Radius [Bohr]:                             20.00
 vdW POTENTIAL|          s6 Scaling Factor:                               1.0000
 vdW POTENTIAL|          sr6 Scaling Factor:                              1.2170
 vdW POTENTIAL|          s8 Scaling Factor:                               0.7220
 vdW POTENTIAL|          Cutoff for CN calculation:                   0.1000E-05

 QS| Method:                                                                 GPW
 QS| Density plane wave grid type                        NON-SPHERICAL FULLSPACE
 QS| Number of grid levels:                                                    4
 QS| Density cutoff [a.u.]:                                                200.0
 QS| Multi grid cutoff [a.u.]: 1) grid level                               200.0
 QS|                           2) grid level                                66.7
 QS|                           3) grid level                                22.2
 QS|                           4) grid level                                 7.4
 QS| Grid level progression factor:                                          3.0
 QS| Relative density cutoff [a.u.]:                                        20.0
 QS| Interaction thresholds: eps_pgf_orb:                                3.2E-07
 QS|                         eps_filter_matrix:                          0.0E+00
 QS|                         eps_core_charge:                            1.0E-15
 QS|                         eps_rho_gspace:                             1.0E-13
 QS|                         eps_rho_rspace:                             1.0E-13
 QS|                         eps_gvg_rspace:                             3.2E-07
 QS|                         eps_ppl:                                    1.0E-02
 QS|                         eps_ppnl:                                   3.2E-09


 ATOMIC KIND INFORMATION

  1. Atomic kind: O                                     Number of atoms:     230

     Orbital Basis Set                                        DZVP-MOLOPT-SR-GTH

       Number of orbital shell sets:                                           1
       Number of orbital shells:                                               5
       Number of primitive Cartesian functions:                                5
       Number of Cartesian basis functions:                                   14
       Number of spherical basis functions:                                   13
       Norm type:                                                              2

       Normalised Cartesian orbitals:

                        Set   Shell   Orbital            Exponent    Coefficient

                          1       1    2s               10.389228       0.396646
                                                         3.849621       0.208811
                                                         1.388401      -0.301641
                                                         0.496955      -0.274061
                                                         0.162492      -0.033677

                          1       2    3s               10.389228       0.303673
                                                         3.849621       0.240943
                                                         1.388401      -0.313066
                                                         0.496955      -0.043055
                                                         0.162492       0.213991

                          1       3    3px              10.389228      -1.530415
                                                         3.849621      -1.371928
                                                         1.388401      -0.761951
                                                         0.496955      -0.253695
                                                         0.162492      -0.035541
                          1       3    3py              10.389228      -1.530415
                                                         3.849621      -1.371928
                                                         1.388401      -0.761951
                                                         0.496955      -0.253695
                                                         0.162492      -0.035541
                          1       3    3pz              10.389228      -1.530415
                                                         3.849621      -1.371928
                                                         1.388401      -0.761951
                                                         0.496955      -0.253695
                                                         0.162492      -0.035541

                          1       4    4px              10.389228      -0.565392
                                                         3.849621      -0.038231
                                                         1.388401      -0.382373
                                                         0.496955       0.179070
                                                         0.162492       0.122714
                          1       4    4py              10.389228      -0.565392
                                                         3.849621      -0.038231
                                                         1.388401      -0.382373
                                                         0.496955       0.179070
                                                         0.162492       0.122714
                          1       4    4pz              10.389228      -0.565392
                                                         3.849621      -0.038231
                                                         1.388401      -0.382373
                                                         0.496955       0.179070
                                                         0.162492       0.122714

                          1       5    4dx2             10.389228       1.867377
                                                         3.849621       0.670994
                                                         1.388401       1.353441
                                                         0.496955       0.273538
                                                         0.162492       0.006620
                          1       5    4dxy             10.389228       3.234392
                                                         3.849621       1.162195
                                                         1.388401       2.344229
                                                         0.496955       0.473781
                                                         0.162492       0.011466
                          1       5    4dxz             10.389228       3.234392
                                                         3.849621       1.162195
                                                         1.388401       2.344229
                                                         0.496955       0.473781
                                                         0.162492       0.011466
                          1       5    4dy2             10.389228       1.867377
                                                         3.849621       0.670994
                                                         1.388401       1.353441
                                                         0.496955       0.273538
                                                         0.162492       0.006620
                          1       5    4dyz             10.389228       3.234392
                                                         3.849621       1.162195
                                                         1.388401       2.344229
                                                         0.496955       0.473781
                                                         0.162492       0.011466
                          1       5    4dz2             10.389228       1.867377
                                                         3.849621       0.670994
                                                         1.388401       1.353441
                                                         0.496955       0.273538
                                                         0.162492       0.006620

       Atomic covalent radius [Angstrom]:                                  0.730

       Atomic van der Waals radius [Angstrom]:                             1.520

     GTH Potential information for                                    GTH-PBE-q6

       Description:                       Goedecker-Teter-Hutter pseudopotential
                                           Goedecker et al., PRB 54, 1703 (1996)
                                          Hartwigsen et al., PRB 58, 3641 (1998)
                                                      Krack, TCA 114, 145 (2005)

       Gaussian exponent of the core charge distribution:               8.360253
       Electronic configuration (s p d ...):                               2   4

       Parameters of the local part of the GTH pseudopotential:

                          rloc        C1          C2          C3          C4
                        0.244554  -16.667215    2.487311

       Parameters of the non-local part of the GTH pseudopotential:

                   l      r(l)      h(i,j,l)

                   0    0.220956   18.337458
                   1    0.211332

  2. Atomic kind: H                                     Number of atoms:     460

     Orbital Basis Set                                        DZVP-MOLOPT-SR-GTH

       Number of orbital shell sets:                                           1
       Number of orbital shells:                                               3
       Number of primitive Cartesian functions:                                5
       Number of Cartesian basis functions:                                    5
       Number of spherical basis functions:                                    5
       Norm type:                                                              2

       Normalised Cartesian orbitals:

                        Set   Shell   Orbital            Exponent    Coefficient

                          1       1    2s               10.068468      -0.133023
                                                         2.680223      -0.177618
                                                         0.791502      -0.258419
                                                         0.239116      -0.107525
                                                         0.082193      -0.014019

                          1       2    3s               10.068468       0.344673
                                                         2.680223       1.819821
                                                         0.791502      -0.999069
                                                         0.239116       0.017430
                                                         0.082193       0.082660

                          1       3    3px              10.068468       0.155326
                                                         2.680223       0.367157
                                                         0.791502       0.311480
                                                         0.239116       0.080105
                                                         0.082193       0.033440
                          1       3    3py              10.068468       0.155326
                                                         2.680223       0.367157
                                                         0.791502       0.311480
                                                         0.239116       0.080105
                                                         0.082193       0.033440
                          1       3    3pz              10.068468       0.155326
                                                         2.680223       0.367157
                                                         0.791502       0.311480
                                                         0.239116       0.080105
                                                         0.082193       0.033440

       Atomic covalent radius [Angstrom]:                                  0.320

       Atomic van der Waals radius [Angstrom]:                             1.090

     GTH Potential information for                                    GTH-PBE-q1

       Description:                       Goedecker-Teter-Hutter pseudopotential
                                           Goedecker et al., PRB 54, 1703 (1996)
                                          Hartwigsen et al., PRB 58, 3641 (1998)
                                                      Krack, TCA 114, 145 (2005)

       Gaussian exponent of the core charge distribution:              12.500000
       Electronic configuration (s p d ...):                                   1

       Parameters of the local part of the GTH pseudopotential:

                          rloc        C1          C2          C3          C4
                        0.200000   -4.178900    0.724463

  3. Atomic kind: Pt                                    Number of atoms:     216

     Orbital Basis Set                      DZVP-A5-Q10-323-MOL-T1-DERIVED_SET-1

       Number of orbital shell sets:                                           1
       Number of orbital shells:                                               6
       Number of primitive Cartesian functions:                                5
       Number of Cartesian basis functions:                                   23
       Number of spherical basis functions:                                   20
       Norm type:                                                              2

       Normalised Cartesian orbitals:

                        Set   Shell   Orbital            Exponent    Coefficient

                          1       1    2s                2.521825       0.177473
                                                         1.453920      -0.063399
                                                         0.614053      -0.407089
                                                         0.232656       0.262254
                                                         0.074788       0.047371

                          1       2    3s                2.521825      -0.049056
                                                         1.453920       0.044904
                                                         0.614053      -0.009756
                                                         0.232656      -0.144709
                                                         0.074788       0.144085

                          1       3    3px               2.521825      -0.317572
                                                         1.453920       0.534826
                                                         0.614053      -0.489458
                                                         0.232656       0.245631
                                                         0.074788       0.018221
                          1       3    3py               2.521825      -0.317572
                                                         1.453920       0.534826
                                                         0.614053      -0.489458
                                                         0.232656       0.245631
                                                         0.074788       0.018221
                          1       3    3pz               2.521825      -0.317572
                                                         1.453920       0.534826
                                                         0.614053      -0.489458
                                                         0.232656       0.245631
                                                         0.074788       0.018221

                          1       4    4dx2              2.521825       3.008522
                                                         1.453920      -1.224251
                                                         0.614053       0.225691
                                                         0.232656       0.125144
                                                         0.074788      -0.015348
                          1       4    4dxy              2.521825       5.210912
                                                         1.453920      -2.120465
                                                         0.614053       0.390909
                                                         0.232656       0.216756
                                                         0.074788      -0.026584
                          1       4    4dxz              2.521825       5.210912
                                                         1.453920      -2.120465
                                                         0.614053       0.390909
                                                         0.232656       0.216756
                                                         0.074788      -0.026584
                          1       4    4dy2              2.521825       3.008522
                                                         1.453920      -1.224251
                                                         0.614053       0.225691
                                                         0.232656       0.125144
                                                         0.074788      -0.015348
                          1       4    4dyz              2.521825       5.210912
                                                         1.453920      -2.120465
                                                         0.614053       0.390909
                                                         0.232656       0.216756
                                                         0.074788      -0.026584
                          1       4    4dz2              2.521825       3.008522
                                                         1.453920      -1.224251
                                                         0.614053       0.225691
                                                         0.232656       0.125144
                                                         0.074788      -0.015348

                          1       5    5dx2              2.521825       0.698026
                                                         1.453920      -1.511486
                                                         0.614053      -0.335394
                                                         0.232656      -0.025564
                                                         0.074788      -0.002699
                          1       5    5dxy              2.521825       1.209017
                                                         1.453920      -2.617970
                                                         0.614053      -0.580920
                                                         0.232656      -0.044277
                                                         0.074788      -0.004674
                          1       5    5dxz              2.521825       1.209017
                                                         1.453920      -2.617970
                                                         0.614053      -0.580920
                                                         0.232656      -0.044277
                                                         0.074788      -0.004674
                          1       5    5dy2              2.521825       0.698026
                                                         1.453920      -1.511486
                                                         0.614053      -0.335394
                                                         0.232656      -0.025564
                                                         0.074788      -0.002699
                          1       5    5dyz              2.521825       1.209017
                                                         1.453920      -2.617970
                                                         0.614053      -0.580920
                                                         0.232656      -0.044277
                                                         0.074788      -0.004674
                          1       5    5dz2              2.521825       0.698026
                                                         1.453920      -1.511486
                                                         0.614053      -0.335394
                                                         0.232656      -0.025564
                                                         0.074788      -0.002699

                          1       6    6dx2              2.521825       0.831079
                                                         1.453920      -0.709226
                                                         0.614053      -0.137351
                                                         0.232656       0.068642
                                                         0.074788       0.011745
                          1       6    6dxy              2.521825       1.439472
                                                         1.453920      -1.228415
                                                         0.614053      -0.237899
                                                         0.232656       0.118891
                                                         0.074788       0.020343
                          1       6    6dxz              2.521825       1.439472
                                                         1.453920      -1.228415
                                                         0.614053      -0.237899
                                                         0.232656       0.118891
                                                         0.074788       0.020343
                          1       6    6dy2              2.521825       0.831079
                                                         1.453920      -0.709226
                                                         0.614053      -0.137351
                                                         0.232656       0.068642
                                                         0.074788       0.011745
                          1       6    6dyz              2.521825       1.439472
                                                         1.453920      -1.228415
                                                         0.614053      -0.237899
                                                         0.232656       0.118891
                                                         0.074788       0.020343
                          1       6    6dz2              2.521825       0.831079
                                                         1.453920      -0.709226
                                                         0.614053      -0.137351
                                                         0.232656       0.068642
                                                         0.074788       0.011745

       Atomic covalent radius [Angstrom]:                                  1.300

       Atomic van der Waals radius [Angstrom]:                             1.750

     GTH Potential information for                                   GTH-PBE-q10

       Description:                       Goedecker-Teter-Hutter pseudopotential
                                           Goedecker et al., PRB 54, 1703 (1996)
                                          Hartwigsen et al., PRB 58, 3641 (1998)
                                                      Krack, TCA 114, 145 (2005)

       Gaussian exponent of the core charge distribution:               1.317676
       Electronic configuration (s p d ...):                           1   0   9

       Parameters of the local part of the GTH pseudopotential:

                          rloc        C1          C2          C3          C4
                        0.616000   11.313635

       Parameters of the non-local part of the GTH pseudopotential:

                   l      r(l)      h(i,j,l)

                   0    0.550904    4.733491   -1.784594
                                   -1.784594    2.303901
                   1    0.674138    2.534798   -1.778066
                                   -1.778066    2.103836
                   2    0.457392   -7.264011    2.558665
                                    2.558665   -2.901253


 MOLECULE KIND INFORMATION


 All atoms are their own molecule, skipping detailed information


 TOTAL NUMBERS AND MAXIMUM NUMBERS

  Total number of            - Atomic kinds:                                   3
                             - Atoms:                                        906
                             - Shell sets:                                   906
                             - Shells:                                      3826
                             - Primitive Cartesian functions:               4530
                             - Cartesian basis functions:                  10488
                             - Spherical basis functions:                   9610

  Maximum angular momentum of- Orbital basis functions:                        2
                             - Local part of the GTH pseudopotential:          2
                             - Non-local part of the GTH pseudopotential:      4


 MODULE QUICKSTEP:  ATOMIC COORDINATES IN angstrom

 Atom  Kind  Element       X           Y           Z          Z(eff)       Mass
    1   1 O    8       6.660000    3.030000   18.160002       6.0000     15.9994
    2   2 H    1       5.740000    3.210000   18.420002       1.0000      1.0079
    3   2 H    1       6.870000    3.240000   17.210001       1.0000      1.0079
    4   1 O    8      11.810001    2.790000    9.580001       6.0000     15.9994
    5   2 H    1      11.290001    2.000000    9.250001       1.0000      1.0079
    6   2 H    1      11.400002    2.900000   10.550001       1.0000      1.0079
    7   1 O    8      -3.520000    2.170000   16.210001       6.0000     15.9994
    8   2 H    1      -3.060000    2.850000   16.750000       1.0000      1.0079
    9   2 H    1      -3.450000    1.260000   16.610001       1.0000      1.0079
   10   1 O    8      -1.480000   -1.870000   22.450001       6.0000     15.9994
   11   2 H    1      -0.750000   -1.270000   22.150002       1.0000      1.0079
   12   2 H    1      -1.100000   -1.990000   23.330002       1.0000      1.0079
   13   1 O    8       8.270000   -5.880000   28.580000       6.0000     15.9994
   14   2 H    1       7.350000   -6.060000   28.840000       1.0000      1.0079
   15   2 H    1       8.650001   -6.780000   28.400002       1.0000      1.0079
   16   1 O    8      -1.420000   26.410000    8.240001       6.0000     15.9994
   17   2 H    1      -1.810000   25.560001    8.640000       1.0000      1.0079
   18   2 H    1      -0.670000   26.790001    8.860001       1.0000      1.0079
   19   1 O    8      -2.390000   30.880001   19.530001       6.0000     15.9994
   20   2 H    1      -1.420000   30.580002   19.500000       1.0000      1.0079
   21   2 H    1      -2.920000   30.260002   19.090000       1.0000      1.0079
   22   1 O    8       1.210000   20.250000    9.500000       6.0000     15.9994
   23   2 H    1       0.640000   19.510000    9.160001       1.0000      1.0079
   24   2 H    1       9.030001    6.370000    9.120001       1.0000      1.0079
   25   1 O    8      -8.020000  -14.410001   22.640001       6.0000     15.9994
   26   2 H    1      -8.050001  -14.170000   21.660002       1.0000      1.0079
   27   2 H    1      -8.570001  -13.770000   23.200001       1.0000      1.0079
   28   1 O    8      11.130000   12.890000   23.210001       6.0000     15.9994
   29   2 H    1      11.900001   13.250000   23.870001       1.0000      1.0079
   30   2 H    1      11.420001   11.980001   23.180000       1.0000      1.0079
   31   1 O    8       6.240000   10.720000   17.680000       6.0000     15.9994
   32   2 H    1       6.140000    9.750000   17.650002       1.0000      1.0079
   33   2 H    1       6.090000   10.890001   18.690001       1.0000      1.0079
   34   1 O    8      -1.590000   -4.000000   28.210001       6.0000     15.9994
   35   2 H    1      -1.990000   -4.910000   28.170002       1.0000      1.0079
   36   2 H    1      -0.970000   -4.010000   27.360001       1.0000      1.0079
   37   1 O    8      -7.790000  -21.680002   30.340002       6.0000     15.9994
   38   2 H    1      -7.900000  -20.700001   30.330002       1.0000      1.0079
   39   2 H    1      -7.240000  -21.990002   29.540003       1.0000      1.0079
   40   1 O    8      21.170002   19.540001   12.850000       6.0000     15.9994
   41   2 H    1      21.660002   20.280001   12.370001       1.0000      1.0079
   42   2 H    1      21.880001   18.860001   12.920000       1.0000      1.0079
   43   1 O    8      11.120001   -4.340000   31.160002       6.0000     15.9994
   44   2 H    1      11.390000   -5.110001   31.880001       1.0000      1.0079
   45   2 H    1      11.620001   -4.450000   30.300003       1.0000      1.0079
   46   1 O    8     -13.240002    3.510000   28.190002       6.0000     15.9994
   47   2 H    1     -13.120001    2.610000   28.549999       1.0000      1.0079
   48   2 H    1     -12.490001    3.940000   28.630001       1.0000      1.0079
   49   1 O    8      -7.930000   24.950001   11.150000       6.0000     15.9994
   50   2 H    1      -7.820001   24.330002   11.890000       1.0000      1.0079
   51   2 H    1      -8.240001   24.380001   10.390000       1.0000      1.0079
   52   1 O    8       3.950000   12.090001   17.010000       6.0000     15.9994
   53   2 H    1       3.550000   11.620001   16.200001       1.0000      1.0079
   54   2 H    1       4.760000   11.570001   17.220001       1.0000      1.0079
   55   1 O    8      -0.470000  -10.930000   29.010000       6.0000     15.9994
   56   2 H    1      -1.460000  -10.780001   29.290001       1.0000      1.0079
   57   2 H    1      -0.610000  -11.590000   28.330002       1.0000      1.0079
   58   1 O    8      17.230000    2.160000   26.310001       6.0000     15.9994
   59   2 H    1      16.590000    1.940000   26.970001       1.0000      1.0079
   60   2 H    1      16.650002    2.220000   25.490000       1.0000      1.0079
   61   1 O    8     -18.060001   28.570002   26.130001       6.0000     15.9994
   62   2 H    1     -18.960001   28.710001   25.720001       1.0000      1.0079
   63   2 H    1      -1.140000   29.340002   26.700001       1.0000      1.0079
   64   1 O    8      14.550000   -6.310000   13.650000       6.0000     15.9994
   65   2 H    1      14.740001   -5.580000   13.010001       1.0000      1.0079
   66   2 H    1      32.050003   -6.280000   14.410001       1.0000      1.0079
   67   1 O    8      17.500002   -0.140000    8.250000       6.0000     15.9994
   68   2 H    1       8.180000   14.520000    8.790001       1.0000      1.0079
   69   2 H    1      17.850000    0.780000    8.280001       1.0000      1.0079
   70   1 O    8     -12.010001   19.060001   31.970003       6.0000     15.9994
   71   2 H    1     -11.000000   18.970001   32.170002       1.0000      1.0079
   72   2 H    1     -12.210001   18.650002   31.090002       1.0000      1.0079
   73   1 O    8       4.930000    4.530000   23.030003       6.0000     15.9994
   74   2 H    1       4.870000    4.580000   24.040001       1.0000      1.0079
   75   2 H    1       4.180000    5.110001   22.760000       1.0000      1.0079
   76   1 O    8       1.230000    5.980001   31.490002       6.0000     15.9994
   77   2 H    1       2.130000    5.580000   31.510002       1.0000      1.0079
   78   2 H    1       0.630000    5.320000   31.910002       1.0000      1.0079
   79   1 O    8      -8.770000  -20.490000   15.520000       6.0000     15.9994
   80   2 H    1      -8.030001  -20.700001   14.910001       1.0000      1.0079
   81   2 H    1      -8.810000  -19.490002   15.580001       1.0000      1.0079
   82   1 O    8       4.480000    2.080000    8.020000       6.0000     15.9994
   83   2 H    1       4.940000    2.890000    8.280001       1.0000      1.0079
   84   2 H    1       3.460000    2.260000    8.320000       1.0000      1.0079
   85   1 O    8       1.100000   19.260002   15.750000       6.0000     15.9994
   86   2 H    1       0.830000   19.880001   16.500000       1.0000      1.0079
   87   2 H    1       1.730000   19.990002   15.410002       1.0000      1.0079
   88   1 O    8      14.450001   -4.880000    9.480001       6.0000     15.9994
   89   2 H    1      -2.330000   -4.720000   10.450001       1.0000      1.0079
   90   2 H    1      15.130001   -5.610001    9.230001       1.0000      1.0079
   91   1 O    8       6.300001    1.870000   24.830000       6.0000     15.9994
   92   2 H    1       6.820001    2.650000   24.330002       1.0000      1.0079
   93   2 H    1       5.320000    2.090000   24.990002       1.0000      1.0079
   94   1 O    8       7.910000   14.190001   16.450001       6.0000     15.9994
   95   2 H    1       8.530001   14.490002   17.100000       1.0000      1.0079
   96   2 H    1       8.200001   14.580001   15.630001       1.0000      1.0079
   97   1 O    8      -8.060000  -17.440001   12.490001       6.0000     15.9994
   98   2 H    1      -8.080000  -16.570000   12.950001       1.0000      1.0079
   99   2 H    1      -7.240000  -17.950001   12.860001       1.0000      1.0079
  100   1 O    8      -0.990000    2.410000   24.070000       6.0000     15.9994
  101   2 H    1      -1.910000    2.050000   24.200001       1.0000      1.0079
  102   2 H    1      -1.140000    3.340000   23.780001       1.0000      1.0079
  103   1 O    8      17.800001    8.040000   22.510002       6.0000     15.9994
  104   2 H    1      18.590000    8.220000   21.940001       1.0000      1.0079
  105   2 H    1       0.300000    7.740001   21.820002       1.0000      1.0079
  106   1 O    8       3.400000    9.680000    8.360001       6.0000     15.9994
  107   2 H    1       4.300000    9.700001    8.800000       1.0000      1.0079
  108   2 H    1       3.050000    8.800000    8.650001       1.0000      1.0079
  109   1 O    8      22.390001   14.500000   13.680000       6.0000     15.9994
  110   2 H    1      23.350000   14.670001   13.390001       1.0000      1.0079
  111   2 H    1      22.250002   13.470001   13.630000       1.0000      1.0079
  112   1 O    8      -8.360001    9.840000   25.930002       6.0000     15.9994
  113   2 H    1      -8.370000   10.670000   25.320000       1.0000      1.0079
  114   2 H    1      -7.390000    9.590000   26.180000       1.0000      1.0079
  115   1 O    8      12.290001   17.760002   18.840000       6.0000     15.9994
  116   2 H    1      12.030001   18.460001   19.530001       1.0000      1.0079
  117   2 H    1      12.340001   16.940001   19.370001       1.0000      1.0079
  118   1 O    8     -13.310001    8.430000   14.430000       6.0000     15.9994
  119   2 H    1     -13.340001    7.720000   15.130001       1.0000      1.0079
  120   2 H    1     -12.360001    8.540000   14.170000       1.0000      1.0079
  121   1 O    8      13.140000   12.910000   18.560001       6.0000     15.9994
  122   2 H    1      13.820001   13.580000   18.240002       1.0000      1.0079
  123   2 H    1      12.710000   13.290001   19.380001       1.0000      1.0079
  124   1 O    8     -13.380001   11.700001   22.730000       6.0000     15.9994
  125   2 H    1     -22.540001   25.750000   22.920000       1.0000      1.0079
  126   2 H    1     -12.640000   11.110001   22.760000       1.0000      1.0079
  127   1 O    8      18.410000   -6.570000   13.740001       6.0000     15.9994
  128   2 H    1      19.200001   -6.920000   14.300001       1.0000      1.0079
  129   2 H    1      10.280000    8.830000   13.230000       1.0000      1.0079
  130   1 O    8       0.280000    0.310000   31.840002       6.0000     15.9994
  131   2 H    1      -0.580000    0.740000   31.900002       1.0000      1.0079
  132   2 H    1       0.840000    1.010000   32.290001       1.0000      1.0079
  133   1 O    8      -4.370000   18.540001   15.870001       6.0000     15.9994
  134   2 H    1      -3.530000   18.090002   16.090000       1.0000      1.0079
  135   2 H    1      -4.430000   18.350000   14.900002       1.0000      1.0079
  136   1 O    8     -21.860001    6.570000   20.220001       6.0000     15.9994
  137   2 H    1     -21.080000    6.260000   19.690001       1.0000      1.0079
  138   2 H    1     -21.830002    5.900001   20.920000       1.0000      1.0079
  139   1 O    8      -5.220000    6.440001   14.990001       6.0000     15.9994
  140   2 H    1      -4.770000    5.980001   14.220000       1.0000      1.0079
  141   2 H    1      -4.420000    6.810000   15.550001       1.0000      1.0079
  142   1 O    8       6.740000   14.870001    9.940001       6.0000     15.9994
  143   2 H    1       6.530001   15.710001    9.480001       1.0000      1.0079
  144   2 H    1       5.940001   14.310001    9.700001       1.0000      1.0079
  145   1 O    8     -11.550001   29.139999   14.600000       6.0000     15.9994
  146   2 H    1       4.950000   29.500000   13.730000       1.0000      1.0079
  147   2 H    1     -10.620001   29.550001   14.560001       1.0000      1.0079
  148   1 O    8     -14.640001   14.640001   30.550001       6.0000     15.9994
  149   2 H    1     -15.080000   13.840000   30.920002       1.0000      1.0079
  150   2 H    1     -15.050001   14.880000   29.670002       1.0000      1.0079
  151   1 O    8       2.240000   17.150000   17.030001       6.0000     15.9994
  152   2 H    1       3.180000   17.040001   16.860001       1.0000      1.0079
  153   2 H    1       2.150000   18.040001   16.550001       1.0000      1.0079
  154   1 O    8       4.100000   -4.480000   28.390003       6.0000     15.9994
  155   2 H    1       3.540000   -3.760000   28.900002       1.0000      1.0079
  156   2 H    1       4.510000   -5.110001   29.020002       1.0000      1.0079
  157   1 O    8       0.710000   -4.800000   19.560001       6.0000     15.9994
  158   2 H    1       0.120000   -4.840000   20.270002       1.0000      1.0079
  159   2 H    1       0.370000   -5.540000   18.920000       1.0000      1.0079
  160   1 O    8       3.220000   -1.590000    8.800000       6.0000     15.9994
  161   2 H    1       2.840000   -1.170000    8.030001       1.0000      1.0079
  162   2 H    1       2.400000   -1.860000    9.330000       1.0000      1.0079
  163   1 O    8      36.110001   -8.600000   23.680000       6.0000     15.9994
  164   2 H    1      35.440002   -8.850000   24.320002       1.0000      1.0079
  165   2 H    1      36.520000   -7.680000   23.970001       1.0000      1.0079
  166   1 O    8      -0.450000   15.240001   14.980001       6.0000     15.9994
  167   2 H    1       0.480000   15.060000   15.370001       1.0000      1.0079
  168   2 H    1      -0.300000   14.960001   13.990001       1.0000      1.0079
  169   1 O    8     -30.300003    9.550000   24.910002       6.0000     15.9994
  170   2 H    1     -12.870001    9.160001   24.209999       1.0000      1.0079
  171   2 H    1     -14.220000    9.940001   24.440001       1.0000      1.0079
  172   1 O    8       6.750000   -4.050000   16.480001       6.0000     15.9994
  173   2 H    1       6.090000   -3.640000   15.900001       1.0000      1.0079
  174   2 H    1       6.180000   -4.390000   17.290001       1.0000      1.0079
  175   1 O    8       3.450000   12.370001   19.680000       6.0000     15.9994
  176   2 H    1       4.130000   11.710000   19.980001       1.0000      1.0079
  177   2 H    1       3.360000   12.180000   18.740002       1.0000      1.0079
  178   1 O    8       6.940000   19.670002   23.160002       6.0000     15.9994
  179   2 H    1       6.600000   20.250000   23.930000       1.0000      1.0079
  180   2 H    1       6.050000   19.440001   22.730000       1.0000      1.0079
  181   1 O    8      17.790001   -0.300000   29.450001       6.0000     15.9994
  182   2 H    1      18.430000    0.320000   29.150002       1.0000      1.0079
  183   2 H    1      17.570002   -0.180000   30.460003       1.0000      1.0079
  184   1 O    8       8.650001   10.290001   30.530003       6.0000     15.9994
  185   2 H    1       8.140000   10.110001   31.360001       1.0000      1.0079
  186   2 H    1       7.930000   10.390000   29.910002       1.0000      1.0079
  187   1 O    8       5.630000   37.020000   18.250000       6.0000     15.9994
  188   2 H    1       5.390000   36.830002   19.200001       1.0000      1.0079
  189   2 H    1       6.650000   36.799999   18.350000       1.0000      1.0079
  190   1 O    8       6.020000   13.020000   29.520000       6.0000     15.9994
  191   2 H    1       5.380001   12.340001   29.210003       1.0000      1.0079
  192   2 H    1       6.900001   12.570001   29.280003       1.0000      1.0079
  193   1 O    8       5.990000    6.000000   12.410001       6.0000     15.9994
  194   2 H    1       5.990000    6.910000   12.900001       1.0000      1.0079
  195   2 H    1       6.970000    5.800000   12.260000       1.0000      1.0079
  196   1 O    8     -19.170000    5.460000   28.050001       6.0000     15.9994
  197   2 H    1     -18.430000    5.600000   27.390001       1.0000      1.0079
  198   2 H    1     -18.680000    4.740000   28.640001       1.0000      1.0079
  199   1 O    8      -3.270000   21.310001   20.900002       6.0000     15.9994
  200   2 H    1      -4.140000   20.940001   20.650002       1.0000      1.0079
  201   2 H    1      -2.810000   20.610001   21.360001       1.0000      1.0079
  202   1 O    8      10.470000   17.210001    8.790001       6.0000     15.9994
  203   2 H    1      10.080000   18.120001    8.710001       1.0000      1.0079
  204   2 H    1      10.360001   17.050001    9.780001       1.0000      1.0079
  205   1 O    8      22.790001  -11.880001    9.260000       6.0000     15.9994
  206   2 H    1      14.470000    2.880000    8.280001       1.0000      1.0079
  207   2 H    1      21.809999  -12.020000    9.370001       1.0000      1.0079
  208   1 O    8       5.690000  -21.040001   27.580002       6.0000     15.9994
  209   2 H    1       4.670000  -20.810001   27.560001       1.0000      1.0079
  210   2 H    1       5.940001  -21.639999   26.770000       1.0000      1.0079
  211   1 O    8      10.010000   -7.780001   28.780001       6.0000     15.9994
  212   2 H    1       9.920000   -7.900000   29.740002       1.0000      1.0079
  213   2 H    1       9.740001   -8.650001   28.370001       1.0000      1.0079
  214   1 O    8      10.770000   -0.760000   11.760000       6.0000     15.9994
  215   2 H    1      11.020000   -0.110000   12.440001       1.0000      1.0079
  216   2 H    1      11.000000   -0.360000   10.910001       1.0000      1.0079
  217   1 O    8     -17.040001   -1.860000   33.470001       6.0000     15.9994
  218   2 H    1     -18.050001   -2.020000   33.340000       1.0000      1.0079
  219   2 H    1     -16.850000   -0.930000   33.000000       1.0000      1.0079
  220   1 O    8      25.190001    5.350000   26.750002       6.0000     15.9994
  221   2 H    1      25.240002    4.560000   26.020002       1.0000      1.0079
  222   2 H    1      24.870003    4.770000   27.600002       1.0000      1.0079
  223   1 O    8       1.340000    4.460000   22.600000       6.0000     15.9994
  224   2 H    1      18.320002    4.980001   23.460003       1.0000      1.0079
  225   2 H    1       0.400000    4.610000   22.400000       1.0000      1.0079
  226   1 O    8       0.960000   34.380001    8.700001       6.0000     15.9994
  227   2 H    1       0.530000   34.630001    7.900000       1.0000      1.0079
  228   2 H    1      17.080000   34.260002    9.400001       1.0000      1.0079
  229   1 O    8       1.820000    9.290000   17.150000       6.0000     15.9994
  230   2 H    1       1.590000   10.240001   17.210001       1.0000      1.0079
  231   2 H    1       2.570000    9.150001   16.620001       1.0000      1.0079
  232   1 O    8       3.660000    4.870000   32.170002       6.0000     15.9994
  233   2 H    1       3.210000    3.980000   32.070004       1.0000      1.0079
  234   2 H    1       3.410000    5.130000   33.070000       1.0000      1.0079
  235   1 O    8      -6.040000   16.750000   22.760000       6.0000     15.9994
  236   2 H    1      -6.410000   15.880001   22.700003       1.0000      1.0079
  237   2 H    1      -6.750000   17.440001   22.780001       1.0000      1.0079
  238   1 O    8       2.670000   -6.290000   32.440002       6.0000     15.9994
  239   2 H    1      -4.900000    7.860000   32.410004       1.0000      1.0079
  240   2 H    1       2.520000   -6.270000   33.430000       1.0000      1.0079
  241   1 O    8      12.610001   -3.170000   28.460003       6.0000     15.9994
  242   2 H    1      11.710000   -2.870000   28.360003       1.0000      1.0079
  243   2 H    1      12.540001   -4.080000   28.110001       1.0000      1.0079
  244   1 O    8       1.850000   -5.670000    8.650001       6.0000     15.9994
  245   2 H    1       2.190000   -6.410000    8.050001       1.0000      1.0079
  246   2 H    1       2.370000   -5.890000    9.450001       1.0000      1.0079
  247   1 O    8      13.570002    7.450001   32.450001       6.0000     15.9994
  248   2 H    1      13.890000    7.450001   33.450005       1.0000      1.0079
  249   2 H    1      13.400001    6.450000   32.350002       1.0000      1.0079
  250   1 O    8      23.810001   10.000000   32.730003       6.0000     15.9994
  251   2 H    1      23.010002   10.640000   32.750000       1.0000      1.0079
  252   2 H    1      24.130001   10.070001   33.680004       1.0000      1.0079
  253   1 O    8      -3.380000   10.950001    8.820001       6.0000     15.9994
  254   2 H    1      -3.440000   10.280000    8.170000       1.0000      1.0079
  255   2 H    1      -4.160000   11.540001    8.630000       1.0000      1.0079
  256   1 O    8      20.610001   -4.300000   23.220001       6.0000     15.9994
  257   2 H    1      20.420000   -4.720000   22.380001       1.0000      1.0079
  258   2 H    1      21.610001   -4.270000   23.220001       1.0000      1.0079
  259   1 O    8     -15.530001   20.300003   18.500002       6.0000     15.9994
  260   2 H    1     -14.710001   20.510002   19.030001       1.0000      1.0079
  261   2 H    1     -16.170002   19.760000   19.120001       1.0000      1.0079
  262   1 O    8       1.780000   11.820001    8.100000       6.0000     15.9994
  263   2 H    1       2.420000   11.000000    8.170000       1.0000      1.0079
  264   2 H    1       0.930000   11.390000    8.400001       1.0000      1.0079
  265   1 O    8       4.000000   -4.080000   15.410002       6.0000     15.9994
  266   2 H    1       4.520000   -3.520000   14.730001       1.0000      1.0079
  267   2 H    1      12.020000   11.160001   16.040001       1.0000      1.0079
  268   1 O    8       8.110001   -1.690000   30.030003       6.0000     15.9994
  269   2 H    1       8.060000   -2.700000   30.170002       1.0000      1.0079
  270   2 H    1       8.280001   -1.340000   30.910000       1.0000      1.0079
  271   1 O    8       3.770000    6.620001   16.610001       6.0000     15.9994
  272   2 H    1       4.490000    6.980000   17.140001       1.0000      1.0079
  273   2 H    1       3.980000    5.660000   16.320002       1.0000      1.0079
  274   1 O    8      -8.290001   12.620001   18.420002       6.0000     15.9994
  275   2 H    1      -9.030001   12.400000   17.850000       1.0000      1.0079
  276   2 H    1      -8.110001   11.680001   18.840000       1.0000      1.0079
  277   1 O    8       2.420000    4.480000   13.070001       6.0000     15.9994
  278   2 H    1     -14.400001    5.390000   12.680000       1.0000      1.0079
  279   2 H    1       1.600000    4.490000   13.600000       1.0000      1.0079
  280   1 O    8      31.170002   -7.020000   32.700001       6.0000     15.9994
  281   2 H    1      31.420002   -7.020000   31.730001       1.0000      1.0079
  282   2 H    1      31.720001   -6.280000   33.049999       1.0000      1.0079
  283   1 O    8      14.310001   -3.540000   20.480001       6.0000     15.9994
  284   2 H    1       6.400001   11.620001   21.170002       1.0000      1.0079
  285   2 H    1      14.320001   -4.410000   20.950001       1.0000      1.0079
  286   1 O    8     -31.280003   26.390001   29.600000       6.0000     15.9994
  287   2 H    1     -15.270000   26.049999   29.940002       1.0000      1.0079
  288   2 H    1     -31.540001   27.310001   29.400002       1.0000      1.0079
  289   1 O    8      -5.260000    3.030000   25.210001       6.0000     15.9994
  290   2 H    1      -5.070000    3.430000   26.140001       1.0000      1.0079
  291   2 H    1      -4.800000    3.640000   24.640003       1.0000      1.0079
  292   1 O    8       8.250000    4.060000   19.810001       6.0000     15.9994
  293   2 H    1       7.650001    3.700000   19.100000       1.0000      1.0079
  294   2 H    1       8.860001    3.290000   19.930002       1.0000      1.0079
  295   1 O    8       1.650000   12.360001   28.150002       6.0000     15.9994
  296   2 H    1       1.230000   11.610001   27.560001       1.0000      1.0079
  297   2 H    1       0.890000   12.590000   28.750002       1.0000      1.0079
  298   1 O    8       1.440000   15.480001   27.990000       6.0000     15.9994
  299   2 H    1       2.140000   15.300001   27.280003       1.0000      1.0079
  300   2 H    1       0.620000   15.380001   27.460001       1.0000      1.0079
  301   1 O    8      -0.490000    7.700000   19.580000       6.0000     15.9994
  302   2 H    1       0.370000    7.720000   19.150002       1.0000      1.0079
  303   2 H    1      -0.560000    8.580000   20.060001       1.0000      1.0079
  304   1 O    8       8.600000    5.400000   12.250000       6.0000     15.9994
  305   2 H    1       9.110001    6.180000   12.490001       1.0000      1.0079
  306   2 H    1       8.920000    5.260000   11.270000       1.0000      1.0079
  307   1 O    8     -14.100000    7.010000    9.540001       6.0000     15.9994
  308   2 H    1     -14.180001    6.830000   10.510000       1.0000      1.0079
  309   2 H    1     -14.680000    6.290000    9.130000       1.0000      1.0079
  310   1 O    8      -9.360001   24.710003   20.680000       6.0000     15.9994
  311   2 H    1     -10.060000   24.940002   20.000000       1.0000      1.0079
  312   2 H    1      -8.640000   25.389999   20.610001       1.0000      1.0079
  313   1 O    8      14.290000   13.780001   28.530003       6.0000     15.9994
  314   2 H    1      15.170001   13.810000   29.010000       1.0000      1.0079
  315   2 H    1      14.250001   12.980001   27.970001       1.0000      1.0079
  316   1 O    8       8.640000   -2.810000   14.210001       6.0000     15.9994
  317   2 H    1       9.150001   -2.530000   13.430000       1.0000      1.0079
  318   2 H    1       7.700000   -2.570000   13.950001       1.0000      1.0079
  319   1 O    8       6.440001   10.420000   12.140001       6.0000     15.9994
  320   2 H    1       5.770000   11.140001   12.220000       1.0000      1.0079
  321   2 H    1       7.300000   10.960001   12.250000       1.0000      1.0079
  322   1 O    8      14.780001    7.940001   24.380001       6.0000     15.9994
  323   2 H    1      14.730001    8.780001   23.900002       1.0000      1.0079
  324   2 H    1      13.850001    7.760000   24.730000       1.0000      1.0079
  325   1 O    8      12.420001   15.140000   32.360001       6.0000     15.9994
  326   2 H    1      12.630000   14.280001   32.800003       1.0000      1.0079
  327   2 H    1      13.150001   15.800000   32.710003       1.0000      1.0079
  328   1 O    8      -2.440000   17.880001   12.870001       6.0000     15.9994
  329   2 H    1      -2.000000   18.000000   13.740001       1.0000      1.0079
  330   2 H    1      -2.690000   18.810001   12.570001       1.0000      1.0079
  331   1 O    8     -17.010000   18.580000   24.420002       6.0000     15.9994
  332   2 H    1     -16.500000   17.810001   24.100000       1.0000      1.0079
  333   2 H    1     -17.300001   19.080002   23.650000       1.0000      1.0079
  334   1 O    8      -9.210001    8.200001   24.030001       6.0000     15.9994
  335   2 H    1      -8.660001    7.890000   23.290001       1.0000      1.0079
  336   2 H    1      -8.730000    8.810000   24.680002       1.0000      1.0079
  337   1 O    8       2.030000   20.960003   28.110001       6.0000     15.9994
  338   2 H    1      11.220001    5.740000   27.990000       1.0000      1.0079
  339   2 H    1     -15.580001   20.630001   27.560001       1.0000      1.0079
  340   1 O    8      17.950001   26.310001    9.850000       6.0000     15.9994
  341   2 H    1      17.780001   26.220001   10.790000       1.0000      1.0079
  342   2 H    1      18.090002   25.450001    9.390000       1.0000      1.0079
  343   1 O    8      10.990001   10.350000   13.030001       6.0000     15.9994
  344   2 H    1      11.480000   10.300001   13.920001       1.0000      1.0079
  345   2 H    1      11.690001   10.280000   12.280001       1.0000      1.0079
  346   1 O    8       3.790000  -11.770000   29.940002       6.0000     15.9994
  347   2 H    1       3.750000  -12.580000   29.460001       1.0000      1.0079
  348   2 H    1       2.940000  -11.440001   30.190001       1.0000      1.0079
  349   1 O    8      24.160002    5.100000   22.090000       6.0000     15.9994
  350   2 H    1      23.260002    4.690000   22.330000       1.0000      1.0079
  351   2 H    1      24.310001    4.640000   21.200001       1.0000      1.0079
  352   1 O    8      16.940001    0.380000   19.810001       6.0000     15.9994
  353   2 H    1      16.960001   -0.460000   19.340002       1.0000      1.0079
  354   2 H    1      17.640001    0.970000   19.450001       1.0000      1.0079
  355   1 O    8       6.990001   -1.210000   23.760002       6.0000     15.9994
  356   2 H    1       7.640000   -0.880000   24.340000       1.0000      1.0079
  357   2 H    1       7.110000   -0.710000   22.860001       1.0000      1.0079
  358   1 O    8       8.490001   18.590000   16.270000       6.0000     15.9994
  359   2 H    1       8.940001   17.770000   16.540001       1.0000      1.0079
  360   2 H    1       7.660000   18.700001   16.770000       1.0000      1.0079
  361   1 O    8       3.220000    8.790001   27.460001       6.0000     15.9994
  362   2 H    1       2.610000    8.050001   27.630003       1.0000      1.0079
  363   2 H    1       3.190000    8.920000   26.470001       1.0000      1.0079
  364   1 O    8       2.870000   10.970000   14.810000       6.0000     15.9994
  365   2 H    1       3.010000    9.980000   14.720001       1.0000      1.0079
  366   2 H    1       1.900000   11.110001   14.860001       1.0000      1.0079
  367   1 O    8      -0.210000   14.530001   12.280001       6.0000     15.9994
  368   2 H    1       0.790000   14.270000   12.110001       1.0000      1.0079
  369   2 H    1      -0.360000   15.490000   12.140001       1.0000      1.0079
  370   1 O    8     -10.240001   -4.060000   32.830002       6.0000     15.9994
  371   2 H    1      -9.740001   -4.290000   32.020000       1.0000      1.0079
  372   2 H    1     -11.060000   -4.590000   32.810001       1.0000      1.0079
  373   1 O    8      -2.010000   10.670000   23.340000       6.0000     15.9994
  374   2 H    1      -1.590000   10.570001   22.480001       1.0000      1.0079
  375   2 H    1      -1.850000   11.590000   23.630001       1.0000      1.0079
  376   1 O    8      -4.460000    9.500000   11.060000       6.0000     15.9994
  377   2 H    1      -4.090000   10.170001   10.410000       1.0000      1.0079
  378   2 H    1      -3.920000    8.680000   11.260000       1.0000      1.0079
  379   1 O    8       5.680000   -2.880000   26.810001       6.0000     15.9994
  380   2 H    1       5.030000   -3.610000   27.190001       1.0000      1.0079
  381   2 H    1       5.320000   -2.390000   26.090002       1.0000      1.0079
  382   1 O    8      -6.920000    1.930000   23.450001       6.0000     15.9994
  383   2 H    1      -7.060000    0.960000   23.780001       1.0000      1.0079
  384   2 H    1      -6.230001    2.260000   24.040001       1.0000      1.0079
  385   1 O    8       2.350000   17.710001   11.970000       6.0000     15.9994
  386   2 H    1       2.530000   16.930000   12.620001       1.0000      1.0079
  387   2 H    1       2.900000   18.420002   12.440001       1.0000      1.0079
  388   1 O    8      -2.530000    7.210000    9.030001       6.0000     15.9994
  389   2 H    1      -1.690000    7.660000    8.870000       1.0000      1.0079
  390   2 H    1      -3.150000    7.140000    8.310000       1.0000      1.0079
  391   1 O    8      -0.190000   17.900002    8.800000       6.0000     15.9994
  392   2 H    1      -0.150000   17.440001    9.690001       1.0000      1.0079
  393   2 H    1       0.260000   17.410000    8.110001       1.0000      1.0079
  394   1 O    8       7.120000   15.710001   28.410000       6.0000     15.9994
  395   2 H    1      16.200001    0.480000   28.880003       1.0000      1.0079
  396   2 H    1       6.250000   15.290001   28.510000       1.0000      1.0079
  397   1 O    8       2.700000    8.830000   19.720001       6.0000     15.9994
  398   2 H    1       2.830000    9.760000   20.060001       1.0000      1.0079
  399   2 H    1       2.370000    8.940001   18.810001       1.0000      1.0079
  400   1 O    8       4.500000   15.220001   28.360003       6.0000     15.9994
  401   2 H    1       4.270000   14.880000   27.470001       1.0000      1.0079
  402   2 H    1       4.630000   14.450001   28.890001       1.0000      1.0079
  403   1 O    8      29.720001   26.560001   12.860001       6.0000     15.9994
  404   2 H    1      29.160002   26.900002   12.130001       1.0000      1.0079
  405   2 H    1      29.110003   26.100002   13.580000       1.0000      1.0079
  406   1 O    8       3.650000   -3.780000   32.280003       6.0000     15.9994
  407   2 H    1       3.200000   -4.700000   32.120003       1.0000      1.0079
  408   2 H    1       3.670000   -3.430000   31.400002       1.0000      1.0079
  409   1 O    8      18.980001    2.400000   11.310000       6.0000     15.9994
  410   2 H    1      19.030001    3.310000   11.790000       1.0000      1.0079
  411   2 H    1      19.630001    1.800000   11.720000       1.0000      1.0079
  412   1 O    8     -13.490001   -5.320000   20.510002       6.0000     15.9994
  413   2 H    1     -13.460001   -6.340000   20.590000       1.0000      1.0079
  414   2 H    1     -14.420000   -5.220000   20.240002       1.0000      1.0079
  415   1 O    8     -12.150001   13.280001    9.260000       6.0000     15.9994
  416   2 H    1     -11.730001   12.680000    8.600000       1.0000      1.0079
  417   2 H    1     -12.960000   13.650000    8.900001       1.0000      1.0079
  418   1 O    8      26.760002   45.720001   17.810001       6.0000     15.9994
  419   2 H    1      27.400002   46.420002   18.090002       1.0000      1.0079
  420   2 H    1      27.370003   45.250000   17.250000       1.0000      1.0079
  421   1 O    8      22.760000    4.090000    8.350000       6.0000     15.9994
  422   2 H    1      23.720001    3.950000    8.570001       1.0000      1.0079
  423   2 H    1      22.410002    4.750000    9.020000       1.0000      1.0079
  424   1 O    8       1.130000   20.360001   32.540001       6.0000     15.9994
  425   2 H    1       1.420000   21.150000   32.110001       1.0000      1.0079
  426   2 H    1      10.200001    5.740000   33.380001       1.0000      1.0079
  427   1 O    8       5.630000    4.680000   29.700001       6.0000     15.9994
  428   2 H    1       5.390000    4.300000   30.580002       1.0000      1.0079
  429   2 H    1       5.910000    5.600000   30.080002       1.0000      1.0079
  430   1 O    8      -5.680000   12.440001   16.910002       6.0000     15.9994
  431   2 H    1      -5.200000   12.680000   17.680000       1.0000      1.0079
  432   2 H    1      -6.560000   12.260000   17.250000       1.0000      1.0079
  433   1 O    8      -3.360000   -2.450000   25.360001       6.0000     15.9994
  434   2 H    1      -3.110000   -2.720000   26.290001       1.0000      1.0079
  435   2 H    1      -3.780000   -3.310000   25.050001       1.0000      1.0079
  436   1 O    8      -0.360000   26.090002   15.390000       6.0000     15.9994
  437   2 H    1      -0.490000   27.050001   15.700001       1.0000      1.0079
  438   2 H    1       8.340000   11.440001   14.480001       1.0000      1.0079
  439   1 O    8      -7.030000   -8.680000   18.000000       6.0000     15.9994
  440   2 H    1      -6.380000   -8.100000   17.520000       1.0000      1.0079
  441   2 H    1      -7.360001   -9.370001   17.400002       1.0000      1.0079
  442   1 O    8       5.380001   -0.480000   10.170001       6.0000     15.9994
  443   2 H    1       4.680000   -0.950000    9.620001       1.0000      1.0079
  444   2 H    1       5.860000   -1.280000   10.580001       1.0000      1.0079
  445   1 O    8     -17.720001   15.110001    8.890000       6.0000     15.9994
  446   2 H    1     -18.620001   14.940001    9.320001       1.0000      1.0079
  447   2 H    1     -17.920000   15.470000    7.970000       1.0000      1.0079
  448   1 O    8      -3.090000    7.260000   11.870001       6.0000     15.9994
  449   2 H    1      -2.840000    7.090001   10.890001       1.0000      1.0079
  450   2 H    1      14.690001    7.320001   12.320002       1.0000      1.0079
  451   1 O    8       5.440001    2.700000   32.480003       6.0000     15.9994
  452   2 H    1       6.460000    2.560000   32.389999       1.0000      1.0079
  453   2 H    1       5.330000    3.600000   32.800003       1.0000      1.0079
  454   1 O    8      12.390001   15.730000   29.380001       6.0000     15.9994
  455   2 H    1      12.300000   15.530001   30.350000       1.0000      1.0079
  456   2 H    1      12.880001   14.910001   29.100000       1.0000      1.0079
  457   1 O    8       0.160000   -2.310000   24.630001       6.0000     15.9994
  458   2 H    1      -0.140000   -1.530000   25.210001       1.0000      1.0079
  459   2 H    1       0.990000   -2.010000   24.220001       1.0000      1.0079
  460   1 O    8      13.020000   16.070002   21.360001       6.0000     15.9994
  461   2 H    1      12.520000   16.650002   21.960001       1.0000      1.0079
  462   2 H    1      -3.040000   15.900001   21.940001       1.0000      1.0079
  463   1 O    8     -12.320002  -14.970001   22.650002       6.0000     15.9994
  464   2 H    1     -13.030001  -15.640001   22.590000       1.0000      1.0079
  465   2 H    1     -11.490001  -15.550001   22.390001       1.0000      1.0079
  466   1 O    8       7.440000   -2.530000    8.180000       6.0000     15.9994
  467   2 H    1       7.380000   -1.560000    8.490001       1.0000      1.0079
  468   2 H    1       6.560000   -2.890000    8.510000       1.0000      1.0079
  469   1 O    8      -8.570001   -4.230000   30.640001       6.0000     15.9994
  470   2 H    1      -7.650001   -4.250000   31.090002       1.0000      1.0079
  471   2 H    1      -8.280001   -4.870000   29.910002       1.0000      1.0079
  472   1 O    8      10.040001    3.720000   30.930002       6.0000     15.9994
  473   2 H    1       9.400001    3.830000   30.180000       1.0000      1.0079
  474   2 H    1       9.870001    4.530000   31.530001       1.0000      1.0079
  475   1 O    8      14.300001   11.970000   13.960000       6.0000     15.9994
  476   2 H    1      14.430000   12.020000   12.970000       1.0000      1.0079
  477   2 H    1      14.080001   12.970000   14.160000       1.0000      1.0079
  478   1 O    8      -9.950001   26.740000   11.490001       6.0000     15.9994
  479   2 H    1      -9.210001   26.030003   11.390000       1.0000      1.0079
  480   2 H    1      -9.480001   27.570002   11.570001       1.0000      1.0079
  481   1 O    8      14.320001    7.770000   29.400002       6.0000     15.9994
  482   2 H    1      14.300001    6.920000   28.970001       1.0000      1.0079
  483   2 H    1      14.470000    7.690001   30.350000       1.0000      1.0079
  484   1 O    8      -6.790000   31.160002   19.510000       6.0000     15.9994
  485   2 H    1      -5.980001   31.110001   20.070002       1.0000      1.0079
  486   2 H    1      -6.530001   31.460001   18.560001       1.0000      1.0079
  487   1 O    8      19.590000   34.340004   20.240002       6.0000     15.9994
  488   2 H    1      19.010002   34.670002   19.470001       1.0000      1.0079
  489   2 H    1      18.990000   34.160000   20.930002       1.0000      1.0079
  490   1 O    8      12.870001   15.810001   12.190001       6.0000     15.9994
  491   2 H    1      13.430000   16.570000   12.490001       1.0000      1.0079
  492   2 H    1      13.220000   15.420000   11.400002       1.0000      1.0079
  493   1 O    8       0.270000    8.140000   33.160004       6.0000     15.9994
  494   2 H    1      -9.080001   22.790001   32.920002       1.0000      1.0079
  495   2 H    1       0.550000    7.330000   32.680000       1.0000      1.0079
  496   1 O    8       9.610001   -0.730000   24.150002       6.0000     15.9994
  497   2 H    1       1.120000   13.060001   23.650000       1.0000      1.0079
  498   2 H    1       1.780000   13.800001   24.860001       1.0000      1.0079
  499   1 O    8      20.990002   19.280001   22.200001       6.0000     15.9994
  500   2 H    1      20.260000   19.530001   22.790001       1.0000      1.0079
  501   2 H    1      20.640001   18.390001   21.900002       1.0000      1.0079
  502   1 O    8      16.440001    6.660000   26.290001       6.0000     15.9994
  503   2 H    1      17.290001    6.440001   25.940001       1.0000      1.0079
  504   2 H    1      16.070002    7.390000   25.710001       1.0000      1.0079
  505   1 O    8      22.050001    6.100000    9.940001       6.0000     15.9994
[...]
    899      3      Pt          0.00413927    -0.00293644     0.00311454
    900      3      Pt         -0.00865977    -0.00066428     0.00711208
    901      3      Pt         -0.01014659     0.00603065    -0.01066203
    902      3      Pt          0.01261669    -0.02912274    -0.01131776
    903      3      Pt         -0.00276792     0.01627620    -0.00433574
    904      3      Pt         -0.00447861     0.00152256    -0.00817334
    905      3      Pt         -0.00574817     0.00107546    -0.01857095
    906      3      Pt         -0.00139372    -0.00092209     0.00819943
 SUM OF ATOMIC FORCES           0.00974954     0.03408778    -0.00324652     0.03560296

 STRESS| Analytical stress tensor [GPa]
 STRESS|                        x                   y                   z
 STRESS|      x       -2.56658164801E+00  -1.22455315840E-01   6.09628962671E-02
 STRESS|      y       -1.22455315840E-01  -2.68429390743E+00   1.70021085502E-01
 STRESS|      z        6.09628962671E-02   1.70021085502E-01  -5.33009132276E-01
 STRESS| 1/3 Trace                                            -1.92796156257E+00
 STRESS| Determinant                                          -3.58252195750E+00

 STRESS| Eigenvectors and eigenvalues of the analytical stress tensor [GPa]
 STRESS|                        1                   2                   3
 STRESS| Eigenvalues  -2.77521059703E+00  -2.49030307413E+00  -5.18371016558E-01
 STRESS|      x           0.521615103916      0.852812404884      0.025073600503
 STRESS|      y           0.849552496920     -0.521879914991      0.076823884988
 STRESS|      z          -0.078601770608      0.018771158838      0.996729354064

 -------------------------------------------------------------------------------
 -                                                                             -
 -                                DBCSR STATISTICS                             -
 -                                                                             -
 -------------------------------------------------------------------------------
 COUNTER                                    TOTAL       BLAS       SMM       ACC
 flops     5 x     5 x   288          87164928000       0.0%    100.0%      0.0%
 flops     5 x     5 x   292          88375552000       0.0%    100.0%      0.0%
 flops    20 x    13 x   288          98314444800       0.0%    100.0%      0.0%
 flops     5 x    13 x   288          98374348800       0.0%    100.0%      0.0%
 flops    13 x     5 x   288          98500147200       0.0%    100.0%      0.0%
 flops    13 x    20 x   288          98745753600       0.0%    100.0%      0.0%
 flops    20 x    13 x   292          99679923200       0.0%    100.0%      0.0%
 flops     5 x    13 x   292          99740659200       0.0%    100.0%      0.0%
 flops    13 x     5 x   292          99868204800       0.0%    100.0%      0.0%
 flops    13 x    20 x   292         100117222400       0.0%    100.0%      0.0%
 flops    13 x    13 x   288         104586393600       0.0%    100.0%      0.0%
 flops    13 x    13 x   292         106038982400       0.0%    100.0%      0.0%
 flops    20 x     5 x   288         107587584000       0.0%    100.0%      0.0%
 flops     5 x    20 x   288         107864064000       0.0%    100.0%      0.0%
 flops    20 x     5 x   292         109081856000       0.0%    100.0%      0.0%
 flops     5 x    20 x   292         109362176000       0.0%    100.0%      0.0%
 flops    20 x    20 x   288         431972352000       0.0%    100.0%      0.0%
 flops    20 x    20 x   292         437971968000       0.0%    100.0%      0.0%
 flops     5 x     5 x   320         581099520000       0.0%    100.0%      0.0%
 flops    20 x    13 x   320         655429632000       0.0%    100.0%      0.0%
 flops     5 x    13 x   320         655828992000       0.0%    100.0%      0.0%
 flops    13 x     5 x   320         656667648000       0.0%    100.0%      0.0%
 flops    13 x    20 x   320         658305024000       0.0%    100.0%      0.0%
 flops    13 x    13 x   320         697242624000       0.0%    100.0%      0.0%
 flops    20 x     5 x   320         717250560000       0.0%    100.0%      0.0%
 flops     5 x    20 x   320         719093760000       0.0%    100.0%      0.0%
 flops    20 x    20 x   320        2879815680000       0.0%    100.0%      0.0%
 flops inhomo. stacks                           0       0.0%      0.0%      0.0%
 flops total                        10.704080E+12       0.0%    100.0%      0.0%
 flops max/rank                    175.618800E+09       0.0%    100.0%      0.0%
 matmuls inhomo. stacks                         0       0.0%      0.0%      0.0%
 matmuls total                          154536960       0.0%    100.0%      0.0%
 number of processed stacks                409600       0.0%    100.0%      0.0%
 average stack size                                     0.0     377.3       0.0
 marketing flops                    30.462137E+12
 -------------------------------------------------------------------------------
 # multiplications                             80
 max memory usage/rank               1.851531E+09
 # max total images/rank                        1
 # max 3D layers                                1
 # MPI messages exchanged                   71680
 MPI messages size (bytes):
  total size                       215.263904E+09
  min size                           2.762496E+06
  max size                           3.077120E+06
  average size                       3.003124E+06
 MPI breakdown and total messages size (bytes):
             size <=      128                   0                        0
       128 < size <=     8192                   0                        0
      8192 < size <=    32768                   0                        0
     32768 < size <=   131072                   0                        0
    131072 < size <=  4194304               71680             215264000000
   4194304 < size <= 16777216                   0                        0
  16777216 < size                               0                        0
 -------------------------------------------------------------------------------
 -                                                                             -
 -                      DBCSR MESSAGE PASSING PERFORMANCE                      -
 -                                                                             -
 -------------------------------------------------------------------------------
 ROUTINE             CALLS      AVE VOLUME [Bytes]
 MP_Bcast               28                     12.
 MP_Allreduce          634                     10.
 MP_Alltoall          2240                2002991.
 MP_ISend             2560                1329597.
 MP_IRecv             2560                1310413.
 -------------------------------------------------------------------------------

 -------------------------------------------------------------------------------
 -                                                                             -
 -                                DBM STATISTICS                               -
 -                                                                             -
 -------------------------------------------------------------------------------
    M  x    N  x    K                                          COUNT     PERCENT
 -------------------------------------------------------------------------------

 -------------------------------------------------------------------------------
 -                                                                             -
 -                                GRID STATISTICS                              -
 -                                                                             -
 -------------------------------------------------------------------------------
 LP    KERNEL             BACKEND                              COUNT     PERCENT
 3     collocate general  REF                               55408320      18.83%
 3     integrate general  REF                               54773700      18.61%
 2     collocate general  REF                               52551680      17.86%
 2     integrate general  REF                               51894784      17.63%
 4     collocate general  REF                               39075120      13.28%
 4     integrate general  REF                               38586681      13.11%
 6     integrate general  REF                                 692604       0.24%
 5     integrate general  REF                                 656896       0.22%
 7     integrate general  REF                                 488439       0.17%
 0     collocate general  REF                                 115968       0.04%
 0     integrate general  REF                                  57984       0.02%
 -------------------------------------------------------------------------------

 MEMORY| Estimated peak process memory [MiB]                                2089

 -------------------------------------------------------------------------------
 ----                             MULTIGRID INFO                            ----
 -------------------------------------------------------------------------------
 count for grid        1:         731188          cutoff [a.u.]          200.00
 count for grid        2:         807118          cutoff [a.u.]           66.67
 count for grid        3:         741371          cutoff [a.u.]           22.22
 count for grid        4:         831458          cutoff [a.u.]            7.41
 total gridlevel count  :        3111135

 -------------------------------------------------------------------------------
 -                                                                             -
 -                         MESSAGE PASSING PERFORMANCE                         -
 -                                                                             -
 -------------------------------------------------------------------------------

 ROUTINE             CALLS      AVE VOLUME [Bytes]
 MP_Group                4
 MP_Bcast              260                2270636.
 MP_Allreduce         1354                   1850.
 MP_Sync                83
 MP_Alltoall          1776               14975718.
 MP_SendRecv           252                  13830.
 MP_ISendRecv        20160                 113680.
 MP_Wait             45108
 MP_ISend            23328                 340076.
 MP_IRecv            23328                 340076.
 MP_Recv               308                2460160.
 MP_Write_All            3                1540656.
 -------------------------------------------------------------------------------


 -------------------------------------------------------------------------------
 -                                                                             -
 -                           R E F E R E N C E S                               -
 -                                                                             -
 -------------------------------------------------------------------------------
 
 CP2K version 2022.1, the CP2K developers group (2022).
 CP2K is freely available from https://www.cp2k.org/ .

 Kuehne,Thomas D.; Iannuzzi,Marcella; Del Ben,Mauro;
 Rybkin,Vladimir V.; Seewald,Patrick; Stein,Frederick; Laino,Teodoro;
 Khaliullin,Rustam Z.; Schuett,Ole; Schiffmann,Florian; Golze,Dorothea;
 Wilhelm,Jan; Chulkov,Sergey; Bani-Hashemian,Mohammad Hossein;
 Weber,Valery; Borstnik,Urban; Taillefumier,Mathieu;
 Jakobovits,Alice Shoshana; Lazzaro,Alfio; Pabst,Hans; Mueller,Tiziano;
 Schade,Robert; Guidon,Manuel; Andermatt,Samuel; Holmberg,Nico;
 Schenter,Gregory K.; Hehn,Anna; Bussy,Augustin; Belleflamme,Fabian;
 Tabacchi,Gloria; Gloess,Andreas; Lass,Michael; Bethune,Iain;
 Mundy,Christopher J.; Plessl,Christian; Watkins,Matt;
 VandeVondele,Joost; Krack,Matthias; Hutter,Juerg. 
 The Journal of Chemical Physics, 152 (19), (2020). 
 CP2K: An electronic structure and molecular dynamics software package -
 Quickstep: Efficient and accurate electronic structure calculations.
 https://doi.org/10.1063/5.0007045

 Goerigk, Lars; Hansen, Andreas; Bauer, Christoph; Ehrlich, Stephan;
 Najibi, Asim; Grimme, Stefan. , 19 (48), (2017). 
 A look at the density functional theory zoo with the advanced GMTKN55 database
 for general main group thermochemistry, kinetics and noncovalent interactions.
 https://doi.org/10.1039/C7CP04913G

 Schuett, Ole; Messmer, Peter; Hutter, Juerg; VandeVondele, Joost. 
 Electronic Structure Calculations on Graphics Processing Units, John
 Wiley & Sons, Ltd, 173-190 (2016). 
 GPU-Accelerated Sparse Matrix-Matrix Multiplication for
 Linear Scaling Density Functional Theory.
 https://doi.org/10.1002/9781118670712.ch8

 Heinecke, A; Henry, G; Hutchinson, M; Pabst, H. 
 Proceedings of Intl. Supercomputing Conference, 981-991 (2016). 
 LIBXSMM: Accelerating Small Matrix Multiplications
 by Runtime Code Generation.
 https://doi.org/10.1109/SC.2016.83

 Borstnik, U; VandeVondele, J; Weber, V; Hutter, J. 
 PARALLEL COMPUTING, 40 (5-6), 47-58 (2014). 
 Sparse matrix multiplication: The distributed block-compressed sparse
 row library.
 https://doi.org/10.1016/j.parco.2014.03.012

 Hutter, J; Iannuzzi, M; Schiffmann, F; VandeVondele, J. 
 WIREs Comput Mol Sci., 4 (1), 15-25 (2014). 
 CP2K: atomistic simulations of condensed matter systems.
 https://doi.org/10.1002/wcms.1159

 Marek, A; Blum, V; Johanni, R; Havu, V; Lang, B; Auckenthaler, T;
 Heinecke, A; Bungartz, H; Lederer, H. 
 Journal of Physics: Condensed Matter, 26 (21), (2014). 
 The ELPA library: scalable parallel eigenvalue solutions for
 electronic structure
 theory and computational science.
 https://doi.org/10.1088/0953-8984/26/21/213201

 Grimme, S; Ehrlich, S; Goerigk, L. 
 JOURNAL OF COMPUTATIONAL CHEMISTRY, 32, 1456 (2011). 
 Effect of the damping function in dispersion corrected density functional theory.
 https://doi.org/10.1002/jcc.21759

 Grimme, S; Antony, J; Ehrlich, S; Krieg, H. 
 JOURNAL OF CHEMICAL PHYSICS, 132 (15), 154104 (2010). 
 A consistent and accurate ab initio parametrization of density
 functional dispersion correction (DFT-D) for the 94 elements H-Pu.
 https://doi.org/10.1063/1.3382344

 VandeVondele, J; Hutter, J. 
 JOURNAL OF CHEMICAL PHYSICS, 127 (11), 114105 (2007). 
 Gaussian basis sets for accurate calculations on molecular systems in
 gas and condensed phases.
 https://doi.org/10.1063/1.2770708

 Krack, M. 
 THEORETICAL CHEMISTRY ACCOUNTS, 114 (1-3), 145-152 (2005). 
 Pseudopotentials for H to Kr optimized for gradient-corrected
 exchange-correlation functionals.
 https://doi.org/10.1007/s00214-005-0655-y

 VandeVondele, J; Krack, M; Mohamed, F; Parrinello, M; Chassaing, T;
 Hutter, J. COMPUTER PHYSICS COMMUNICATIONS, 167 (2), 103-128 (2005). 
 QUICKSTEP: Fast and accurate density functional calculations using a
 mixed Gaussian and plane waves approach.
 https://doi.org/10.1016/j.cpc.2004.12.014

 Frigo, M; Johnson, SG. 
 PROCEEDINGS OF THE IEEE, 93 (2), 216-231 (2005). 
 The design and implementation of FFTW3.
 https://doi.org/10.1109/JPROC.2004.840301

 Hartwigsen, C; Goedecker, S; Hutter, J. 
 PHYSICAL REVIEW B, 58 (7), 3641-3662 (1998). 
 Relativistic separable dual-space Gaussian pseudopotentials from H to Rn.
 https://doi.org/10.1103/PhysRevB.58.3641

 Lippert, G; Hutter, J; Parrinello, M. 
 MOLECULAR PHYSICS, 92 (3), 477-487 (1997). 
 A hybrid Gaussian and plane wave density functional scheme.
 https://doi.org/10.1080/002689797170220

 Perdew, JP; Burke, K; Ernzerhof, M. 
 PHYSICAL REVIEW LETTERS, 77 (18), 3865-3868 (1996). 
 Generalized gradient approximation made simple.
 https://doi.org/10.1103/PhysRevLett.77.3865

 Goedecker, S; Teter, M; Hutter, J. 
 PHYSICAL REVIEW B, 54 (3), 1703-1710 (1996). 
 Separable dual-space Gaussian pseudopotentials.
 https://doi.org/10.1103/PhysRevB.54.1703


 -------------------------------------------------------------------------------
 -                                                                             -
 -                                T I M I N G                                  -
 -                                                                             -
 -------------------------------------------------------------------------------
 SUBROUTINE                       CALLS  ASD         SELF TIME        TOTAL TIME
                                MAXIMUM       AVERAGE  MAXIMUM  AVERAGE  MAXIMUM
 CP2K                                 1  1.0    0.028    0.039  945.417  945.419
 qs_forces                            1  2.0    0.002    0.003  945.025  945.027
 qs_energies                          1  3.0    0.000    0.000  932.544  932.552
 scf_env_do_scf                       1  4.0    0.000    0.000  924.338  924.584
 scf_env_do_scf_inner_loop           79  5.0    0.004    0.012  924.338  924.584
 qs_scf_new_mos                      79  6.0    0.005    0.012  376.739  377.364
 eigensolver                         79  7.0    0.007    0.011  350.167  350.615
 rebuild_ks_matrix                   80  7.0    0.000    0.000  292.176  292.221
 qs_ks_build_kohn_sham_matrix        80  8.0    0.012    0.015  292.176  292.221
 qs_ks_update_qs_env                 79  6.0    0.001    0.001  284.226  284.272
 qs_rho_update_rho_low               80  6.0    0.001    0.001  249.182  249.213
 calculate_rho_elec                  80  7.0    0.187    0.224  249.181  249.212
 sum_up_and_integrate                80  9.0    0.336    0.414  245.208  245.263
 integrate_v_rspace                  80 10.0    0.003    0.003  244.872  244.970
 grid_collocate_task_list            80  8.0  219.390  225.122  219.390  225.122
 grid_integrate_task_list            80 11.0  213.774  218.898  213.774  218.898
 cp_fm_diag_elpa                     79  8.0    0.001    0.001  205.418  205.935
 cp_fm_diag_elpa_base                79  9.0  202.264  203.004  205.067  205.138
 cp_fm_triangular_multiply          237  8.0  141.828  143.576  141.828  143.576
 pw_transfer                       1600 10.9    0.113    0.133   44.138   44.930
 fft_wrap_pw1pw2                   1440 12.0    0.014    0.021   43.633   44.422
 rs_pw_transfer                     644 10.5    0.007    0.008   38.520   43.945
 fft_wrap_pw1pw2_200                960 13.3    3.942    4.278   42.021   42.802
 qs_vxc_create                       80  9.0    0.003    0.003   41.345   41.595
 xc_vxc_pw_create                    80 10.0    0.733    0.776   41.343   41.592
 fft3d_ps                          1440 14.0   15.977   18.334   32.167   33.061
 density_rs2pw                       80  8.0    0.005    0.006   27.311   32.640
 xc_pw_derive                       480 12.0    0.008    0.009   26.319   27.544
 xc_rho_set_and_dset_create          80 11.0    0.390    0.420   22.275   23.747
 potential_pw2rs                     80 11.0    0.030    0.036   23.181   23.254
 mp_waitany                       23328 12.4   16.381   21.994   16.381   21.994
 rs_pw_transfer_RS2PW_200            82 10.0    5.224    5.605   15.074   20.384
 calculate_dm_sparse                 79  7.0    0.024    0.030   19.340   20.067
 cp_dbcsr_plus_fm_fm_t_native        80  8.0    0.004    0.009   19.273   19.999
 -------------------------------------------------------------------------------

 The number of warnings for this run is : 1
 
 -------------------------------------------------------------------------------
  **** **** ******  **  PROGRAM ENDED AT                 2023-11-26 20:12:56.581
 ***** ** ***  *** **   PROGRAM RAN ON                                     cu054
 **    ****   ******    PROGRAM RAN BY                                     jxzhu
 ***** **    ** ** **   PROGRAM PROCESS ID                                  6553
  **** **  *******  **  PROGRAM STOPPED IN /public/home/jxzhu/tmp_calc/af2075565
                                           805657d94fa4669dad6f4b174b0a4fb/calc/
                                           000900.000/pbc
