 DBCSR| CPU Multiplication driver                                           XSMM
 DBCSR| Multrec recursion limit                                              512
 DBCSR| Multiplication stack size                                           1000
 DBCSR| Maximum elements for images                                    UNLIMITED
 DBCSR| Multiplicative factor virtual images                                   1
 DBCSR| Use multiplication densification                                       T
 DBCSR| Multiplication size stacks                                             3
 DBCSR| Use memory pool for CPU allocation                                     F
 DBCSR| Number of 3D layers                                               SINGLE
 DBCSR| Use MPI memory allocation                                              F
 DBCSR| Use RMA algorithm                                                      F
 DBCSR| Use Communication thread                                               T
 DBCSR| Communication thread load                                             87
 DBCSR| MPI: My node id                                                        0
 DBCSR| MPI: Number of nodes                                                 128
 DBCSR| OMP: Current number of threads                                         1
 DBCSR| OMP: Max number of threads                                             1
 DBCSR| Split modifier for TAS multiplication algorithm                  1.0E+00


  **** **** ******  **  PROGRAM STARTED AT               2023-12-03 09:11:35.360
 ***** ** ***  *** **   PROGRAM STARTED ON                                 cu001
 **    ****   ******    PROGRAM STARTED BY                                 jxzhu
 ***** **    ** ** **   PROGRAM PROCESS ID                                 22959
  **** **  *******  **  PROGRAM STARTED IN /public/home/jxzhu/tmp_calc/883906eaf
                                           f52014f8832c3a1255a4e4f7cc55149/calc/
                                           003200.000/search_lo.000001

 CP2K| version string:                                       CP2K version 2022.1
 CP2K| source code revision number:                                  git:2caeb6f
 CP2K| cp2kflags: omp libint fftw3 libxc elpa parallel mpi3 scalapack cosma xsmm
 CP2K|             plumed2 spglib mkl sirius libvori libbqb
 CP2K| is freely available from                            https://www.cp2k.org/
 CP2K| Program compiled at                           Mon Jul 3 17:37:06 CST 2023
 CP2K| Program compiled on                                                 mu003
 CP2K| Program compiled for                                                local
 CP2K| Data directory path                             /public/home/jxzhu/basis/
 CP2K| Input file name                                                 input.inp
 
 GLOBAL| Force Environment number                                              1
 GLOBAL| Basis set file name                                        BASIS_MOLOPT
 GLOBAL| Potential file name                                      GTH_POTENTIALS
 GLOBAL| MM Potential file name                                     MM_POTENTIAL
 GLOBAL| Coordinate file name                                          coord.xyz
 GLOBAL| Method name                                                        CP2K
 GLOBAL| Project name                                                       cp2k
 GLOBAL| Run type                                                   ENERGY_FORCE
 GLOBAL| FFT library                                                       FFTW3
 GLOBAL| Diagonalization library                                            ELPA
 GLOBAL| Minimum number of eigenvectors for ELPA usage                        16
 GLOBAL| Orthonormality check for eigenvectors                          DISABLED
 GLOBAL| Matrix multiplication library                                     COSMA
 GLOBAL| All-to-all communication in single precision                          F
 GLOBAL| FFTs using library dependent lengths                                  T
 GLOBAL| Grid backend                                                       AUTO
 GLOBAL| Global print level                                               MEDIUM
 GLOBAL| MPI I/O enabled                                                       T
 GLOBAL| Total number of message passing processes                           128
 GLOBAL| Number of threads for this process                                    1
 GLOBAL| This output is from process                                           0
 GLOBAL| Stack size for threads created by OpenMP (OMP_STACKSIZE)        default
 GLOBAL| CPU model name                 Intel(R) Xeon(R) Gold 6338 CPU @ 2.00GHz
 GLOBAL| CPUID                                                              1003

 MEMORY| system memory details [Kb]
 MEMORY|                        rank 0           min           max       average
 MEMORY| MemTotal            263619172     263619172     263619172     263619172
 MEMORY| MemFree             217805852     215508180     217807216     216657441
 MEMORY| Buffers                    20            20            36            28
 MEMORY| Cached                2123244        762856       2123244       1443050
 MEMORY| Slab                  1491576       1427980       1491576       1459778
 MEMORY| SReclaimable           245592        229656        245592        237624
 MEMORY| MemLikelyFree       220174708     216500728     220176072     218338143


 *** Fundamental physical constants (SI units) ***

 *** Literature: B. J. Mohr and B. N. Taylor,
 ***             CODATA recommended values of the fundamental physical
 ***             constants: 2006, Web Version 5.1
 ***             http://physics.nist.gov/constants

 Speed of light in vacuum [m/s]                             2.99792458000000E+08
 Magnetic constant or permeability of vacuum [N/A**2]       1.25663706143592E-06
 Electric constant or permittivity of vacuum [F/m]          8.85418781762039E-12
 Planck constant (h) [J*s]                                  6.62606896000000E-34
 Planck constant (h-bar) [J*s]                              1.05457162825177E-34
 Elementary charge [C]                                      1.60217648700000E-19
 Electron mass [kg]                                         9.10938215000000E-31
 Electron g factor [ ]                                     -2.00231930436220E+00
 Proton mass [kg]                                           1.67262163700000E-27
 Fine-structure constant                                    7.29735253760000E-03
 Rydberg constant [1/m]                                     1.09737315685270E+07
 Avogadro constant [1/mol]                                  6.02214179000000E+23
 Boltzmann constant [J/K]                                   1.38065040000000E-23
 Atomic mass unit [kg]                                      1.66053878200000E-27
 Bohr radius [m]                                            5.29177208590000E-11

 *** Conversion factors ***

 [u] -> [a.u.]                                              1.82288848426455E+03
 [Angstrom] -> [Bohr] = [a.u.]                              1.88972613288564E+00
 [a.u.] = [Bohr] -> [Angstrom]                              5.29177208590000E-01
 [a.u.] -> [s]                                              2.41888432650478E-17
 [a.u.] -> [fs]                                             2.41888432650478E-02
 [a.u.] -> [J]                                              4.35974393937059E-18
 [a.u.] -> [N]                                              8.23872205491840E-08
 [a.u.] -> [K]                                              3.15774647902944E+05
 [a.u.] -> [kJ/mol]                                         2.62549961709828E+03
 [a.u.] -> [kcal/mol]                                       6.27509468713739E+02
 [a.u.] -> [Pa]                                             2.94210107994716E+13
 [a.u.] -> [bar]                                            2.94210107994716E+08
 [a.u.] -> [atm]                                            2.90362800883016E+08
 [a.u.] -> [eV]                                             2.72113838565563E+01
 [a.u.] -> [Hz]                                             6.57968392072181E+15
 [a.u.] -> [1/cm] (wave numbers)                            2.19474631370540E+05
 [a.u./Bohr**2] -> [1/cm]                                   5.14048714338585E+03
 

 CELL_TOP| Volume [angstrom^3]:                                     17614.982639
 CELL_TOP| Vector a [angstrom    16.869     0.000     0.000   |a| =    16.869000
 CELL_TOP| Vector b [angstrom    -8.434    14.609     0.000   |b| =    16.869015
 CELL_TOP| Vector c [angstrom     0.000     0.000    71.478   |c| =    71.478000
 CELL_TOP| Angle (b,c), alpha [degree]:                                90.000000
 CELL_TOP| Angle (a,c), beta  [degree]:                                90.000000
 CELL_TOP| Angle (a,b), gamma [degree]:                               119.999970
 CELL_TOP| Numerically orthorhombic:                                          NO
 
 GENERATE|  Preliminary Number of Bonds generated:                             0
 GENERATE|  Achieved consistency in connectivity generation.

 CELL| Volume [angstrom^3]:                                         17614.982639
 CELL| Vector a [angstrom]:      16.869     0.000     0.000   |a| =    16.869000
 CELL| Vector b [angstrom]:      -8.434    14.609     0.000   |b| =    16.869015
 CELL| Vector c [angstrom]:       0.000     0.000    71.478   |c| =    71.478000
 CELL| Angle (b,c), alpha [degree]:                                    90.000000
 CELL| Angle (a,c), beta  [degree]:                                    90.000000
 CELL| Angle (a,b), gamma [degree]:                                   119.999970
 CELL| Numerically orthorhombic:                                              NO

 CELL_REF| Volume [angstrom^3]:                                     17614.982639
 CELL_REF| Vector a [angstrom    16.869     0.000     0.000   |a| =    16.869000
 CELL_REF| Vector b [angstrom    -8.434    14.609     0.000   |b| =    16.869015
 CELL_REF| Vector c [angstrom     0.000     0.000    71.478   |c| =    71.478000
 CELL_REF| Angle (b,c), alpha [degree]:                                90.000000
 CELL_REF| Angle (a,c), beta  [degree]:                                90.000000
 CELL_REF| Angle (a,b), gamma [degree]:                               119.999970
 CELL_REF| Numerically orthorhombic:                                          NO

 *******************************************************************************
 *******************************************************************************
 **                                                                           **
 **     #####                         ##              ##                      **
 **    ##   ##            ##          ##              ##                      **
 **   ##     ##                       ##            ######                    **
 **   ##     ##  ##   ##  ##   #####  ##  ##   ####   ##    #####    #####    **
 **   ##     ##  ##   ##  ##  ##      ## ##   ##      ##   ##   ##  ##   ##   **
 **   ##  ## ##  ##   ##  ##  ##      ####     ###    ##   ######   ######    **
 **    ##  ###   ##   ##  ##  ##      ## ##      ##   ##   ##       ##        **
 **     #######   #####   ##   #####  ##  ##  ####    ##    #####   ##        **
 **           ##                                                    ##        **
 **                                                                           **
 **                                                ... make the atoms dance   **
 **                                                                           **
 **            Copyright (C) by CP2K developers group (2000-2022)             **
 **                      J. Chem. Phys. 152, 194103 (2020)                    **
 **                                                                           **
 *******************************************************************************

 DFT| Spin restricted Kohn-Sham (RKS) calculation                            RKS
 DFT| Multiplicity                                                             1
 DFT| Number of spin states                                                    1
 DFT| Charge                                                                   0
 DFT| Self-interaction correction (SIC)                                       NO
 DFT| Cutoffs: density                                              1.000000E-10
 DFT|          gradient                                             1.000000E-10
 DFT|          tau                                                  1.000000E-10
 DFT|          cutoff_smoothing_range                               0.000000E+00
 DFT| XC density smoothing                                                  NONE
 DFT| XC derivatives                                                          PW

 FUNCTIONAL| PBE:
 FUNCTIONAL| J.P.Perdew, K.Burke, M.Ernzerhof, Phys. Rev. Letter, vol. 77, n 18,
 FUNCTIONAL|  pp. 3865-3868, (1996){spin unpolarized}                           

 vdW POTENTIAL|                                                   Pair Potential
 vdW POTENTIAL|          DFT-D3 (Version 3.1)
 vdW POTENTIAL|          Potential Form: S. Grimme et al, JCP 132: 154104 (2010)
 vdW POTENTIAL|          Zero Damping
 vdW POTENTIAL|          Cutoff Radius [Bohr]:                             20.00
 vdW POTENTIAL|          s6 Scaling Factor:                               1.0000
 vdW POTENTIAL|          sr6 Scaling Factor:                              1.2170
 vdW POTENTIAL|          s8 Scaling Factor:                               0.7220
 vdW POTENTIAL|          Cutoff for CN calculation:                   0.1000E-05

 QS| Method:                                                                 GPW
 QS| Density plane wave grid type                        NON-SPHERICAL FULLSPACE
 QS| Number of grid levels:                                                    4
 QS| Density cutoff [a.u.]:                                                200.0
 QS| Multi grid cutoff [a.u.]: 1) grid level                               200.0
 QS|                           2) grid level                                66.7
 QS|                           3) grid level                                22.2
 QS|                           4) grid level                                 7.4
 QS| Grid level progression factor:                                          3.0
 QS| Relative density cutoff [a.u.]:                                        20.0
 QS| Interaction thresholds: eps_pgf_orb:                                3.2E-07
 QS|                         eps_filter_matrix:                          0.0E+00
 QS|                         eps_core_charge:                            1.0E-15
 QS|                         eps_rho_gspace:                             1.0E-13
 QS|                         eps_rho_rspace:                             1.0E-13
 QS|                         eps_gvg_rspace:                             3.2E-07
 QS|                         eps_ppl:                                    1.0E-02
 QS|                         eps_ppnl:                                   3.2E-09


 ATOMIC KIND INFORMATION

  1. Atomic kind: O                                     Number of atoms:     101

     Orbital Basis Set                                        DZVP-MOLOPT-SR-GTH

       Number of orbital shell sets:                                           1
       Number of orbital shells:                                               5
       Number of primitive Cartesian functions:                                5
       Number of Cartesian basis functions:                                   14
       Number of spherical basis functions:                                   13
       Norm type:                                                              2

       Normalised Cartesian orbitals:

                        Set   Shell   Orbital            Exponent    Coefficient

                          1       1    2s               10.389228       0.396646
                                                         3.849621       0.208811
                                                         1.388401      -0.301641
                                                         0.496955      -0.274061
                                                         0.162492      -0.033677

                          1       2    3s               10.389228       0.303673
                                                         3.849621       0.240943
                                                         1.388401      -0.313066
                                                         0.496955      -0.043055
                                                         0.162492       0.213991

                          1       3    3px              10.389228      -1.530415
                                                         3.849621      -1.371928
                                                         1.388401      -0.761951
                                                         0.496955      -0.253695
                                                         0.162492      -0.035541
                          1       3    3py              10.389228      -1.530415
                                                         3.849621      -1.371928
                                                         1.388401      -0.761951
                                                         0.496955      -0.253695
                                                         0.162492      -0.035541
                          1       3    3pz              10.389228      -1.530415
                                                         3.849621      -1.371928
                                                         1.388401      -0.761951
                                                         0.496955      -0.253695
                                                         0.162492      -0.035541

                          1       4    4px              10.389228      -0.565392
                                                         3.849621      -0.038231
                                                         1.388401      -0.382373
                                                         0.496955       0.179070
                                                         0.162492       0.122714
                          1       4    4py              10.389228      -0.565392
                                                         3.849621      -0.038231
                                                         1.388401      -0.382373
                                                         0.496955       0.179070
                                                         0.162492       0.122714
                          1       4    4pz              10.389228      -0.565392
                                                         3.849621      -0.038231
                                                         1.388401      -0.382373
                                                         0.496955       0.179070
                                                         0.162492       0.122714

                          1       5    4dx2             10.389228       1.867377
                                                         3.849621       0.670994
                                                         1.388401       1.353441
                                                         0.496955       0.273538
                                                         0.162492       0.006620
                          1       5    4dxy             10.389228       3.234392
                                                         3.849621       1.162195
                                                         1.388401       2.344229
                                                         0.496955       0.473781
                                                         0.162492       0.011466
                          1       5    4dxz             10.389228       3.234392
                                                         3.849621       1.162195
                                                         1.388401       2.344229
                                                         0.496955       0.473781
                                                         0.162492       0.011466
                          1       5    4dy2             10.389228       1.867377
                                                         3.849621       0.670994
                                                         1.388401       1.353441
                                                         0.496955       0.273538
                                                         0.162492       0.006620
                          1       5    4dyz             10.389228       3.234392
                                                         3.849621       1.162195
                                                         1.388401       2.344229
                                                         0.496955       0.473781
                                                         0.162492       0.011466
                          1       5    4dz2             10.389228       1.867377
                                                         3.849621       0.670994
                                                         1.388401       1.353441
                                                         0.496955       0.273538
                                                         0.162492       0.006620

       Atomic covalent radius [Angstrom]:                                  0.730

       Atomic van der Waals radius [Angstrom]:                             1.520

     GTH Potential information for                                    GTH-PBE-q6

       Description:                       Goedecker-Teter-Hutter pseudopotential
                                           Goedecker et al., PRB 54, 1703 (1996)
                                          Hartwigsen et al., PRB 58, 3641 (1998)
                                                      Krack, TCA 114, 145 (2005)

       Gaussian exponent of the core charge distribution:               8.360253
       Electronic configuration (s p d ...):                               2   4

       Parameters of the local part of the GTH pseudopotential:

                          rloc        C1          C2          C3          C4
                        0.244554  -16.667215    2.487311

       Parameters of the non-local part of the GTH pseudopotential:

                   l      r(l)      h(i,j,l)

                   0    0.220956   18.337458
                   1    0.211332

  2. Atomic kind: H                                     Number of atoms:     202

     Orbital Basis Set                                        DZVP-MOLOPT-SR-GTH

       Number of orbital shell sets:                                           1
       Number of orbital shells:                                               3
       Number of primitive Cartesian functions:                                5
       Number of Cartesian basis functions:                                    5
       Number of spherical basis functions:                                    5
       Norm type:                                                              2

       Normalised Cartesian orbitals:

                        Set   Shell   Orbital            Exponent    Coefficient

                          1       1    2s               10.068468      -0.133023
                                                         2.680223      -0.177618
                                                         0.791502      -0.258419
                                                         0.239116      -0.107525
                                                         0.082193      -0.014019

                          1       2    3s               10.068468       0.344673
                                                         2.680223       1.819821
                                                         0.791502      -0.999069
                                                         0.239116       0.017430
                                                         0.082193       0.082660

                          1       3    3px              10.068468       0.155326
                                                         2.680223       0.367157
                                                         0.791502       0.311480
                                                         0.239116       0.080105
                                                         0.082193       0.033440
                          1       3    3py              10.068468       0.155326
                                                         2.680223       0.367157
                                                         0.791502       0.311480
                                                         0.239116       0.080105
                                                         0.082193       0.033440
                          1       3    3pz              10.068468       0.155326
                                                         2.680223       0.367157
                                                         0.791502       0.311480
                                                         0.239116       0.080105
                                                         0.082193       0.033440

       Atomic covalent radius [Angstrom]:                                  0.320

       Atomic van der Waals radius [Angstrom]:                             1.090

     GTH Potential information for                                    GTH-PBE-q1

       Description:                       Goedecker-Teter-Hutter pseudopotential
                                           Goedecker et al., PRB 54, 1703 (1996)
                                          Hartwigsen et al., PRB 58, 3641 (1998)
                                                      Krack, TCA 114, 145 (2005)

       Gaussian exponent of the core charge distribution:              12.500000
       Electronic configuration (s p d ...):                                   1

       Parameters of the local part of the GTH pseudopotential:

                          rloc        C1          C2          C3          C4
                        0.200000   -4.178900    0.724463

  3. Atomic kind: Pt                                    Number of atoms:     216

     Orbital Basis Set                      DZVP-A5-Q10-323-MOL-T1-DERIVED_SET-1

       Number of orbital shell sets:                                           1
       Number of orbital shells:                                               6
       Number of primitive Cartesian functions:                                5
       Number of Cartesian basis functions:                                   23
       Number of spherical basis functions:                                   20
       Norm type:                                                              2

       Normalised Cartesian orbitals:

                        Set   Shell   Orbital            Exponent    Coefficient

                          1       1    2s                2.521825       0.177473
                                                         1.453920      -0.063399
                                                         0.614053      -0.407089
                                                         0.232656       0.262254
                                                         0.074788       0.047371

                          1       2    3s                2.521825      -0.049056
                                                         1.453920       0.044904
                                                         0.614053      -0.009756
                                                         0.232656      -0.144709
                                                         0.074788       0.144085

                          1       3    3px               2.521825      -0.317572
                                                         1.453920       0.534826
                                                         0.614053      -0.489458
                                                         0.232656       0.245631
                                                         0.074788       0.018221
                          1       3    3py               2.521825      -0.317572
                                                         1.453920       0.534826
                                                         0.614053      -0.489458
                                                         0.232656       0.245631
                                                         0.074788       0.018221
                          1       3    3pz               2.521825      -0.317572
                                                         1.453920       0.534826
                                                         0.614053      -0.489458
                                                         0.232656       0.245631
                                                         0.074788       0.018221

                          1       4    4dx2              2.521825       3.008522
                                                         1.453920      -1.224251
                                                         0.614053       0.225691
                                                         0.232656       0.125144
                                                         0.074788      -0.015348
                          1       4    4dxy              2.521825       5.210912
                                                         1.453920      -2.120465
                                                         0.614053       0.390909
                                                         0.232656       0.216756
                                                         0.074788      -0.026584
                          1       4    4dxz              2.521825       5.210912
                                                         1.453920      -2.120465
                                                         0.614053       0.390909
                                                         0.232656       0.216756
                                                         0.074788      -0.026584
                          1       4    4dy2              2.521825       3.008522
                                                         1.453920      -1.224251
                                                         0.614053       0.225691
                                                         0.232656       0.125144
                                                         0.074788      -0.015348
                          1       4    4dyz              2.521825       5.210912
                                                         1.453920      -2.120465
                                                         0.614053       0.390909
                                                         0.232656       0.216756
                                                         0.074788      -0.026584
                          1       4    4dz2              2.521825       3.008522
                                                         1.453920      -1.224251
                                                         0.614053       0.225691
                                                         0.232656       0.125144
                                                         0.074788      -0.015348

                          1       5    5dx2              2.521825       0.698026
                                                         1.453920      -1.511486
                                                         0.614053      -0.335394
                                                         0.232656      -0.025564
                                                         0.074788      -0.002699
                          1       5    5dxy              2.521825       1.209017
                                                         1.453920      -2.617970
                                                         0.614053      -0.580920
                                                         0.232656      -0.044277
                                                         0.074788      -0.004674
                          1       5    5dxz              2.521825       1.209017
                                                         1.453920      -2.617970
                                                         0.614053      -0.580920
                                                         0.232656      -0.044277
                                                         0.074788      -0.004674
                          1       5    5dy2              2.521825       0.698026
                                                         1.453920      -1.511486
                                                         0.614053      -0.335394
                                                         0.232656      -0.025564
                                                         0.074788      -0.002699
                          1       5    5dyz              2.521825       1.209017
                                                         1.453920      -2.617970
                                                         0.614053      -0.580920
                                                         0.232656      -0.044277
                                                         0.074788      -0.004674
                          1       5    5dz2              2.521825       0.698026
                                                         1.453920      -1.511486
                                                         0.614053      -0.335394
                                                         0.232656      -0.025564
                                                         0.074788      -0.002699

                          1       6    6dx2              2.521825       0.831079
                                                         1.453920      -0.709226
                                                         0.614053      -0.137351
                                                         0.232656       0.068642
                                                         0.074788       0.011745
                          1       6    6dxy              2.521825       1.439472
                                                         1.453920      -1.228415
                                                         0.614053      -0.237899
                                                         0.232656       0.118891
                                                         0.074788       0.020343
                          1       6    6dxz              2.521825       1.439472
                                                         1.453920      -1.228415
                                                         0.614053      -0.237899
                                                         0.232656       0.118891
                                                         0.074788       0.020343
                          1       6    6dy2              2.521825       0.831079
                                                         1.453920      -0.709226
                                                         0.614053      -0.137351
                                                         0.232656       0.068642
                                                         0.074788       0.011745
                          1       6    6dyz              2.521825       1.439472
                                                         1.453920      -1.228415
                                                         0.614053      -0.237899
                                                         0.232656       0.118891
                                                         0.074788       0.020343
                          1       6    6dz2              2.521825       0.831079
                                                         1.453920      -0.709226
                                                         0.614053      -0.137351
                                                         0.232656       0.068642
                                                         0.074788       0.011745

       Atomic covalent radius [Angstrom]:                                  1.300

       Atomic van der Waals radius [Angstrom]:                             1.750

     GTH Potential information for                                   GTH-PBE-q10

       Description:                       Goedecker-Teter-Hutter pseudopotential
                                           Goedecker et al., PRB 54, 1703 (1996)
                                          Hartwigsen et al., PRB 58, 3641 (1998)
                                                      Krack, TCA 114, 145 (2005)

       Gaussian exponent of the core charge distribution:               1.317676
       Electronic configuration (s p d ...):                           1   0   9

       Parameters of the local part of the GTH pseudopotential:

                          rloc        C1          C2          C3          C4
                        0.616000   11.313635

       Parameters of the non-local part of the GTH pseudopotential:

                   l      r(l)      h(i,j,l)

                   0    0.550904    4.733491   -1.784594
                                   -1.784594    2.303901
                   1    0.674138    2.534798   -1.778066
                                   -1.778066    2.103836
                   2    0.457392   -7.264011    2.558665
                                    2.558665   -2.901253


 MOLECULE KIND INFORMATION


 All atoms are their own molecule, skipping detailed information


 TOTAL NUMBERS AND MAXIMUM NUMBERS

  Total number of            - Atomic kinds:                                   3
                             - Atoms:                                        519
                             - Shell sets:                                   519
                             - Shells:                                      2407
                             - Primitive Cartesian functions:               2595
                             - Cartesian basis functions:                   7392
                             - Spherical basis functions:                   6643

  Maximum angular momentum of- Orbital basis functions:                        2
                             - Local part of the GTH pseudopotential:          2
                             - Non-local part of the GTH pseudopotential:      4


 MODULE QUICKSTEP:  ATOMIC COORDINATES IN angstrom

 Atom  Kind  Element       X           Y           Z          Z(eff)       Mass
    1   1 O    8      11.540001    5.010000   38.817998       6.0000     15.9994
    2   2 H    1      11.930000    4.480000   38.117997       1.0000      1.0079
    3   2 H    1      12.210001    5.710001   39.048000       1.0000      1.0079
    4   1 O    8      -7.170000  -27.390001   29.867997       6.0000     15.9994
    5   2 H    1      -6.910000  -27.850000   28.967998       1.0000      1.0079
    6   2 H    1      -6.760001  -26.490002   29.847998       1.0000      1.0079
    7   1 O    8      14.350000   -1.410000   38.917999       6.0000     15.9994
    8   2 H    1      15.220001   -1.510000   38.487998       1.0000      1.0079
    9   2 H    1      14.070001   -2.250000   39.247999       1.0000      1.0079
   10   1 O    8       5.480001   25.540001   39.187999       6.0000     15.9994
   11   2 H    1       6.230001   24.870003   39.128000       1.0000      1.0079
   12   2 H    1       4.860000   25.340002   38.487998       1.0000      1.0079
   13   1 O    8      18.330000   23.680000   29.907997       6.0000     15.9994
   14   2 H    1      19.139999   24.310001   29.997998       1.0000      1.0079
   15   2 H    1      26.790001    8.940001   28.867998       1.0000      1.0079
   16   1 O    8     -45.610004  -28.530003   38.587999       6.0000     15.9994
   17   2 H    1     -44.799999  -28.130001   38.877998       1.0000      1.0079
   18   2 H    1     -45.450001  -29.340002   38.027999       1.0000      1.0079
   19   1 O    8      15.930000   16.320002   39.727998       6.0000     15.9994
   20   2 H    1      16.650002   15.730000   40.097999       1.0000      1.0079
   21   2 H    1      16.340000   17.080000   39.167999       1.0000      1.0079
   22   1 O    8      17.010000   18.410000   38.187997       6.0000     15.9994
   23   2 H    1      16.750000   19.100000   38.827998       1.0000      1.0079
   24   2 H    1      17.950001   18.620001   37.927999       1.0000      1.0079
   25   1 O    8      -0.470000  -62.200005   35.507998       6.0000     15.9994
   26   2 H    1      -1.140000  -61.760002   34.897998       1.0000      1.0079
   27   2 H    1      -0.920000  -62.820000   36.107998       1.0000      1.0079
   28   1 O    8      24.100000   -1.570000   38.798000       6.0000     15.9994
   29   2 H    1      23.890001   -0.920000   38.137998       1.0000      1.0079
   30   2 H    1      23.450001   -2.310000   38.667999       1.0000      1.0079
   31   1 O    8      25.260000  -24.600000   29.237998       6.0000     15.9994
   32   2 H    1      26.210001  -24.620001   29.547998       1.0000      1.0079
   33   2 H    1      41.980003  -23.490002   29.467998       1.0000      1.0079
   34   1 O    8      -8.720000  -45.690002   37.647998       6.0000     15.9994
   35   2 H    1      -8.950001  -46.340004   36.967998       1.0000      1.0079
   36   2 H    1      -7.830000  -46.100002   38.127998       1.0000      1.0079
   37   1 O    8       4.620000  -10.810001   31.947998       6.0000     15.9994
   38   2 H    1     -12.980001  -10.790000   31.317997       1.0000      1.0079
   39   2 H    1       4.310000  -10.250001   32.717999       1.0000      1.0079
   40   1 O    8      -9.740001   -9.180000   35.587998       6.0000     15.9994
   41   2 H    1      -9.390000  -10.110001   35.857999       1.0000      1.0079
   42   2 H    1      -9.220000   -8.530001   36.137999       1.0000      1.0079
   43   1 O    8      16.120001   54.400002   30.537998       6.0000     15.9994
   44   2 H    1      16.530001   53.890003   31.337999       1.0000      1.0079
   45   2 H    1      15.870001   55.300003   30.787998       1.0000      1.0079
   46   1 O    8     -11.450001   -7.270000   37.397998       6.0000     15.9994
   47   2 H    1     -12.400000   -7.130001   37.387998       1.0000      1.0079
   48   2 H    1     -11.320001   -8.200001   37.367999       1.0000      1.0079
   49   1 O    8      -1.100000   -8.960000   39.687999       6.0000     15.9994
   50   2 H    1      -2.040000   -8.970000   39.357999       1.0000      1.0079
   51   2 H    1      -1.150000   -8.950001   40.717998       1.0000      1.0079
   52   1 O    8      40.490002   20.140001   31.077998       6.0000     15.9994
   53   2 H    1      39.750000   19.540001   31.317997       1.0000      1.0079
   54   2 H    1      24.200001   20.120001   31.877999       1.0000      1.0079
   55   1 O    8      -9.810000   13.270000   30.067998       6.0000     15.9994
   56   2 H    1      -9.340000   13.040000   29.207998       1.0000      1.0079
   57   2 H    1      -9.960001   14.220000   30.067998       1.0000      1.0079
   58   1 O    8      39.590000    7.370000   36.137999       6.0000     15.9994
   59   2 H    1      40.120003    6.500000   36.277998       1.0000      1.0079
   60   2 H    1      38.660004    7.300000   36.457998       1.0000      1.0079
   61   1 O    8      27.060001   25.580002   31.107998       6.0000     15.9994
   62   2 H    1      26.310001   24.990002   30.947998       1.0000      1.0079
   63   2 H    1      27.140003   25.580002   32.067998       1.0000      1.0079
   64   1 O    8     -30.950001   22.740002   37.177999       6.0000     15.9994
   65   2 H    1     -31.710003   22.720001   37.777997       1.0000      1.0079
   66   2 H    1     -30.680000   23.660002   37.177999       1.0000      1.0079
   67   1 O    8     -25.770000   17.580002   36.147998       6.0000     15.9994
   68   2 H    1     -33.360001   32.210003   36.757998       1.0000      1.0079
   69   2 H    1     -25.740002   16.920000   35.417999       1.0000      1.0079
   70   1 O    8      -5.870000   -8.830000   34.827998       6.0000     15.9994
   71   2 H    1      -5.230000   -9.530001   34.797998       1.0000      1.0079
   72   2 H    1     -14.030001    6.400001   34.107998       1.0000      1.0079
   73   1 O    8     -16.170002   22.570002   39.067998       6.0000     15.9994
   74   2 H    1     -16.540001   21.740000   39.507999       1.0000      1.0079
   75   2 H    1     -15.920001   23.310001   39.747999       1.0000      1.0079
   76   1 O    8      -2.390000   14.050001   33.367997       6.0000     15.9994
   77   2 H    1      -2.720000   14.710001   34.017999       1.0000      1.0079
   78   2 H    1      -1.460000   14.080001   33.577998       1.0000      1.0079
   79   1 O    8     -13.190001   -3.800000   37.047998       6.0000     15.9994
   80   2 H    1     -13.400001   -3.440000   36.107998       1.0000      1.0079
   81   2 H    1     -13.860001   -3.380000   37.567998       1.0000      1.0079
   82   1 O    8       7.270000    5.180000   36.097998       6.0000     15.9994
   83   2 H    1       7.650001    4.600000   36.867998       1.0000      1.0079
   84   2 H    1       8.120001    5.580000   35.767998       1.0000      1.0079
   85   1 O    8     -23.880001   -7.800000   29.657998       6.0000     15.9994
   86   2 H    1     -24.330002   -6.980000   29.957998       1.0000      1.0079
   87   2 H    1     -22.889999   -7.740001   29.587998       1.0000      1.0079
   88   1 O    8      25.280001   -5.980001   33.407998       6.0000     15.9994
   89   2 H    1      26.030003   -6.580000   33.537998       1.0000      1.0079
   90   2 H    1      24.630001   -6.150000   34.177998       1.0000      1.0079
   91   1 O    8      -2.650000   -9.820001   30.117998       6.0000     15.9994
   92   2 H    1      -3.270000  -10.540000   30.157998       1.0000      1.0079
   93   2 H    1      -1.950000  -10.070001   29.487998       1.0000      1.0079
   94   1 O    8      54.400002   -4.070000   30.377998       6.0000     15.9994
   95   2 H    1      54.250000   -3.160000   30.147998       1.0000      1.0079
   96   2 H    1      54.110001   -4.150000   31.337999       1.0000      1.0079
   97   1 O    8      19.470001  -10.390000   30.197998       6.0000     15.9994
   98   2 H    1      19.730000  -10.520000   29.247998       1.0000      1.0079
   99   2 H    1      19.530001   -9.370001   30.367997       1.0000      1.0079
  100   1 O    8      21.540001  -35.740002   33.357999       6.0000     15.9994
  101   2 H    1      20.720001  -35.190002   33.137998       1.0000      1.0079
  102   2 H    1      21.310001  -36.670002   33.577998       1.0000      1.0079
  103   1 O    8      23.460003  -17.080000   33.547998       6.0000     15.9994
  104   2 H    1      22.820000  -17.889999   33.517998       1.0000      1.0079
  105   2 H    1      22.840002  -16.380001   33.967999       1.0000      1.0079
  106   1 O    8     -23.340000   43.540001   30.337999       6.0000     15.9994
  107   2 H    1     -23.470001   43.279999   31.277998       1.0000      1.0079
  108   2 H    1     -23.600002   44.500004   30.157998       1.0000      1.0079
  109   1 O    8      28.520002   19.120001   31.827998       6.0000     15.9994
  110   2 H    1      29.080002   18.310001   32.167998       1.0000      1.0079
  111   2 H    1      27.820000   18.630001   31.387998       1.0000      1.0079
  112   1 O    8      25.360001    9.220000   33.077998       6.0000     15.9994
  113   2 H    1      25.010002    9.380000   33.937998       1.0000      1.0079
  114   2 H    1      25.820000    8.360001   33.137998       1.0000      1.0079
  115   1 O    8     -21.110001    2.110000   29.287998       6.0000     15.9994
  116   2 H    1     -21.520002    1.140000   29.417999       1.0000      1.0079
  117   2 H    1     -20.120001    2.050000   29.477998       1.0000      1.0079
  118   1 O    8     -57.580002   31.100002   32.767999       6.0000     15.9994
  119   2 H    1     -57.680000   31.080000   31.797999       1.0000      1.0079
  120   2 H    1     -56.620003   31.020002   33.027997       1.0000      1.0079
  121   1 O    8       0.260000    7.400000   37.287999       6.0000     15.9994
  122   2 H    1      18.110001    7.360001   37.227998       1.0000      1.0079
  123   2 H    1       0.190000    6.880000   38.127998       1.0000      1.0079
  124   1 O    8      18.330000   55.720001   29.167998       6.0000     15.9994
  125   2 H    1      18.080002   56.630001   29.427998       1.0000      1.0079
  126   2 H    1      34.400002   55.190002   29.457999       1.0000      1.0079
  127   1 O    8      10.020000   17.470001   37.977998       6.0000     15.9994
  128   2 H    1       2.570000   32.330002   37.787998       1.0000      1.0079
  129   2 H    1       9.620001   17.750000   38.837999       1.0000      1.0079
  130   1 O    8       6.910000    2.160000   29.127998       6.0000     15.9994
  131   2 H    1       6.730001    1.200000   29.537998       1.0000      1.0079
  132   2 H    1       7.860000    2.480000   29.217998       1.0000      1.0079
  133   1 O    8      22.520000  -14.600000   34.817998       6.0000     15.9994
  134   2 H    1      21.790001  -14.170000   34.337998       1.0000      1.0079
  135   2 H    1      21.980001  -14.850000   35.617998       1.0000      1.0079
  136   1 O    8      17.180000  -15.250001   32.947998       6.0000     15.9994
  137   2 H    1      17.510000  -15.470000   32.067998       1.0000      1.0079
  138   2 H    1      17.560001  -14.320001   33.077998       1.0000      1.0079
  139   1 O    8       3.530000   11.050000   35.267999       6.0000     15.9994
  140   2 H    1       2.710000   11.060000   34.747999       1.0000      1.0079
  141   2 H    1       3.260000   10.750000   36.137999       1.0000      1.0079
  142   1 O    8       4.280000    3.170000   37.337999       6.0000     15.9994
  143   2 H    1       4.430000    2.210000   37.527997       1.0000      1.0079
  144   2 H    1       4.280000    3.350000   36.337999       1.0000      1.0079
  145   1 O    8       1.200000   -7.870001   33.027997       6.0000     15.9994
  146   2 H    1       1.940000   -7.830000   32.457999       1.0000      1.0079
  147   2 H    1       0.440000   -8.280001   32.567997       1.0000      1.0079
  148   1 O    8       3.520000   14.210001   30.227998       6.0000     15.9994
  149   2 H    1     -12.860001   13.350000   30.247999       1.0000      1.0079
  150   2 H    1       2.540000   13.980001   30.177998       1.0000      1.0079
  151   1 O    8     -16.760002    4.630000   29.097998       6.0000     15.9994
  152   2 H    1     -16.210001    5.430000   29.277998       1.0000      1.0079
  153   2 H    1     -17.640001    4.800000   29.587998       1.0000      1.0079
  154   1 O    8      13.950001   11.250000   34.847998       6.0000     15.9994
  155   2 H    1      14.430000   10.410000   34.987998       1.0000      1.0079
  156   2 H    1      14.420000   11.650001   34.107998       1.0000      1.0079
  157   1 O    8     -12.610001    6.870000   29.207998       6.0000     15.9994
  158   2 H    1     -12.080001    6.050000   29.497998       1.0000      1.0079
  159   2 H    1     -12.100000    7.680000   29.467998       1.0000      1.0079
  160   1 O    8     -24.610003   13.220000   32.777997       6.0000     15.9994
  161   2 H    1     -24.940002   13.960000   33.367997       1.0000      1.0079
  162   2 H    1     -25.430002   12.730000   32.657998       1.0000      1.0079
  163   1 O    8       2.850000   -4.830000   32.867998       6.0000     15.9994
  164   2 H    1       1.910000   -5.080000   32.957998       1.0000      1.0079
  165   2 H    1       3.000000   -4.300000   33.717998       1.0000      1.0079
  166   1 O    8      32.980000  -19.870001   39.017999       6.0000     15.9994
  167   2 H    1      33.630001  -19.090000   39.077998       1.0000      1.0079
  168   2 H    1      33.209999  -20.320000   38.127998       1.0000      1.0079
  169   1 O    8      29.650002   13.250000   29.777997       6.0000     15.9994
  170   2 H    1      28.860001   13.830000   29.987998       1.0000      1.0079
  171   2 H    1      29.670002   13.220000   28.797998       1.0000      1.0079
  172   1 O    8      14.930000    8.750001   35.197997       6.0000     15.9994
  173   2 H    1      14.700001    8.300000   36.027998       1.0000      1.0079
  174   2 H    1      14.140000    8.410000   34.647998       1.0000      1.0079
  175   1 O    8      12.430000    1.260000   32.687998       6.0000     15.9994
  176   2 H    1      12.940001    2.110000   32.427998       1.0000      1.0079
  177   2 H    1      12.460001    0.710000   31.887998       1.0000      1.0079
  178   1 O    8      20.080002    7.030000   37.197997       6.0000     15.9994
  179   2 H    1      20.389999    6.370000   37.927999       1.0000      1.0079
  180   2 H    1      19.790001    6.600000   36.367998       1.0000      1.0079
  181   1 O    8     -36.310001    9.450001   29.077998       6.0000     15.9994
  182   2 H    1     -36.420002    8.420001   29.227998       1.0000      1.0079
  183   2 H    1     -37.200005    9.870001   29.387998       1.0000      1.0079
  184   1 O    8       4.300000   11.170001   30.547998       6.0000     15.9994
  185   2 H    1       4.480000   10.850000   31.477998       1.0000      1.0079
  186   2 H    1       3.310000   10.950001   30.497998       1.0000      1.0079
  187   1 O    8     -17.470001   21.490002   30.067998       6.0000     15.9994
  188   2 H    1     -16.800001   22.230000   29.987998       1.0000      1.0079
  189   2 H    1     -17.570002   21.200001   30.997999       1.0000      1.0079
  190   1 O    8       5.490000  -19.780001   29.267998       6.0000     15.9994
  191   2 H    1       4.920000  -18.910000   29.767998       1.0000      1.0079
  192   2 H    1       6.400001  -19.550001   29.557998       1.0000      1.0079
  193   1 O    8       5.330000   10.470000   39.267999       6.0000     15.9994
  194   2 H    1       5.940001   10.030001   38.737998       1.0000      1.0079
  195   2 H    1       5.170000    9.990001   40.157998       1.0000      1.0079
  196   1 O    8      16.830002    0.420000   34.557999       6.0000     15.9994
  197   2 H    1      15.930000    0.180000   34.967998       1.0000      1.0079
  198   2 H    1      17.430000    0.420000   35.407998       1.0000      1.0079
  199   1 O    8      29.790001   19.820002   38.917999       6.0000     15.9994
  200   2 H    1      29.320002   19.540001   39.747999       1.0000      1.0079
  201   2 H    1      29.720001   19.010002   38.357999       1.0000      1.0079
  202   1 O    8       6.600000   -0.330000   30.157998       6.0000     15.9994
  203   2 H    1       6.680000   -0.430000   31.147998       1.0000      1.0079
  204   2 H    1       5.680000   -0.710000   29.897998       1.0000      1.0079
  205   1 O    8      24.870003   23.440001   30.517998       6.0000     15.9994
  206   2 H    1      24.170000   24.010000   30.037998       1.0000      1.0079
  207   2 H    1      24.680002   23.320000   31.477998       1.0000      1.0079
  208   1 O    8      35.240002    2.730000   30.347998       6.0000     15.9994
  209   2 H    1      34.630001    2.580000   31.187999       1.0000      1.0079
  210   2 H    1      34.670002    3.250000   29.737998       1.0000      1.0079
  211   1 O    8     -32.450001    0.560000   36.917999       6.0000     15.9994
  212   2 H    1     -32.720001   -0.230000   37.407998       1.0000      1.0079
  213   2 H    1     -23.820002  -13.220000   37.487998       1.0000      1.0079
  214   1 O    8      10.510000  -17.550001   34.687997       6.0000     15.9994
  215   2 H    1       9.690001  -17.940001   35.027998       1.0000      1.0079
  216   2 H    1      10.200001  -17.130001   33.877998       1.0000      1.0079
  217   1 O    8      12.610001   17.070002   29.947997       6.0000     15.9994
  218   2 H    1      11.650001   17.210001   29.787999       1.0000      1.0079
  219   2 H    1      12.950001   16.600000   29.237998       1.0000      1.0079
  220   1 O    8     -21.030003    3.570000   37.027998       6.0000     15.9994
  221   2 H    1     -21.330002    2.570000   37.217998       1.0000      1.0079
  222   2 H    1     -20.010002    3.520000   36.857997       1.0000      1.0079
  223   1 O    8      -7.540000  -30.260002   30.267998       6.0000     15.9994
  224   2 H    1      -7.350000  -31.200001   30.367997       1.0000      1.0079
  225   2 H    1      -8.370000  -29.910002   29.827998       1.0000      1.0079
  226   1 O    8      22.840002    7.540000   33.567998       6.0000     15.9994
  227   2 H    1      22.730000    7.480001   34.607999       1.0000      1.0079
  228   2 H    1      23.590002    6.950001   33.347998       1.0000      1.0079
  229   1 O    8      20.200001    7.260000   32.677998       6.0000     15.9994
  230   2 H    1      20.000000    6.470000   32.137998       1.0000      1.0079
  231   2 H    1      21.150000    7.330000   32.937998       1.0000      1.0079
  232   1 O    8      13.850001   43.010002   36.377998       6.0000     15.9994
  233   2 H    1      12.860001   43.160000   35.997999       1.0000      1.0079
  234   2 H    1      14.250001   42.320004   35.767998       1.0000      1.0079
  235   1 O    8      24.020002   38.390003   37.617999       6.0000     15.9994
  236   2 H    1      23.660002   37.780003   36.957999       1.0000      1.0079
  237   2 H    1      24.560001   37.850002   38.208000       1.0000      1.0079
  238   1 O    8     -13.970001   21.550003   30.827998       6.0000     15.9994
  239   2 H    1     -14.360001   22.369999   30.347998       1.0000      1.0079
  240   2 H    1     -12.960000   21.610001   30.607997       1.0000      1.0079
  241   1 O    8     -29.450001   13.450001   36.747999       6.0000     15.9994
  242   2 H    1     -29.900002   12.730000   36.227998       1.0000      1.0079
  243   2 H    1     -28.990002   12.990000   37.527997       1.0000      1.0079
  244   1 O    8      20.010002  -13.230000   37.617999       6.0000     15.9994
  245   2 H    1      19.990002  -13.250000   38.637998       1.0000      1.0079
  246   2 H    1      20.370003  -14.090000   37.457998       1.0000      1.0079
  247   1 O    8      18.050001   10.970000   33.787999       6.0000     15.9994
  248   2 H    1      17.380001   11.650001   33.777998       1.0000      1.0079
  249   2 H    1      17.560001   10.070001   33.847998       1.0000      1.0079
  250   1 O    8       5.240001   -7.560000   29.727998       6.0000     15.9994
  251   2 H    1       5.060000   -7.970000   28.857998       1.0000      1.0079
  252   2 H    1       5.930000   -8.120001   30.177998       1.0000      1.0079
  253   1 O    8     -16.560001    6.390000   39.937999       6.0000     15.9994
  254   2 H    1     -16.400002    5.450000   40.077998       1.0000      1.0079
  255   2 H    1     -17.120001    6.590000   40.727998       1.0000      1.0079
  256   1 O    8       3.070000   10.180000   37.878000       6.0000     15.9994
  257   2 H    1       3.960000   10.350000   38.367997       1.0000      1.0079
  258   2 H    1       3.110000    9.220000   37.737998       1.0000      1.0079
  259   1 O    8     -35.100002   20.130001   32.397998       6.0000     15.9994
  260   2 H    1     -35.750004   19.750002   31.697998       1.0000      1.0079
  261   2 H    1     -34.870003   19.330002   32.927998       1.0000      1.0079
  262   1 O    8      -0.240000    2.400000   32.467998       6.0000     15.9994
  263   2 H    1      -0.060000    1.670000   33.117998       1.0000      1.0079
  264   2 H    1      -0.410000    3.280000   32.917999       1.0000      1.0079
  265   1 O    8      17.880001   11.530000   39.087999       6.0000     15.9994
  266   2 H    1      18.710001   11.240001   38.577998       1.0000      1.0079
  267   2 H    1      17.290001   12.210001   38.737998       1.0000      1.0079
  268   1 O    8      47.020000   -4.350000   33.177999       6.0000     15.9994
  269   2 H    1      47.490002   -5.190001   33.377999       1.0000      1.0079
  270   2 H    1      46.510002   -4.170000   33.987998       1.0000      1.0079
  271   1 O    8     -13.740001   -0.260000   35.377998       6.0000     15.9994
  272   2 H    1     -14.310001    0.060000   36.077998       1.0000      1.0079
  273   2 H    1     -14.040001   -1.160000   35.067998       1.0000      1.0079
  274   1 O    8     -20.620001   18.460001   34.747999       6.0000     15.9994
  275   2 H    1     -19.870001   19.040001   34.957999       1.0000      1.0079
  276   2 H    1     -20.580002   17.740000   34.037999       1.0000      1.0079
  277   1 O    8      13.000001  -23.860001   34.207998       6.0000     15.9994
  278   2 H    1      12.320002  -24.080002   34.927998       1.0000      1.0079
  279   2 H    1      13.800001  -23.780001   34.777998       1.0000      1.0079
  280   1 O    8      27.180002   11.830001   38.917999       6.0000     15.9994
  281   2 H    1      27.560001   12.560000   39.357999       1.0000      1.0079
  282   2 H    1      27.060001   10.990001   39.577998       1.0000      1.0079
  283   1 O    8      -9.850000   25.770000   32.467998       6.0000     15.9994
  284   2 H    1       6.490001   25.020000   32.137998       1.0000      1.0079
  285   2 H    1       6.550000   26.480003   31.957998       1.0000      1.0079
  286   1 O    8      -0.880000   17.450001   33.557998       6.0000     15.9994
  287   2 H    1      -1.160000   17.280001   34.457998       1.0000      1.0079
  288   2 H    1       0.070000   17.200001   33.527998       1.0000      1.0079
  289   1 O    8      40.410004    1.410000   35.917998       6.0000     15.9994
  290   2 H    1      39.810001    0.640000   36.067998       1.0000      1.0079
  291   2 H    1      40.680004    1.940000   36.657998       1.0000      1.0079
  292   1 O    8      17.700001   21.320002   35.617998       6.0000     15.9994
  293   2 H    1      18.440001   21.720001   36.117997       1.0000      1.0079
  294   2 H    1      18.100000   21.150000   34.677999       1.0000      1.0079
  295   1 O    8     -20.230000  -41.380001   32.507999       6.0000     15.9994
  296   2 H    1     -20.380001  -41.670002   31.547998       1.0000      1.0079
  297   2 H    1     -19.220001  -41.310001   32.577998       1.0000      1.0079
  298   1 O    8      -1.550000   31.000002   29.877998       6.0000     15.9994
  299   2 H    1      -0.810000   30.990002   29.227998       1.0000      1.0079
  300   2 H    1      -1.160000   31.240002   30.707999       1.0000      1.0079
  301   1 O    8     -16.980001  -24.230001   33.137998       6.0000     15.9994
  302   2 H    1     -17.280001  -23.950003   34.077998       1.0000      1.0079
  303   2 H    1       0.860000  -24.310001   33.227998       1.0000      1.0079
  304   3 Pt  78       1.580000    0.760000   15.049999      10.0000    195.0840
  305   3 Pt  78       4.510000    0.620000   15.109997      10.0000    195.0840
  306   3 Pt  78       7.430000    0.650000   15.209999      10.0000    195.0840
  307   3 Pt  78      10.270000    0.610000   15.380001      10.0000    195.0840
  308   3 Pt  78      13.030001    0.590000   15.349998      10.0000    195.0840
  309   3 Pt  78      15.720000    0.580000   15.310001      10.0000    195.0840
  310   3 Pt  78       3.230000    3.000000   15.160000      10.0000    195.0840
  311   3 Pt  78       5.950000    3.140000   15.360001      10.0000    195.0840
  312   3 Pt  78       8.730000    3.110000   15.410000      10.0000    195.0840
  313   3 Pt  78      11.560000    2.960000   15.230000      10.0000    195.0840
  314   3 Pt  78      14.290000    3.110000   15.020000      10.0000    195.0840
  315   3 Pt  78       0.200000    3.070000   15.239998      10.0000    195.0840
  316   3 Pt  78       4.590000    5.560000   15.250000      10.0000    195.0840
  317   3 Pt  78       7.280001    5.510000   15.239998      10.0000    195.0840
  318   3 Pt  78      10.110001    5.470000   15.299999      10.0000    195.0840
  319   3 Pt  78      12.870001    5.450000   15.209999      10.0000    195.0840
  320   3 Pt  78      -1.160000    5.470000   15.230000      10.0000    195.0840
  321   3 Pt  78       1.870000    5.420001   15.230000      10.0000    195.0840
  322   3 Pt  78       6.030001    7.950000   15.279999      10.0000    195.0840
  323   3 Pt  78       8.750001    7.840000   15.180000      10.0000    195.0840
  324   3 Pt  78      11.490001    8.020000   15.119999      10.0000    195.0840
  325   3 Pt  78      -2.500000    7.880001   15.279999      10.0000    195.0840
  326   3 Pt  78       0.400000    8.000000   15.259998      10.0000    195.0840
  327   3 Pt  78       3.140000    7.870001   15.339996      10.0000    195.0840
  328   3 Pt  78       7.330000   10.350000   15.230000      10.0000    195.0840
  329   3 Pt  78       9.980000   10.370001   15.080002      10.0000    195.0840
  330   3 Pt  78      -3.830000   10.370001   15.000000      10.0000    195.0840
  331   3 Pt  78      -1.080000   10.340000   15.169998      10.0000    195.0840
  332   3 Pt  78       1.690000   10.400001   15.119999      10.0000    195.0840
  333   3 Pt  78       4.560000   10.240001   15.209999      10.0000    195.0840
  334   3 Pt  78       8.640000   12.780001   15.059998      10.0000    195.0840
  335   3 Pt  78      -5.350000   12.790001   15.009998      10.0000    195.0840
  336   3 Pt  78      -2.480000   12.770000   15.160000      10.0000    195.0840
  337   3 Pt  78       0.380000   12.900001   15.329998      10.0000    195.0840
  338   3 Pt  78       3.100000   12.810000   15.320000      10.0000    195.0840
  339   3 Pt  78       5.800000   12.730000   15.199997      10.0000    195.0840
  340   3 Pt  78       0.300000    1.550000   17.500000      10.0000    195.0840
  341   3 Pt  78       3.040000    1.460000   17.469997      10.0000    195.0840
  342   3 Pt  78       5.950000    1.500000   17.619999      10.0000    195.0840
  343   3 Pt  78       8.740000    1.450000   17.689999      10.0000    195.0840
  344   3 Pt  78      11.580001    1.460000   17.639999      10.0000    195.0840
  345   3 Pt  78      14.270000    1.510000   17.529999      10.0000    195.0840
  346   3 Pt  78       1.630000    3.950000   17.459999      10.0000    195.0840
  347   3 Pt  78       4.560000    3.850000   17.590000      10.0000    195.0840
  348   3 Pt  78       7.340000    3.870000   17.639999      10.0000    195.0840
  349   3 Pt  78      10.130000    3.770000   17.680000      10.0000    195.0840
  350   3 Pt  78      12.960000    3.860000   17.629997      10.0000    195.0840
  351   3 Pt  78      -1.140000    4.040000   17.570000      10.0000    195.0840
  352   3 Pt  78       3.160000    6.330000   17.480000      10.0000    195.0840
  353   3 Pt  78       5.880000    6.300001   17.580002      10.0000    195.0840
  354   3 Pt  78       8.660001    6.330000   17.639999      10.0000    195.0840
  355   3 Pt  78      11.520000    6.340000   17.539997      10.0000    195.0840
  356   3 Pt  78      -2.620000    6.430000   17.750000      10.0000    195.0840
  357   3 Pt  78       0.290000    6.410000   17.529999      10.0000    195.0840
  358   3 Pt  78       4.560000    8.670000   17.680000      10.0000    195.0840
  359   3 Pt  78       7.280001    8.770000   17.580002      10.0000    195.0840
  360   3 Pt  78      10.110001    8.860001   17.559998      10.0000    195.0840
  361   3 Pt  78      -3.970000    8.820001   17.450001      10.0000    195.0840
  362   3 Pt  78      -1.070000    8.800000   17.570000      10.0000    195.0840
  363   3 Pt  78       1.740000    8.750001   17.660000      10.0000    195.0840
  364   3 Pt  78       5.850000   11.240001   17.660000      10.0000    195.0840
  365   3 Pt  78       8.780001   11.170001   17.469997      10.0000    195.0840
  366   3 Pt  78      -5.330000   11.220001   17.439999      10.0000    195.0840
  367   3 Pt  78      -2.440000   11.200000   17.459999      10.0000    195.0840
  368   3 Pt  78       0.340000   11.240001   17.609997      10.0000    195.0840
  369   3 Pt  78       3.110000   11.120001   17.509998      10.0000    195.0840
  370   3 Pt  78       7.360001   13.690001   17.639999      10.0000    195.0840
  371   3 Pt  78      -6.780000   13.690001   17.389999      10.0000    195.0840
  372   3 Pt  78      -4.060000   13.680000   17.450001      10.0000    195.0840
  373   3 Pt  78      -1.240000   13.610001   17.410000      10.0000    195.0840
  374   3 Pt  78       1.650000   13.690001   17.720001      10.0000    195.0840
  375   3 Pt  78       4.460000   13.620001   17.639999      10.0000    195.0840
  376   3 Pt  78      -8.320000   14.570000   19.869999      10.0000    195.0840
  377   3 Pt  78      -5.470000   14.510001   19.730000      10.0000    195.0840
  378   3 Pt  78      -2.590000   14.420000   19.869999      10.0000    195.0840
  379   3 Pt  78       0.120000   14.410001   19.900002      10.0000    195.0840
  380   3 Pt  78       3.000000   14.450001   19.939999      10.0000    195.0840
  381   3 Pt  78       5.770000   14.600000   19.970001      10.0000    195.0840
  382   3 Pt  78       1.570000    2.390000   19.830002      10.0000    195.0840
  383   3 Pt  78       4.430000    2.420000   19.930000      10.0000    195.0840
  384   3 Pt  78       7.210000    2.340000   19.919998      10.0000    195.0840
  385   3 Pt  78      10.010000    2.250000   19.949997      10.0000    195.0840
  386   3 Pt  78      12.920000    2.290000   19.949997      10.0000    195.0840
  387   3 Pt  78      -1.210000    2.310000   19.879997      10.0000    195.0840
  388   3 Pt  78       3.050000    4.810000   19.840000      10.0000    195.0840
  389   3 Pt  78       5.850000    4.880000   19.930000      10.0000    195.0840
  390   3 Pt  78       8.680000    4.770000   19.959999      10.0000    195.0840
  391   3 Pt  78      11.390000    4.730000   19.889999      10.0000    195.0840
  392   3 Pt  78      -2.600000    4.760000   19.889999      10.0000    195.0840
  393   3 Pt  78       0.240000    4.760000   19.879997      10.0000    195.0840
  394   3 Pt  78       4.420000    7.280001   19.949997      10.0000    195.0840
  395   3 Pt  78       7.220001    7.180000   19.889999      10.0000    195.0840
  396   3 Pt  78      10.020000    7.330000   19.860001      10.0000    195.0840
  397   3 Pt  78      -4.100000    7.160000   19.879997      10.0000    195.0840
  398   3 Pt  78      -1.190000    7.200000   19.919998      10.0000    195.0840
  399   3 Pt  78       1.660000    7.180000   19.879997      10.0000    195.0840
  400   3 Pt  78       5.800000    9.720000   19.889999      10.0000    195.0840
  401   3 Pt  78       8.530001    9.640000   19.799999      10.0000    195.0840
  402   3 Pt  78      -5.380001    9.640000   19.840000      10.0000    195.0840
  403   3 Pt  78      -2.560000    9.590000   19.779999      10.0000    195.0840
  404   3 Pt  78       0.290000    9.610001   19.939999      10.0000    195.0840
  405   3 Pt  78       2.960000    9.640000   20.000000      10.0000    195.0840
  406   3 Pt  78       7.190001   12.140001   19.919998      10.0000    195.0840
  407   3 Pt  78      -6.900001   12.060001   19.750000      10.0000    195.0840
  408   3 Pt  78      -4.020000   12.060001   19.869999      10.0000    195.0840
  409   3 Pt  78      -1.180000   11.970000   19.980000      10.0000    195.0840
  410   3 Pt  78       1.590000   12.130001   19.980000      10.0000    195.0840
  411   3 Pt  78       4.360000   12.130001   19.980000      10.0000    195.0840
  412   3 Pt  78       1.590000    0.690000   22.067998      10.0000    195.0840
  413   3 Pt  78       4.460000    0.650000   22.047998      10.0000    195.0840
  414   3 Pt  78       7.170000    0.710000   22.307998      10.0000    195.0840
  415   3 Pt  78       9.900001    0.710000   22.287998      10.0000    195.0840
  416   3 Pt  78      12.730000    0.630000   22.287998      10.0000    195.0840
  417   3 Pt  78      15.570001    0.690000   22.247998      10.0000    195.0840
  418   3 Pt  78       2.990000    3.080000   22.217998      10.0000    195.0840
  419   3 Pt  78       5.760000    3.130000   22.237998      10.0000    195.0840
  420   3 Pt  78       8.540000    3.180000   22.237998      10.0000    195.0840
  421   3 Pt  78      11.360001    3.110000   22.217998      10.0000    195.0840
  422   3 Pt  78      14.240000    3.030000   22.257998      10.0000    195.0840
  423   3 Pt  78       0.190000    3.080000   22.227998      10.0000    195.0840
  424   3 Pt  78       4.330000    5.580000   22.217998      10.0000    195.0840
  425   3 Pt  78       7.170000    5.650000   22.267998      10.0000    195.0840
  426   3 Pt  78       9.960001    5.610001   22.207998      10.0000    195.0840
  427   3 Pt  78      12.700001    5.520000   22.217998      10.0000    195.0840
  428   3 Pt  78      -1.220000    5.460000   22.167998      10.0000    195.0840
  429   3 Pt  78       1.620000    5.470000   22.097998      10.0000    195.0840
  430   3 Pt  78       5.800000    8.070001   22.177998      10.0000    195.0840
  431   3 Pt  78       8.610001    8.150001   22.177998      10.0000    195.0840
  432   3 Pt  78      11.370001    8.000000   22.247998      10.0000    195.0840
  433   3 Pt  78      -2.660000    7.930000   22.227998      10.0000    195.0840
  434   3 Pt  78       0.230000    7.900000   22.237998      10.0000    195.0840
  435   3 Pt  78       2.990000    8.010000   22.237998      10.0000    195.0840
  436   3 Pt  78       7.190001   10.530001   22.137998      10.0000    195.0840
  437   3 Pt  78      10.020000   10.500001   22.017998      10.0000    195.0840
  438   3 Pt  78      -3.970000   10.400001   22.107998      10.0000    195.0840
  439   3 Pt  78      -1.240000   10.320001   22.257998      10.0000    195.0840
  440   3 Pt  78       1.480000   10.490000   22.307998      10.0000    195.0840
  441   3 Pt  78       4.360000   10.420000   22.207998      10.0000    195.0840
  442   3 Pt  78       8.550000   12.920000   22.177998      10.0000    195.0840
  443   3 Pt  78      -5.530000   12.810000   21.987998      10.0000    195.0840
  444   3 Pt  78      -2.670000   12.780001   22.147998      10.0000    195.0840
  445   3 Pt  78       0.020000   12.780001   22.317998      10.0000    195.0840
  446   3 Pt  78       2.830000   12.860001   22.337998      10.0000    195.0840
  447   3 Pt  78       5.690000   12.910000   22.317998      10.0000    195.0840
  448   3 Pt  78      -0.010000    1.430000   24.507998      10.0000    195.0840
  449   3 Pt  78       2.850000    1.460000   24.397998      10.0000    195.0840
  450   3 Pt  78       5.600000    1.650000   24.557998      10.0000    195.0840
  451   3 Pt  78       8.370000    1.660000   24.627998      10.0000    195.0840
  452   3 Pt  78      11.100000    1.570000   24.587998      10.0000    195.0840
  453   3 Pt  78      14.060000    1.350000   24.717998      10.0000    195.0840
  454   3 Pt  78       1.490000    3.840000   24.527998      10.0000    195.0840
  455   3 Pt  78       4.210001    4.080000   24.507998      10.0000    195.0840
  456   3 Pt  78       6.960001    4.080000   24.617998      10.0000    195.0840
  457   3 Pt  78       9.890000    4.000000   24.557998      10.0000    195.0840
  458   3 Pt  78      12.780001    3.800000   24.497998      10.0000    195.0840
  459   3 Pt  78      -1.250000    3.840000   24.507998      10.0000    195.0840
  460   3 Pt  78       2.830000    6.470000   24.487998      10.0000    195.0840
  461   3 Pt  78       5.700001    6.430000   24.617998      10.0000    195.0840
  462   3 Pt  78       8.500000    6.370000   24.587998      10.0000    195.0840
  463   3 Pt  78      11.200000    6.300001   24.497998      10.0000    195.0840
  464   3 Pt  78      -2.810000    6.270000   24.457998      10.0000    195.0840
  465   3 Pt  78       0.040000    6.300001   24.537998      10.0000    195.0840
  466   3 Pt  78       4.360000    8.840000   24.707998      10.0000    195.0840
  467   3 Pt  78       7.170000    8.740000   24.427998      10.0000    195.0840
  468   3 Pt  78       9.930000    8.780001   24.477998      10.0000    195.0840
  469   3 Pt  78      -4.200000    8.840000   24.477998      10.0000    195.0840
  470   3 Pt  78      -1.420000    8.810000   24.537998      10.0000    195.0840
  471   3 Pt  78       1.420000    8.790001   24.677998      10.0000    195.0840
  472   3 Pt  78       5.760000   11.220001   24.507998      10.0000    195.0840
  473   3 Pt  78       8.520000   11.170001   24.457998      10.0000    195.0840
  474   3 Pt  78      -5.530000   11.170001   24.317998      10.0000    195.0840
  475   3 Pt  78      -2.780000   11.180000   24.427998      10.0000    195.0840
  476   3 Pt  78       0.000000   11.260000   24.597998      10.0000    195.0840
  477   3 Pt  78       2.830000   11.310000   24.627998      10.0000    195.0840
  478   3 Pt  78       7.050000   13.580000   24.517998      10.0000    195.0840
  479   3 Pt  78      -7.030000   13.620001   24.427998      10.0000    195.0840
  480   3 Pt  78      -4.240000   13.640001   24.327998      10.0000    195.0840
  481   3 Pt  78      -1.410000   13.790001   24.567998      10.0000    195.0840
  482   3 Pt  78       1.280000   13.680000   24.567998      10.0000    195.0840
  483   3 Pt  78       4.170000   13.700001   24.667998      10.0000    195.0840
  484   3 Pt  78      -8.490001   14.390000   26.897998      10.0000    195.0840
  485   3 Pt  78      -5.770000   14.360001   26.737998      10.0000    195.0840
  486   3 Pt  78      -2.990000   14.380001   26.717998      10.0000    195.0840
  487   3 Pt  78      -0.020000   14.520000   26.927998      10.0000    195.0840
  488   3 Pt  78       2.720000   14.470000   26.947998      10.0000    195.0840
  489   3 Pt  78       5.620000   14.400001   27.057998      10.0000    195.0840
  490   3 Pt  78       1.320000    2.220000   26.777997      10.0000    195.0840
  491   3 Pt  78       4.070000    2.350000   26.697998      10.0000    195.0840
  492   3 Pt  78       6.800000    2.240000   26.957998      10.0000    195.0840
  493   3 Pt  78       9.790000    2.330000   26.877998      10.0000    195.0840
  494   3 Pt  78      12.630000    2.240000   26.967998      10.0000    195.0840
  495   3 Pt  78      -1.460000    2.370000   26.997998      10.0000    195.0840
  496   3 Pt  78       2.650000    4.620000   26.907997      10.0000    195.0840
  497   3 Pt  78       5.540000    4.820000   26.867997      10.0000    195.0840
  498   3 Pt  78       8.410000    4.670000   26.917998      10.0000    195.0840
  499   3 Pt  78      11.270000    4.710000   26.897998      10.0000    195.0840
  500   3 Pt  78      -2.990000    4.710000   26.827998      10.0000    195.0840
  501   3 Pt  78      -0.160000    4.800000   26.837998      10.0000    195.0840
  502   3 Pt  78       4.070000    7.140000   26.957998      10.0000    195.0840
  503   3 Pt  78       7.060000    7.030000   26.937998      10.0000    195.0840
  504   3 Pt  78       9.860001    7.120000   26.897998      10.0000    195.0840
  505   3 Pt  78      -4.180000    7.050000   26.667998      10.0000    195.0840
[...]
 -                                                                             -
 -------------------------------------------------------------------------------
 COUNTER                                    TOTAL       BLAS       SMM       ACC
 flops     5 x    32 x     5           4045574400       0.0%    100.0%      0.0%
 flops    13 x    32 x     5           5168200960       0.0%    100.0%      0.0%
 flops     5 x    32 x    13           5168200960       0.0%    100.0%      0.0%
 flops    13 x    32 x    13           6072210560       0.0%    100.0%      0.0%
 flops     5 x     5 x    96           7868928000       0.0%    100.0%      0.0%
 flops    13 x    32 x    20           8791976960       0.0%    100.0%      0.0%
 flops    20 x    32 x    13           8791976960       0.0%    100.0%      0.0%
 flops     5 x    32 x    20           9325196800       0.0%    100.0%      0.0%
 flops    20 x    32 x     5           9325196800       0.0%    100.0%      0.0%
 flops    13 x     5 x    96           9996979200       0.0%    100.0%      0.0%
 flops     5 x    13 x    96          10008960000       0.0%    100.0%      0.0%
 flops    13 x    13 x    96          11883755520       0.0%    100.0%      0.0%
 flops    13 x    20 x    96          17008742400       0.0%    100.0%      0.0%
 flops    20 x    13 x    96          17024716800       0.0%    100.0%      0.0%
 flops     5 x    20 x    96          18043392000       0.0%    100.0%      0.0%
 flops    20 x     5 x    96          18054144000       0.0%    100.0%      0.0%
 flops     5 x     5 x   128          73443328000       0.0%    100.0%      0.0%
 flops    20 x    32 x    20          74052403200       0.0%    100.0%      0.0%
 flops    13 x     5 x   128          93305139200       0.0%    100.0%      0.0%
 flops     5 x    13 x   128          93416960000       0.0%    100.0%      0.0%
 flops    13 x    13 x   128         110915051520       0.0%    100.0%      0.0%
 flops    20 x    20 x    96         143990784000       0.0%    100.0%      0.0%
 flops    13 x    20 x   128         158748262400       0.0%    100.0%      0.0%
 flops    20 x    13 x   128         158897356800       0.0%    100.0%      0.0%
 flops     5 x    20 x   128         168404992000       0.0%    100.0%      0.0%
 flops    20 x     5 x   128         168505344000       0.0%    100.0%      0.0%
 flops    20 x    20 x   128        1343913984000       0.0%    100.0%      0.0%
 flops inhomo. stacks                           0       0.0%      0.0%      0.0%
 flops total                         2.754172E+12       0.0%    100.0%      0.0%
 flops max/rank                     24.756583E+09       0.0%    100.0%      0.0%
 matmuls inhomo. stacks                         0       0.0%      0.0%      0.0%
 matmuls total                           76801010       0.0%    100.0%      0.0%
 number of processed stacks                758342       0.0%    100.0%      0.0%
 average stack size                                     0.0     101.3       0.0
 marketing flops                     5.628976E+12
 -------------------------------------------------------------------------------
 # multiplications                             41
 max memory usage/rank               1.620967E+09
 # max total images/rank                        2
 # max 3D layers                                1
 # MPI messages exchanged                  152192
 MPI messages size (bytes):
  total size                        97.477091E+09
  min size                         288.768000E+03
  max size                           2.203968E+06
  average size                     640.487625E+03
 MPI breakdown and total messages size (bytes):
             size <=      128                   0                        0
       128 < size <=     8192                   0                        0
      8192 < size <=    32768                   0                        0
     32768 < size <=   131072                   0                        0
    131072 < size <=  4194304              152192              97477095352
   4194304 < size <= 16777216                   0                        0
  16777216 < size                               0                        0
 -------------------------------------------------------------------------------

 *** WARNING in dbcsr_mm.F:290 :: Using a non-square number of MPI ranks ***
 *** might lead to poor performance. Used ranks: 128 Suggested: 121 256  ***

 -------------------------------------------------------------------------------
 -                                                                             -
 -                      DBCSR MESSAGE PASSING PERFORMANCE                      -
 -                                                                             -
 -------------------------------------------------------------------------------
 ROUTINE             CALLS      AVE VOLUME [Bytes]
 MP_Bcast               28                     12.
 MP_Allreduce          354                     11.
 MP_Alltoall          1141                 583918.
 MP_ISend             2624                 302093.
 MP_IRecv             2624                 295639.
 -------------------------------------------------------------------------------

 -------------------------------------------------------------------------------
 -                                                                             -
 -                                DBM STATISTICS                               -
 -                                                                             -
 -------------------------------------------------------------------------------
    M  x    N  x    K                                          COUNT     PERCENT
 -------------------------------------------------------------------------------

 -------------------------------------------------------------------------------
 -                                                                             -
 -                                GRID STATISTICS                              -
 -                                                                             -
 -------------------------------------------------------------------------------
 LP    KERNEL             BACKEND                              COUNT     PERCENT
 4     collocate general  REF                               15891018      21.96%
 4     integrate general  REF                               15771138      21.79%
 3     collocate general  REF                               11215698      15.50%
 3     integrate general  REF                               11157405      15.42%
 2     collocate general  REF                                8942271      12.36%
 2     integrate general  REF                                8712982      12.04%
 5     integrate general  REF                                 407462       0.56%
 0     collocate general  REF                                 132864       0.18%
 0     integrate general  REF                                  66432       0.09%
 1     integrate general  REF                                  66432       0.09%
 -------------------------------------------------------------------------------

 MEMORY| Estimated peak process memory [MiB]                                1801

 -------------------------------------------------------------------------------
 ----                             MULTIGRID INFO                            ----
 -------------------------------------------------------------------------------
 count for grid        1:        1098456          cutoff [a.u.]          200.00
 count for grid        2:        1093604          cutoff [a.u.]           66.67
 count for grid        3:         719566          cutoff [a.u.]           22.22
 count for grid        4:         558066          cutoff [a.u.]            7.41
 total gridlevel count  :        3469692

 -------------------------------------------------------------------------------
 -                                                                             -
 -                         MESSAGE PASSING PERFORMANCE                         -
 -                                                                             -
 -------------------------------------------------------------------------------

 ROUTINE             CALLS      AVE VOLUME [Bytes]
 MP_Group                4
 MP_Bcast             2213                 305473.
 MP_Allreduce         3428                  31815.
 MP_Sync                84
 MP_Alltoall          2362               16197244.
 MP_SendRecv           508                   6279.
 MP_ISendRecv        19812                  61740.
 MP_Wait             35118
 MP_comm_split          40
 MP_ISend            14428                 256115.
 MP_IRecv            14428                 256115.
 MP_Recv               122                1700608.
 MP_Write_All            3                1797408.
 -------------------------------------------------------------------------------


 -------------------------------------------------------------------------------
 -                                                                             -
 -                           R E F E R E N C E S                               -
 -                                                                             -
 -------------------------------------------------------------------------------
 
 CP2K version 2022.1, the CP2K developers group (2022).
 CP2K is freely available from https://www.cp2k.org/ .

 Kuehne,Thomas D.; Iannuzzi,Marcella; Del Ben,Mauro;
 Rybkin,Vladimir V.; Seewald,Patrick; Stein,Frederick; Laino,Teodoro;
 Khaliullin,Rustam Z.; Schuett,Ole; Schiffmann,Florian; Golze,Dorothea;
 Wilhelm,Jan; Chulkov,Sergey; Bani-Hashemian,Mohammad Hossein;
 Weber,Valery; Borstnik,Urban; Taillefumier,Mathieu;
 Jakobovits,Alice Shoshana; Lazzaro,Alfio; Pabst,Hans; Mueller,Tiziano;
 Schade,Robert; Guidon,Manuel; Andermatt,Samuel; Holmberg,Nico;
 Schenter,Gregory K.; Hehn,Anna; Bussy,Augustin; Belleflamme,Fabian;
 Tabacchi,Gloria; Gloess,Andreas; Lass,Michael; Bethune,Iain;
 Mundy,Christopher J.; Plessl,Christian; Watkins,Matt;
 VandeVondele,Joost; Krack,Matthias; Hutter,Juerg. 
 The Journal of Chemical Physics, 152 (19), (2020). 
 CP2K: An electronic structure and molecular dynamics software package -
 Quickstep: Efficient and accurate electronic structure calculations.
 https://doi.org/10.1063/5.0007045

 Goerigk, Lars; Hansen, Andreas; Bauer, Christoph; Ehrlich, Stephan;
 Najibi, Asim; Grimme, Stefan. , 19 (48), (2017). 
 A look at the density functional theory zoo with the advanced GMTKN55 database
 for general main group thermochemistry, kinetics and noncovalent interactions.
 https://doi.org/10.1039/C7CP04913G

 Bani-Hashemian, MH; Bruck, S; Luisier, M; VandeVondele, J. 
 JOURNAL OF CHEMICAL PHYSICS, 144 (4), 044113 (2016). 
 A generalized Poisson solver for first-principles device simulations.
 https://doi.org/10.1063/1.4940796

 Schuett, Ole; Messmer, Peter; Hutter, Juerg; VandeVondele, Joost. 
 Electronic Structure Calculations on Graphics Processing Units, John
 Wiley & Sons, Ltd, 173-190 (2016). 
 GPU-Accelerated Sparse Matrix-Matrix Multiplication for
 Linear Scaling Density Functional Theory.
 https://doi.org/10.1002/9781118670712.ch8

 Heinecke, A; Henry, G; Hutchinson, M; Pabst, H. 
 Proceedings of Intl. Supercomputing Conference, 981-991 (2016). 
 LIBXSMM: Accelerating Small Matrix Multiplications
 by Runtime Code Generation.
 https://doi.org/10.1109/SC.2016.83

 Borstnik, U; VandeVondele, J; Weber, V; Hutter, J. 
 PARALLEL COMPUTING, 40 (5-6), 47-58 (2014). 
 Sparse matrix multiplication: The distributed block-compressed sparse
 row library.
 https://doi.org/10.1016/j.parco.2014.03.012

 Hutter, J; Iannuzzi, M; Schiffmann, F; VandeVondele, J. 
 WIREs Comput Mol Sci., 4 (1), 15-25 (2014). 
 CP2K: atomistic simulations of condensed matter systems.
 https://doi.org/10.1002/wcms.1159

 Marek, A; Blum, V; Johanni, R; Havu, V; Lang, B; Auckenthaler, T;
 Heinecke, A; Bungartz, H; Lederer, H. 
 Journal of Physics: Condensed Matter, 26 (21), (2014). 
 The ELPA library: scalable parallel eigenvalue solutions for
 electronic structure
 theory and computational science.
 https://doi.org/10.1088/0953-8984/26/21/213201

 Grimme, S; Ehrlich, S; Goerigk, L. 
 JOURNAL OF COMPUTATIONAL CHEMISTRY, 32, 1456 (2011). 
 Effect of the damping function in dispersion corrected density functional theory.
 https://doi.org/10.1002/jcc.21759

 Grimme, S; Antony, J; Ehrlich, S; Krieg, H. 
 JOURNAL OF CHEMICAL PHYSICS, 132 (15), 154104 (2010). 
 A consistent and accurate ab initio parametrization of density
 functional dispersion correction (DFT-D) for the 94 elements H-Pu.
 https://doi.org/10.1063/1.3382344

 VandeVondele, J; Hutter, J. 
 JOURNAL OF CHEMICAL PHYSICS, 127 (11), 114105 (2007). 
 Gaussian basis sets for accurate calculations on molecular systems in
 gas and condensed phases.
 https://doi.org/10.1063/1.2770708

 Krack, M. 
 THEORETICAL CHEMISTRY ACCOUNTS, 114 (1-3), 145-152 (2005). 
 Pseudopotentials for H to Kr optimized for gradient-corrected
 exchange-correlation functionals.
 https://doi.org/10.1007/s00214-005-0655-y

 VandeVondele, J; Krack, M; Mohamed, F; Parrinello, M; Chassaing, T;
 Hutter, J. COMPUTER PHYSICS COMMUNICATIONS, 167 (2), 103-128 (2005). 
 QUICKSTEP: Fast and accurate density functional calculations using a
 mixed Gaussian and plane waves approach.
 https://doi.org/10.1016/j.cpc.2004.12.014

 Frigo, M; Johnson, SG. 
 PROCEEDINGS OF THE IEEE, 93 (2), 216-231 (2005). 
 The design and implementation of FFTW3.
 https://doi.org/10.1109/JPROC.2004.840301

 Hartwigsen, C; Goedecker, S; Hutter, J. 
 PHYSICAL REVIEW B, 58 (7), 3641-3662 (1998). 
 Relativistic separable dual-space Gaussian pseudopotentials from H to Rn.
 https://doi.org/10.1103/PhysRevB.58.3641

 Lippert, G; Hutter, J; Parrinello, M. 
 MOLECULAR PHYSICS, 92 (3), 477-487 (1997). 
 A hybrid Gaussian and plane wave density functional scheme.
 https://doi.org/10.1080/002689797170220

 Perdew, JP; Burke, K; Ernzerhof, M. 
 PHYSICAL REVIEW LETTERS, 77 (18), 3865-3868 (1996). 
 Generalized gradient approximation made simple.
 https://doi.org/10.1103/PhysRevLett.77.3865

 Goedecker, S; Teter, M; Hutter, J. 
 PHYSICAL REVIEW B, 54 (3), 1703-1710 (1996). 
 Separable dual-space Gaussian pseudopotentials.
 https://doi.org/10.1103/PhysRevB.54.1703


 -------------------------------------------------------------------------------
 -                                                                             -
 -                                T I M I N G                                  -
 -                                                                             -
 -------------------------------------------------------------------------------
 SUBROUTINE                       CALLS  ASD         SELF TIME        TOTAL TIME
                                MAXIMUM       AVERAGE  MAXIMUM  AVERAGE  MAXIMUM
 CP2K                                 1  1.0    0.017    0.030  275.877  275.879
 qs_forces                            1  2.0    0.002    0.002  275.557  275.558
 qs_energies                          1  3.0    0.000    0.001  269.376  269.379
 scf_env_do_scf                       1  4.0    0.000    0.001  260.222  260.362
 scf_env_do_scf_inner_loop           38  5.0    0.002    0.005  260.219  260.358
 rebuild_ks_matrix                   39  6.9    0.000    0.000  140.198  140.229
 qs_ks_build_kohn_sham_matrix        39  7.9    0.006    0.007  140.198  140.229
 qs_ks_update_qs_env                 38  6.0    0.000    0.000  136.182  136.214
 pw_transfer                       2032 12.2    0.148    0.182   88.325   90.035
 fft_wrap_pw1pw2                   2032 13.2    0.019    0.024   88.177   89.874
 fft_wrap_pw1pw2_200               1798 14.4    5.972    7.081   86.956   88.633
 pw_poisson_solve                    39  8.9    0.004    0.011   75.689   75.746
 qs_scf_new_mos                      38  6.0    0.002    0.012   74.769   74.867
 fft3d_ps                          2032 15.2   25.621   28.705   70.869   73.334
 implicit_poisson_solver_mixed_      39  9.9    1.606    1.949   71.632   71.695
 eigensolver                         38  7.0    0.003    0.005   70.463   70.677
 derive_fft                         234 12.1    0.015    0.022   50.234   50.419
 cp_fm_diag_elpa                     40  8.1    0.000    0.001   49.665   49.784
 cp_fm_redistribute_end              40  9.1    6.574   49.206    6.651   49.248
 cp_fm_diag_elpa_base                40  9.0   41.957   48.124   42.362   48.556
 mp_alltoall_z22v                  2032 17.2   37.764   46.262   37.764   46.262
 qs_rho_update_rho_low               39  6.0    0.000    0.000   43.845   43.852
 calculate_rho_elec                  39  7.0    0.076    0.099   43.844   43.852
 apply_P_operator                   195 11.1    1.037    1.143   42.973   43.142
 sum_up_and_integrate                39  8.9    0.212    0.287   42.811   42.847
 integrate_v_rspace                  39  9.9    0.001    0.002   42.599   42.690
 grid_collocate_task_list            39  8.0   28.680   34.326   28.680   34.326
 grid_integrate_task_list            39 10.9   26.637   30.967   26.637   30.967
 x_to_yz                           1171 16.4    4.978    6.378   28.721   29.787
 rs_pw_transfer                     316 10.4    0.004    0.005   19.039   22.791
 cp_fm_triangular_multiply          114  8.0   22.228   22.465   22.228   22.465
 yz_to_x                            627 16.4    1.712    1.996   15.584   21.290
 qs_vxc_create                       39  8.9    0.001    0.002   19.434   19.680
 xc_vxc_pw_create                    39  9.9    0.333    0.409   19.433   19.679
 density_rs2pw                       39  8.0    0.002    0.003   14.235   17.818
 xc_pw_derive                       234 11.9    0.003    0.004   13.633   15.110
 apply_poisson_operator_fft          39 10.9    0.001    0.001   12.577   12.797
 mp_waitany                       14428 12.3    8.331   12.505    8.331   12.505
 rs_pw_transfer_RS2PW_200            41  9.9    2.575    2.967    8.262   12.023
 apply_inv_laplace_operator_fft     119 11.6    0.295    0.330   11.502   11.917
 potential_pw2rs                     39 10.9    0.012    0.013   11.120   11.205
 xc_pw_divergence                    39 10.9    0.002    0.002    9.247   10.354
 xc_rho_set_and_dset_create          39 10.9    0.193    0.225    9.429   10.029
 mp_alltoall_d11v                   568 10.3    5.999    9.799    5.999    9.799
 ps_implicit_compute_error_fft       78 10.9    0.491    0.595    8.422    9.022
 ps_implicit_compute_veps            39 10.9    0.226    0.269    8.526    8.673
 rs_gather_matrices                  39 10.9    0.046    0.061    4.830    8.505
 pw_scatter_p                      1288 15.4    7.219    8.389    7.219    8.389
 rs_pw_transfer_PW2RS_200            41 12.7    3.068    3.190    6.431    6.583
 gspace_mixing                       37  6.0    0.071    0.086    6.333    6.349
 pw_derive                          936 13.0    5.929    6.286    5.929    6.286
 scf_post_calculation_gpw             1  4.0    0.000    0.001    5.828    5.833
 write_available_results              1  5.0    0.000    0.000    5.827    5.833
 -------------------------------------------------------------------------------

 The number of warnings for this run is : 1
 
 -------------------------------------------------------------------------------
  **** **** ******  **  PROGRAM ENDED AT                 2023-12-03 09:16:16.286
 ***** ** ***  *** **   PROGRAM RAN ON                                     cu001
 **    ****   ******    PROGRAM RAN BY                                     jxzhu
 ***** **    ** ** **   PROGRAM PROCESS ID                                 22959
  **** **  *******  **  PROGRAM STOPPED IN /public/home/jxzhu/tmp_calc/883906eaf
                                           f52014f8832c3a1255a4e4f7cc55149/calc/
                                           003200.000/search_lo.000001
