 DBCSR| CPU Multiplication driver                                           XSMM
 DBCSR| Multrec recursion limit                                              512
 DBCSR| Multiplication stack size                                           1000
 DBCSR| Maximum elements for images                                    UNLIMITED
 DBCSR| Multiplicative factor virtual images                                   1
 DBCSR| Use multiplication densification                                       T
 DBCSR| Multiplication size stacks                                             3
 DBCSR| Use memory pool for CPU allocation                                     F
 DBCSR| Number of 3D layers                                               SINGLE
 DBCSR| Use MPI memory allocation                                              F
 DBCSR| Use RMA algorithm                                                      F
 DBCSR| Use Communication thread                                               T
 DBCSR| Communication thread load                                             87
 DBCSR| MPI: My node id                                                        0
 DBCSR| MPI: Number of nodes                                                 128
 DBCSR| OMP: Current number of threads                                         1
 DBCSR| OMP: Max number of threads                                             1
 DBCSR| Split modifier for TAS multiplication algorithm                  1.0E+00


  **** **** ******  **  PROGRAM STARTED AT               2023-12-01 22:45:38.622
 ***** ** ***  *** **   PROGRAM STARTED ON                                 cu039
 **    ****   ******    PROGRAM STARTED BY                                 jxzhu
 ***** **    ** ** **   PROGRAM PROCESS ID                                 62606
  **** **  *******  **  PROGRAM STARTED IN /public/home/jxzhu/tmp_calc/9ae3b0a45
                                           b35b5d31b2d51cd54a8538de7c0b444/calc/
                                           000200.000/search_lo.000000

 CP2K| version string:                                       CP2K version 2022.1
 CP2K| source code revision number:                                  git:2caeb6f
 CP2K| cp2kflags: omp libint fftw3 libxc elpa parallel mpi3 scalapack cosma xsmm
 CP2K|             plumed2 spglib mkl sirius libvori libbqb
 CP2K| is freely available from                            https://www.cp2k.org/
 CP2K| Program compiled at                           Mon Jul 3 17:37:06 CST 2023
 CP2K| Program compiled on                                                 mu003
 CP2K| Program compiled for                                                local
 CP2K| Data directory path                             /public/home/jxzhu/basis/
 CP2K| Input file name                                                 input.inp
 
 GLOBAL| Force Environment number                                              1
 GLOBAL| Basis set file name                                        BASIS_MOLOPT
 GLOBAL| Potential file name                                      GTH_POTENTIALS
 GLOBAL| MM Potential file name                                     MM_POTENTIAL
 GLOBAL| Coordinate file name                                          coord.xyz
 GLOBAL| Method name                                                        CP2K
 GLOBAL| Project name                                                       cp2k
 GLOBAL| Run type                                                   ENERGY_FORCE
 GLOBAL| FFT library                                                       FFTW3
 GLOBAL| Diagonalization library                                            ELPA
 GLOBAL| Minimum number of eigenvectors for ELPA usage                        16
 GLOBAL| Orthonormality check for eigenvectors                          DISABLED
 GLOBAL| Matrix multiplication library                                     COSMA
 GLOBAL| All-to-all communication in single precision                          F
 GLOBAL| FFTs using library dependent lengths                                  T
 GLOBAL| Grid backend                                                       AUTO
 GLOBAL| Global print level                                               MEDIUM
 GLOBAL| MPI I/O enabled                                                       T
 GLOBAL| Total number of message passing processes                           128
 GLOBAL| Number of threads for this process                                    1
 GLOBAL| This output is from process                                           0
 GLOBAL| Stack size for threads created by OpenMP (OMP_STACKSIZE)        default
 GLOBAL| CPU model name                 Intel(R) Xeon(R) Gold 6338 CPU @ 2.00GHz
 GLOBAL| CPUID                                                              1003

 MEMORY| system memory details [Kb]
 MEMORY|                        rank 0           min           max       average
 MEMORY| MemTotal            263619172     263619172     263619172     263619172
 MEMORY| MemFree             213678264     213678264     215231624     214454096
 MEMORY| Buffers                    44            44          3320          1682
 MEMORY| Cached                1093576       1093576       1104448       1099012
 MEMORY| Slab                  1516536       1416872       1516536       1466704
 MEMORY| SReclaimable           241656        241656        245272        243464
 MEMORY| MemLikelyFree       215013540     215013540     216584664     215798254


 *** Fundamental physical constants (SI units) ***

 *** Literature: B. J. Mohr and B. N. Taylor,
 ***             CODATA recommended values of the fundamental physical
 ***             constants: 2006, Web Version 5.1
 ***             http://physics.nist.gov/constants

 Speed of light in vacuum [m/s]                             2.99792458000000E+08
 Magnetic constant or permeability of vacuum [N/A**2]       1.25663706143592E-06
 Electric constant or permittivity of vacuum [F/m]          8.85418781762039E-12
 Planck constant (h) [J*s]                                  6.62606896000000E-34
 Planck constant (h-bar) [J*s]                              1.05457162825177E-34
 Elementary charge [C]                                      1.60217648700000E-19
 Electron mass [kg]                                         9.10938215000000E-31
 Electron g factor [ ]                                     -2.00231930436220E+00
 Proton mass [kg]                                           1.67262163700000E-27
 Fine-structure constant                                    7.29735253760000E-03
 Rydberg constant [1/m]                                     1.09737315685270E+07
 Avogadro constant [1/mol]                                  6.02214179000000E+23
 Boltzmann constant [J/K]                                   1.38065040000000E-23
 Atomic mass unit [kg]                                      1.66053878200000E-27
 Bohr radius [m]                                            5.29177208590000E-11

 *** Conversion factors ***

 [u] -> [a.u.]                                              1.82288848426455E+03
 [Angstrom] -> [Bohr] = [a.u.]                              1.88972613288564E+00
 [a.u.] = [Bohr] -> [Angstrom]                              5.29177208590000E-01
 [a.u.] -> [s]                                              2.41888432650478E-17
 [a.u.] -> [fs]                                             2.41888432650478E-02
 [a.u.] -> [J]                                              4.35974393937059E-18
 [a.u.] -> [N]                                              8.23872205491840E-08
 [a.u.] -> [K]                                              3.15774647902944E+05
 [a.u.] -> [kJ/mol]                                         2.62549961709828E+03
 [a.u.] -> [kcal/mol]                                       6.27509468713739E+02
 [a.u.] -> [Pa]                                             2.94210107994716E+13
 [a.u.] -> [bar]                                            2.94210107994716E+08
 [a.u.] -> [atm]                                            2.90362800883016E+08
 [a.u.] -> [eV]                                             2.72113838565563E+01
 [a.u.] -> [Hz]                                             6.57968392072181E+15
 [a.u.] -> [1/cm] (wave numbers)                            2.19474631370540E+05
 [a.u./Bohr**2] -> [1/cm]                                   5.14048714338585E+03
 

 CELL_TOP| Volume [angstrom^3]:                                     17614.982639
 CELL_TOP| Vector a [angstrom    16.869     0.000     0.000   |a| =    16.869000
 CELL_TOP| Vector b [angstrom    -8.434    14.609     0.000   |b| =    16.869015
 CELL_TOP| Vector c [angstrom     0.000     0.000    71.478   |c| =    71.478000
 CELL_TOP| Angle (b,c), alpha [degree]:                                90.000000
 CELL_TOP| Angle (a,c), beta  [degree]:                                90.000000
 CELL_TOP| Angle (a,b), gamma [degree]:                               119.999970
 CELL_TOP| Numerically orthorhombic:                                          NO
 
 GENERATE|  Preliminary Number of Bonds generated:                             0
 GENERATE|  Achieved consistency in connectivity generation.

 CELL| Volume [angstrom^3]:                                         17614.982639
 CELL| Vector a [angstrom]:      16.869     0.000     0.000   |a| =    16.869000
 CELL| Vector b [angstrom]:      -8.434    14.609     0.000   |b| =    16.869015
 CELL| Vector c [angstrom]:       0.000     0.000    71.478   |c| =    71.478000
 CELL| Angle (b,c), alpha [degree]:                                    90.000000
 CELL| Angle (a,c), beta  [degree]:                                    90.000000
 CELL| Angle (a,b), gamma [degree]:                                   119.999970
 CELL| Numerically orthorhombic:                                              NO

 CELL_REF| Volume [angstrom^3]:                                     17614.982639
 CELL_REF| Vector a [angstrom    16.869     0.000     0.000   |a| =    16.869000
 CELL_REF| Vector b [angstrom    -8.434    14.609     0.000   |b| =    16.869015
 CELL_REF| Vector c [angstrom     0.000     0.000    71.478   |c| =    71.478000
 CELL_REF| Angle (b,c), alpha [degree]:                                90.000000
 CELL_REF| Angle (a,c), beta  [degree]:                                90.000000
 CELL_REF| Angle (a,b), gamma [degree]:                               119.999970
 CELL_REF| Numerically orthorhombic:                                          NO

 *******************************************************************************
 *******************************************************************************
 **                                                                           **
 **     #####                         ##              ##                      **
 **    ##   ##            ##          ##              ##                      **
 **   ##     ##                       ##            ######                    **
 **   ##     ##  ##   ##  ##   #####  ##  ##   ####   ##    #####    #####    **
 **   ##     ##  ##   ##  ##  ##      ## ##   ##      ##   ##   ##  ##   ##   **
 **   ##  ## ##  ##   ##  ##  ##      ####     ###    ##   ######   ######    **
 **    ##  ###   ##   ##  ##  ##      ## ##      ##   ##   ##       ##        **
 **     #######   #####   ##   #####  ##  ##  ####    ##    #####   ##        **
 **           ##                                                    ##        **
 **                                                                           **
 **                                                ... make the atoms dance   **
 **                                                                           **
 **            Copyright (C) by CP2K developers group (2000-2022)             **
 **                      J. Chem. Phys. 152, 194103 (2020)                    **
 **                                                                           **
 *******************************************************************************

 DFT| Spin restricted Kohn-Sham (RKS) calculation                            RKS
 DFT| Multiplicity                                                             1
 DFT| Number of spin states                                                    1
 DFT| Charge                                                                   0
 DFT| Self-interaction correction (SIC)                                       NO
 DFT| Cutoffs: density                                              1.000000E-10
 DFT|          gradient                                             1.000000E-10
 DFT|          tau                                                  1.000000E-10
 DFT|          cutoff_smoothing_range                               0.000000E+00
 DFT| XC density smoothing                                                  NONE
 DFT| XC derivatives                                                          PW

 FUNCTIONAL| PBE:
 FUNCTIONAL| J.P.Perdew, K.Burke, M.Ernzerhof, Phys. Rev. Letter, vol. 77, n 18,
 FUNCTIONAL|  pp. 3865-3868, (1996){spin unpolarized}                           

 vdW POTENTIAL|                                                   Pair Potential
 vdW POTENTIAL|          DFT-D3 (Version 3.1)
 vdW POTENTIAL|          Potential Form: S. Grimme et al, JCP 132: 154104 (2010)
 vdW POTENTIAL|          Zero Damping
 vdW POTENTIAL|          Cutoff Radius [Bohr]:                             20.00
 vdW POTENTIAL|          s6 Scaling Factor:                               1.0000
 vdW POTENTIAL|          sr6 Scaling Factor:                              1.2170
 vdW POTENTIAL|          s8 Scaling Factor:                               0.7220
 vdW POTENTIAL|          Cutoff for CN calculation:                   0.1000E-05

 QS| Method:                                                                 GPW
 QS| Density plane wave grid type                        NON-SPHERICAL FULLSPACE
 QS| Number of grid levels:                                                    4
 QS| Density cutoff [a.u.]:                                                200.0
 QS| Multi grid cutoff [a.u.]: 1) grid level                               200.0
 QS|                           2) grid level                                66.7
 QS|                           3) grid level                                22.2
 QS|                           4) grid level                                 7.4
 QS| Grid level progression factor:                                          3.0
 QS| Relative density cutoff [a.u.]:                                        20.0
 QS| Interaction thresholds: eps_pgf_orb:                                3.2E-07
 QS|                         eps_filter_matrix:                          0.0E+00
 QS|                         eps_core_charge:                            1.0E-15
 QS|                         eps_rho_gspace:                             1.0E-13
 QS|                         eps_rho_rspace:                             1.0E-13
 QS|                         eps_gvg_rspace:                             3.2E-07
 QS|                         eps_ppl:                                    1.0E-02
 QS|                         eps_ppnl:                                   3.2E-09


 ATOMIC KIND INFORMATION

  1. Atomic kind: O                                     Number of atoms:      99

     Orbital Basis Set                                        DZVP-MOLOPT-SR-GTH

       Number of orbital shell sets:                                           1
       Number of orbital shells:                                               5
       Number of primitive Cartesian functions:                                5
       Number of Cartesian basis functions:                                   14
       Number of spherical basis functions:                                   13
       Norm type:                                                              2

       Normalised Cartesian orbitals:

                        Set   Shell   Orbital            Exponent    Coefficient

                          1       1    2s               10.389228       0.396646
                                                         3.849621       0.208811
                                                         1.388401      -0.301641
                                                         0.496955      -0.274061
                                                         0.162492      -0.033677

                          1       2    3s               10.389228       0.303673
                                                         3.849621       0.240943
                                                         1.388401      -0.313066
                                                         0.496955      -0.043055
                                                         0.162492       0.213991

                          1       3    3px              10.389228      -1.530415
                                                         3.849621      -1.371928
                                                         1.388401      -0.761951
                                                         0.496955      -0.253695
                                                         0.162492      -0.035541
                          1       3    3py              10.389228      -1.530415
                                                         3.849621      -1.371928
                                                         1.388401      -0.761951
                                                         0.496955      -0.253695
                                                         0.162492      -0.035541
                          1       3    3pz              10.389228      -1.530415
                                                         3.849621      -1.371928
                                                         1.388401      -0.761951
                                                         0.496955      -0.253695
                                                         0.162492      -0.035541

                          1       4    4px              10.389228      -0.565392
                                                         3.849621      -0.038231
                                                         1.388401      -0.382373
                                                         0.496955       0.179070
                                                         0.162492       0.122714
                          1       4    4py              10.389228      -0.565392
                                                         3.849621      -0.038231
                                                         1.388401      -0.382373
                                                         0.496955       0.179070
                                                         0.162492       0.122714
                          1       4    4pz              10.389228      -0.565392
                                                         3.849621      -0.038231
                                                         1.388401      -0.382373
                                                         0.496955       0.179070
                                                         0.162492       0.122714

                          1       5    4dx2             10.389228       1.867377
                                                         3.849621       0.670994
                                                         1.388401       1.353441
                                                         0.496955       0.273538
                                                         0.162492       0.006620
                          1       5    4dxy             10.389228       3.234392
                                                         3.849621       1.162195
                                                         1.388401       2.344229
                                                         0.496955       0.473781
                                                         0.162492       0.011466
                          1       5    4dxz             10.389228       3.234392
                                                         3.849621       1.162195
                                                         1.388401       2.344229
                                                         0.496955       0.473781
                                                         0.162492       0.011466
                          1       5    4dy2             10.389228       1.867377
                                                         3.849621       0.670994
                                                         1.388401       1.353441
                                                         0.496955       0.273538
                                                         0.162492       0.006620
                          1       5    4dyz             10.389228       3.234392
                                                         3.849621       1.162195
                                                         1.388401       2.344229
                                                         0.496955       0.473781
                                                         0.162492       0.011466
                          1       5    4dz2             10.389228       1.867377
                                                         3.849621       0.670994
                                                         1.388401       1.353441
                                                         0.496955       0.273538
                                                         0.162492       0.006620

       Atomic covalent radius [Angstrom]:                                  0.730

       Atomic van der Waals radius [Angstrom]:                             1.520

     GTH Potential information for                                    GTH-PBE-q6

       Description:                       Goedecker-Teter-Hutter pseudopotential
                                           Goedecker et al., PRB 54, 1703 (1996)
                                          Hartwigsen et al., PRB 58, 3641 (1998)
                                                      Krack, TCA 114, 145 (2005)

       Gaussian exponent of the core charge distribution:               8.360253
       Electronic configuration (s p d ...):                               2   4

       Parameters of the local part of the GTH pseudopotential:

                          rloc        C1          C2          C3          C4
                        0.244554  -16.667215    2.487311

       Parameters of the non-local part of the GTH pseudopotential:

                   l      r(l)      h(i,j,l)

                   0    0.220956   18.337458
                   1    0.211332

  2. Atomic kind: H                                     Number of atoms:     198

     Orbital Basis Set                                        DZVP-MOLOPT-SR-GTH

       Number of orbital shell sets:                                           1
       Number of orbital shells:                                               3
       Number of primitive Cartesian functions:                                5
       Number of Cartesian basis functions:                                    5
       Number of spherical basis functions:                                    5
       Norm type:                                                              2

       Normalised Cartesian orbitals:

                        Set   Shell   Orbital            Exponent    Coefficient

                          1       1    2s               10.068468      -0.133023
                                                         2.680223      -0.177618
                                                         0.791502      -0.258419
                                                         0.239116      -0.107525
                                                         0.082193      -0.014019

                          1       2    3s               10.068468       0.344673
                                                         2.680223       1.819821
                                                         0.791502      -0.999069
                                                         0.239116       0.017430
                                                         0.082193       0.082660

                          1       3    3px              10.068468       0.155326
                                                         2.680223       0.367157
                                                         0.791502       0.311480
                                                         0.239116       0.080105
                                                         0.082193       0.033440
                          1       3    3py              10.068468       0.155326
                                                         2.680223       0.367157
                                                         0.791502       0.311480
                                                         0.239116       0.080105
                                                         0.082193       0.033440
                          1       3    3pz              10.068468       0.155326
                                                         2.680223       0.367157
                                                         0.791502       0.311480
                                                         0.239116       0.080105
                                                         0.082193       0.033440

       Atomic covalent radius [Angstrom]:                                  0.320

       Atomic van der Waals radius [Angstrom]:                             1.090

     GTH Potential information for                                    GTH-PBE-q1

       Description:                       Goedecker-Teter-Hutter pseudopotential
                                           Goedecker et al., PRB 54, 1703 (1996)
                                          Hartwigsen et al., PRB 58, 3641 (1998)
                                                      Krack, TCA 114, 145 (2005)

       Gaussian exponent of the core charge distribution:              12.500000
       Electronic configuration (s p d ...):                                   1

       Parameters of the local part of the GTH pseudopotential:

                          rloc        C1          C2          C3          C4
                        0.200000   -4.178900    0.724463

  3. Atomic kind: Pt                                    Number of atoms:     216

     Orbital Basis Set                      DZVP-A5-Q10-323-MOL-T1-DERIVED_SET-1

       Number of orbital shell sets:                                           1
       Number of orbital shells:                                               6
       Number of primitive Cartesian functions:                                5
       Number of Cartesian basis functions:                                   23
       Number of spherical basis functions:                                   20
       Norm type:                                                              2

       Normalised Cartesian orbitals:

                        Set   Shell   Orbital            Exponent    Coefficient

                          1       1    2s                2.521825       0.177473
                                                         1.453920      -0.063399
                                                         0.614053      -0.407089
                                                         0.232656       0.262254
                                                         0.074788       0.047371

                          1       2    3s                2.521825      -0.049056
                                                         1.453920       0.044904
                                                         0.614053      -0.009756
                                                         0.232656      -0.144709
                                                         0.074788       0.144085

                          1       3    3px               2.521825      -0.317572
                                                         1.453920       0.534826
                                                         0.614053      -0.489458
                                                         0.232656       0.245631
                                                         0.074788       0.018221
                          1       3    3py               2.521825      -0.317572
                                                         1.453920       0.534826
                                                         0.614053      -0.489458
                                                         0.232656       0.245631
                                                         0.074788       0.018221
                          1       3    3pz               2.521825      -0.317572
                                                         1.453920       0.534826
                                                         0.614053      -0.489458
                                                         0.232656       0.245631
                                                         0.074788       0.018221

                          1       4    4dx2              2.521825       3.008522
                                                         1.453920      -1.224251
                                                         0.614053       0.225691
                                                         0.232656       0.125144
                                                         0.074788      -0.015348
                          1       4    4dxy              2.521825       5.210912
                                                         1.453920      -2.120465
                                                         0.614053       0.390909
                                                         0.232656       0.216756
                                                         0.074788      -0.026584
                          1       4    4dxz              2.521825       5.210912
                                                         1.453920      -2.120465
                                                         0.614053       0.390909
                                                         0.232656       0.216756
                                                         0.074788      -0.026584
                          1       4    4dy2              2.521825       3.008522
                                                         1.453920      -1.224251
                                                         0.614053       0.225691
                                                         0.232656       0.125144
                                                         0.074788      -0.015348
                          1       4    4dyz              2.521825       5.210912
                                                         1.453920      -2.120465
                                                         0.614053       0.390909
                                                         0.232656       0.216756
                                                         0.074788      -0.026584
                          1       4    4dz2              2.521825       3.008522
                                                         1.453920      -1.224251
                                                         0.614053       0.225691
                                                         0.232656       0.125144
                                                         0.074788      -0.015348

                          1       5    5dx2              2.521825       0.698026
                                                         1.453920      -1.511486
                                                         0.614053      -0.335394
                                                         0.232656      -0.025564
                                                         0.074788      -0.002699
                          1       5    5dxy              2.521825       1.209017
                                                         1.453920      -2.617970
                                                         0.614053      -0.580920
                                                         0.232656      -0.044277
                                                         0.074788      -0.004674
                          1       5    5dxz              2.521825       1.209017
                                                         1.453920      -2.617970
                                                         0.614053      -0.580920
                                                         0.232656      -0.044277
                                                         0.074788      -0.004674
                          1       5    5dy2              2.521825       0.698026
                                                         1.453920      -1.511486
                                                         0.614053      -0.335394
                                                         0.232656      -0.025564
                                                         0.074788      -0.002699
                          1       5    5dyz              2.521825       1.209017
                                                         1.453920      -2.617970
                                                         0.614053      -0.580920
                                                         0.232656      -0.044277
                                                         0.074788      -0.004674
                          1       5    5dz2              2.521825       0.698026
                                                         1.453920      -1.511486
                                                         0.614053      -0.335394
                                                         0.232656      -0.025564
                                                         0.074788      -0.002699

                          1       6    6dx2              2.521825       0.831079
                                                         1.453920      -0.709226
                                                         0.614053      -0.137351
                                                         0.232656       0.068642
                                                         0.074788       0.011745
                          1       6    6dxy              2.521825       1.439472
                                                         1.453920      -1.228415
                                                         0.614053      -0.237899
                                                         0.232656       0.118891
                                                         0.074788       0.020343
                          1       6    6dxz              2.521825       1.439472
                                                         1.453920      -1.228415
                                                         0.614053      -0.237899
                                                         0.232656       0.118891
                                                         0.074788       0.020343
                          1       6    6dy2              2.521825       0.831079
                                                         1.453920      -0.709226
                                                         0.614053      -0.137351
                                                         0.232656       0.068642
                                                         0.074788       0.011745
                          1       6    6dyz              2.521825       1.439472
                                                         1.453920      -1.228415
                                                         0.614053      -0.237899
                                                         0.232656       0.118891
                                                         0.074788       0.020343
                          1       6    6dz2              2.521825       0.831079
                                                         1.453920      -0.709226
                                                         0.614053      -0.137351
                                                         0.232656       0.068642
                                                         0.074788       0.011745

       Atomic covalent radius [Angstrom]:                                  1.300

       Atomic van der Waals radius [Angstrom]:                             1.750

     GTH Potential information for                                   GTH-PBE-q10

       Description:                       Goedecker-Teter-Hutter pseudopotential
                                           Goedecker et al., PRB 54, 1703 (1996)
                                          Hartwigsen et al., PRB 58, 3641 (1998)
                                                      Krack, TCA 114, 145 (2005)

       Gaussian exponent of the core charge distribution:               1.317676
       Electronic configuration (s p d ...):                           1   0   9

       Parameters of the local part of the GTH pseudopotential:

                          rloc        C1          C2          C3          C4
                        0.616000   11.313635

       Parameters of the non-local part of the GTH pseudopotential:

                   l      r(l)      h(i,j,l)

                   0    0.550904    4.733491   -1.784594
                                   -1.784594    2.303901
                   1    0.674138    2.534798   -1.778066
                                   -1.778066    2.103836
                   2    0.457392   -7.264011    2.558665
                                    2.558665   -2.901253


 MOLECULE KIND INFORMATION


 All atoms are their own molecule, skipping detailed information


 TOTAL NUMBERS AND MAXIMUM NUMBERS

  Total number of            - Atomic kinds:                                   3
                             - Atoms:                                        513
                             - Shell sets:                                   513
                             - Shells:                                      2385
                             - Primitive Cartesian functions:               2565
                             - Cartesian basis functions:                   7344
                             - Spherical basis functions:                   6597

  Maximum angular momentum of- Orbital basis functions:                        2
                             - Local part of the GTH pseudopotential:          2
                             - Non-local part of the GTH pseudopotential:      4


 MODULE QUICKSTEP:  ATOMIC COORDINATES IN angstrom

 Atom  Kind  Element       X           Y           Z          Z(eff)       Mass
    1   1 O    8       2.750000    3.490000   32.858001       6.0000     15.9994
    2   2 H    1       3.090000    3.210000   31.988000       1.0000      1.0079
    3   2 H    1       3.290000    3.010000   33.468001       1.0000      1.0079
    4   1 O    8       9.070001   -2.380000   32.218001       6.0000     15.9994
    5   2 H    1       9.600000   -2.090000   31.428001       1.0000      1.0079
    6   2 H    1       8.880001   -1.580000   32.787999       1.0000      1.0079
    7   1 O    8      -1.180000   12.070000   29.098001       6.0000     15.9994
    8   2 H    1      -0.900000   11.200000   29.498000       1.0000      1.0079
    9   2 H    1      -2.140000   12.210001   29.278000       1.0000      1.0079
   10   1 O    8       2.360000   12.670001   29.948000       6.0000     15.9994
   11   2 H    1       2.350000   12.350000   29.038000       1.0000      1.0079
   12   2 H    1       2.930000   13.440001   29.818000       1.0000      1.0079
   13   1 O    8       8.050001   14.540001   36.898000       6.0000     15.9994
   14   2 H    1       9.020000   14.570000   36.638000       1.0000      1.0079
   15   2 H    1      16.230000    0.830000   36.518000       1.0000      1.0079
   16   1 O    8       7.830000    2.700000   36.338001       6.0000     15.9994
   17   2 H    1       8.010000    3.700000   36.558001       1.0000      1.0079
   18   2 H    1       8.630000    2.100000   36.378001       1.0000      1.0079
   19   1 O    8       7.620000   19.410002   29.908000       6.0000     15.9994
   20   2 H    1       7.660000   20.190001   30.508000       1.0000      1.0079
   21   2 H    1       7.820001   19.800001   29.018000       1.0000      1.0079
   22   1 O    8       9.270000    5.960000   39.338001       6.0000     15.9994
   23   2 H    1      10.050000    5.350000   39.328000       1.0000      1.0079
   24   2 H    1       8.900001    5.720000   40.208001       1.0000      1.0079
   25   1 O    8       2.660000   -8.950001   31.878001       6.0000     15.9994
   26   2 H    1       3.560000   -9.000000   32.278000       1.0000      1.0079
   27   2 H    1      19.750002   -9.070001   30.948000       1.0000      1.0079
   28   1 O    8      14.510001   -0.900000   30.078000       6.0000     15.9994
   29   2 H    1       5.780000   12.810000   30.118000       1.0000      1.0079
   30   2 H    1      13.660001   -0.330000   30.108000       1.0000      1.0079
   31   1 O    8       5.940001    0.770000   32.368000       6.0000     15.9994
   32   2 H    1       5.720000    1.470000   33.037999       1.0000      1.0079
   33   2 H    1       6.830000    0.420000   32.718000       1.0000      1.0079
   34   1 O    8      -5.660000   11.400002   35.287999       6.0000     15.9994
   35   2 H    1      -5.910000   10.490000   34.868000       1.0000      1.0079
   36   2 H    1      -4.700000   11.430000   35.038000       1.0000      1.0079
   37   1 O    8       6.980000    1.540000   38.848001       6.0000     15.9994
   38   2 H    1      -9.270000    1.560000   39.588001       1.0000      1.0079
   39   2 H    1       7.290000    2.080000   38.068000       1.0000      1.0079
   40   1 O    8       5.890000   10.790000   30.198000       6.0000     15.9994
   41   2 H    1       5.020000   10.630001   30.678001       1.0000      1.0079
   42   2 H    1       5.610001   10.630001   29.238000       1.0000      1.0079
   43   1 O    8       0.830000   -1.830000   32.928001       6.0000     15.9994
   44   2 H    1       0.560000   -1.920000   33.878001       1.0000      1.0079
   45   2 H    1       0.230000   -1.040000   32.568000       1.0000      1.0079
   46   1 O    8      -6.280000    8.780001   39.148000       6.0000     15.9994
   47   2 H    1      -6.750000    8.100000   38.648000       1.0000      1.0079
   48   2 H    1      -5.330000    8.430000   39.148000       1.0000      1.0079
   49   1 O    8      11.980001    5.180000   29.378001       6.0000     15.9994
   50   2 H    1      12.720001    4.530000   29.578000       1.0000      1.0079
   51   2 H    1      12.430000    6.010000   29.128000       1.0000      1.0079
   52   1 O    8      -3.210000    5.430000   32.898000       6.0000     15.9994
   53   2 H    1      -2.570000    5.780000   32.278000       1.0000      1.0079
   54   2 H    1      -3.110000    4.480000   32.938000       1.0000      1.0079
   55   1 O    8       3.960000   10.430001   31.968000       6.0000     15.9994
   56   2 H    1       3.050000   10.160000   31.738000       1.0000      1.0079
   57   2 H    1       4.360000    9.600000   32.378000       1.0000      1.0079
   58   1 O    8       9.960001   -1.700000   36.658000       6.0000     15.9994
   59   2 H    1       9.000000   -1.830000   36.298001       1.0000      1.0079
   60   2 H    1       1.830000   13.820001   36.448000       1.0000      1.0079
   61   1 O    8       6.380000    8.050001   30.708000       6.0000     15.9994
   62   2 H    1       7.340000    7.810000   30.748000       1.0000      1.0079
   63   2 H    1       6.360001    9.020000   30.498000       1.0000      1.0079
   64   1 O    8      -8.560000   17.050001   33.248000       6.0000     15.9994
   65   2 H    1       8.250000   16.290001   32.618000       1.0000      1.0079
   66   2 H    1      -7.670000   17.390001   33.068000       1.0000      1.0079
   67   1 O    8      -6.670001    1.040000   36.508001       6.0000     15.9994
   68   2 H    1      -6.350000    0.970000   37.478000       1.0000      1.0079
   69   2 H    1      -5.920000    1.560000   36.028000       1.0000      1.0079
   70   1 O    8       1.370000    9.950001   33.568000       6.0000     15.9994
   71   2 H    1       1.520000   10.210000   34.508001       1.0000      1.0079
   72   2 H    1       1.010000   10.730000   33.188001       1.0000      1.0079
   73   1 O    8       3.970000   -1.060000   33.138001       6.0000     15.9994
   74   2 H    1       4.520000   -0.480000   32.538000       1.0000      1.0079
   75   2 H    1       3.160000   -1.310000   32.728001       1.0000      1.0079
   76   1 O    8       7.800000    5.290000   37.108001       6.0000     15.9994
   77   2 H    1       8.190001    5.460000   37.968000       1.0000      1.0079
   78   2 H    1       6.860001    5.450000   37.208000       1.0000      1.0079
   79   1 O    8       1.510000   16.590000   30.198000       6.0000     15.9994
   80   2 H    1       1.240000   16.520000   31.118000       1.0000      1.0079
   81   2 H    1       1.330000   17.560001   29.948000       1.0000      1.0079
   82   1 O    8       4.960000    5.100000   37.138000       6.0000     15.9994
   83   2 H    1       4.900000    5.250000   36.208000       1.0000      1.0079
   84   2 H    1       4.340000    5.770000   37.428001       1.0000      1.0079
   85   1 O    8      -8.960000   14.860001   39.688001       6.0000     15.9994
   86   2 H    1      -9.500000   14.110001   40.058002       1.0000      1.0079
   87   2 H    1      -8.890000   14.710001   38.668001       1.0000      1.0079
   88   1 O    8      -4.440001    1.720000   34.868000       6.0000     15.9994
   89   2 H    1      -3.780000    2.100000   34.208000       1.0000      1.0079
   90   2 H    1      -4.000000    0.900000   35.088001       1.0000      1.0079
   91   1 O    8      14.050001    2.860000   33.008001       6.0000     15.9994
   92   2 H    1       6.510000   17.540001   33.378000       1.0000      1.0079
   93   2 H    1      14.140000    2.400000   32.138001       1.0000      1.0079
   94   1 O    8       5.720000    2.730000   34.518001       6.0000     15.9994
   95   2 H    1       6.530001    2.440000   35.038000       1.0000      1.0079
   96   2 H    1       5.810000    3.660000   34.228000       1.0000      1.0079
   97   1 O    8      -5.500000   14.360001   29.858000       6.0000     15.9994
   98   2 H    1      -5.310000   15.090000   29.228000       1.0000      1.0079
   99   2 H    1      10.400001   14.250001   29.678000       1.0000      1.0079
  100   1 O    8       2.960000    6.460000   32.708000       6.0000     15.9994
  101   2 H    1       3.090000    5.500000   32.948000       1.0000      1.0079
  102   2 H    1       3.840000    6.900001   32.838000       1.0000      1.0079
  103   1 O    8       7.430000   -1.590000   35.888001       6.0000     15.9994
  104   2 H    1       7.050000   -1.190000   36.768000       1.0000      1.0079
  105   2 H    1       6.600000   -1.950000   35.368000       1.0000      1.0079
  106   1 O    8      -2.710000   16.390001   29.958000       6.0000     15.9994
  107   2 H    1      -2.760000   15.820000   30.788000       1.0000      1.0079
  108   2 H    1      -2.070000   15.930000   29.328000       1.0000      1.0079
  109   1 O    8       2.760000   15.540000   38.988000       6.0000     15.9994
  110   2 H    1       1.970000   15.640001   39.588001       1.0000      1.0079
  111   2 H    1       2.910000   14.540001   38.958001       1.0000      1.0079
  112   1 O    8      -9.040001   -6.300001   33.708000       6.0000     15.9994
  113   2 H    1      -8.700001   -6.880000   34.448000       1.0000      1.0079
  114   2 H    1       0.060000    9.050000   33.398000       1.0000      1.0079
  115   1 O    8       3.510000   -8.730000   36.288000       6.0000     15.9994
  116   2 H    1      -4.120000    6.120000   35.758001       1.0000      1.0079
  117   2 H    1       2.880000   -7.970000   36.078000       1.0000      1.0079
  118   1 O    8      -1.040000   -2.540000   35.808000       6.0000     15.9994
  119   2 H    1      -0.830000   -1.880000   36.518000       1.0000      1.0079
  120   2 H    1      -1.980000   -2.680000   36.098001       1.0000      1.0079
  121   1 O    8       4.470000    6.450000   29.328000       6.0000     15.9994
  122   2 H    1       5.050000    7.200000   29.628000       1.0000      1.0079
  123   2 H    1       3.540000    6.600000   29.678000       1.0000      1.0079
  124   1 O    8      -3.840000   12.260000   29.908000       6.0000     15.9994
  125   2 H    1      -4.370000   11.500001   30.247999       1.0000      1.0079
  126   2 H    1      -4.440001   12.980001   29.858000       1.0000      1.0079
  127   1 O    8       8.060000    0.130000   29.508000       6.0000     15.9994
  128   2 H    1       8.650001   -0.650000   29.588000       1.0000      1.0079
  129   2 H    1       8.690001    0.880000   29.538000       1.0000      1.0079
  130   1 O    8       1.810000   10.240001   36.328000       6.0000     15.9994
  131   2 H    1       2.280000    9.550000   36.918001       1.0000      1.0079
  132   2 H    1       1.960000   11.120001   36.718000       1.0000      1.0079
  133   1 O    8      -0.470000    2.540000   35.988000       6.0000     15.9994
  134   2 H    1      -0.320000    2.620000   35.028001       1.0000      1.0079
  135   2 H    1       0.280000    3.070000   36.338001       1.0000      1.0079
  136   1 O    8      -4.880000   16.690001   35.868001       6.0000     15.9994
  137   2 H    1      -4.510000   16.680000   36.828000       1.0000      1.0079
  138   2 H    1      -4.110000   16.760002   35.298001       1.0000      1.0079
  139   1 O    8       8.360001   14.710001   29.058000       6.0000     15.9994
  140   2 H    1       8.500000   15.670000   29.468001       1.0000      1.0079
  141   2 H    1       7.500000   14.330001   29.318000       1.0000      1.0079
  142   1 O    8      16.960001   10.640000   39.398000       6.0000     15.9994
  143   2 H    1      16.690001   10.210000   38.508001       1.0000      1.0079
  144   2 H    1      16.220001   10.450001   40.078000       1.0000      1.0079
  145   1 O    8      11.610001    4.640000   39.478000       6.0000     15.9994
  146   2 H    1      11.780001    4.230000   38.608001       1.0000      1.0079
  147   2 H    1      11.890000    4.070000   40.248000       1.0000      1.0079
  148   1 O    8       6.940000    7.690001   35.418001       6.0000     15.9994
  149   2 H    1       7.560000    8.590000   35.048001       1.0000      1.0079
  150   2 H    1       7.590001    7.090001   35.828000       1.0000      1.0079
  151   1 O    8       4.670000   11.540001   36.628001       6.0000     15.9994
  152   2 H    1       4.550000   10.550001   36.708000       1.0000      1.0079
  153   2 H    1       4.030000   11.860001   35.968001       1.0000      1.0079
  154   1 O    8       5.320000    8.030001   32.978000       6.0000     15.9994
  155   2 H    1       5.960000    7.700000   33.658000       1.0000      1.0079
  156   2 H    1       5.830000    7.860000   32.168001       1.0000      1.0079
  157   1 O    8      -4.320000    3.390000   37.248000       6.0000     15.9994
  158   2 H    1      -4.200000    2.980000   36.358000       1.0000      1.0079
  159   2 H    1      -4.580000    4.270000   36.898000       1.0000      1.0079
  160   1 O    8       0.000000    5.380001   38.608001       6.0000     15.9994
  161   2 H    1       0.530000    6.090000   39.108001       1.0000      1.0079
  162   2 H    1      -0.450000    4.860000   39.328000       1.0000      1.0079
  163   1 O    8       2.290000   -0.540000   36.378001       6.0000     15.9994
  164   2 H    1       2.960000    0.120000   36.078000       1.0000      1.0079
  165   2 H    1       2.460000   -1.280000   35.748000       1.0000      1.0079
  166   1 O    8      -2.060000    5.440001   35.438000       6.0000     15.9994
  167   2 H    1      -1.390000    4.720000   35.588001       1.0000      1.0079
  168   2 H    1      -2.200000    5.410000   34.468000       1.0000      1.0079
  169   1 O    8       2.150000    6.860001   30.168001       6.0000     15.9994
  170   2 H    1       1.630000    6.210001   29.728000       1.0000      1.0079
  171   2 H    1       2.170000    6.740000   31.148000       1.0000      1.0079
  172   1 O    8       9.200000   10.250001   29.948000       6.0000     15.9994
  173   2 H    1       8.860001   10.440001   29.038000       1.0000      1.0079
  174   2 H    1       8.550000   10.540000   30.638000       1.0000      1.0079
  175   1 O    8       9.170000    7.290000   30.088001       6.0000     15.9994
  176   2 H    1      10.000000    7.260000   30.588001       1.0000      1.0079
  177   2 H    1       9.270000    8.030001   29.478000       1.0000      1.0079
  178   1 O    8      15.530001    6.890000   31.478001       6.0000     15.9994
  179   2 H    1      14.880000    7.290000   30.908000       1.0000      1.0079
  180   2 H    1      15.690001    7.440000   32.258001       1.0000      1.0079
  181   1 O    8      -2.060000    2.650000   39.588001       6.0000     15.9994
  182   2 H    1      -2.510000    2.900000   38.787999       1.0000      1.0079
  183   2 H    1      -1.380000    1.970000   39.318000       1.0000      1.0079
  184   1 O    8      -9.710001   14.630001   32.338001       6.0000     15.9994
  185   2 H    1     -10.400001   14.450001   33.018000       1.0000      1.0079
  186   2 H    1     -10.250001   14.510001   31.488000       1.0000      1.0079
  187   1 O    8      12.470001   16.770000   38.518001       6.0000     15.9994
  188   2 H    1      12.240001   15.960001   39.208001       1.0000      1.0079
  189   2 H    1      13.460001   16.820000   38.598001       1.0000      1.0079
  190   1 O    8      13.590001    3.340000   30.208000       6.0000     15.9994
  191   2 H    1      14.520000    3.760000   30.388000       1.0000      1.0079
  192   2 H    1      13.790001    2.990000   29.328000       1.0000      1.0079
  193   1 O    8      -6.840000    1.530000   33.218000       6.0000     15.9994
  194   2 H    1      -6.050000    1.410000   33.788000       1.0000      1.0079
  195   2 H    1      -7.140000    2.490000   33.268000       1.0000      1.0079
  196   1 O    8      -0.520000    9.700001   30.278000       6.0000     15.9994
  197   2 H    1      -1.080000   10.050000   30.998000       1.0000      1.0079
  198   2 H    1      15.910001    8.880001   29.858000       1.0000      1.0079
  199   1 O    8       8.700001    4.560000   29.238000       6.0000     15.9994
  200   2 H    1       8.910000    5.480001   29.428001       1.0000      1.0079
  201   2 H    1       7.740001    4.420000   29.488000       1.0000      1.0079
  202   1 O    8      14.920001    7.030000   37.558000       6.0000     15.9994
  203   2 H    1      15.600000    6.420000   38.028001       1.0000      1.0079
  204   2 H    1      14.740001    6.620001   36.648000       1.0000      1.0079
  205   1 O    8      11.620001    8.500000   33.298000       6.0000     15.9994
  206   2 H    1      12.560000    8.540000   33.728000       1.0000      1.0079
  207   2 H    1      11.670000    7.600000   32.898000       1.0000      1.0079
  208   1 O    8       9.470000    4.250000   33.298000       6.0000     15.9994
  209   2 H    1       9.640000    4.480000   34.198000       1.0000      1.0079
  210   2 H    1      10.150002    4.780000   32.738000       1.0000      1.0079
  211   1 O    8       6.570000   -3.320000   31.988000       6.0000     15.9994
  212   2 H    1       5.820000   -2.870000   31.558000       1.0000      1.0079
  213   2 H    1       7.270000   -2.660000   31.908000       1.0000      1.0079
  214   1 O    8       1.440000    6.730001   35.498000       6.0000     15.9994
  215   2 H    1       1.810000    6.770000   34.558000       1.0000      1.0079
  216   2 H    1       1.370000    5.750000   35.588001       1.0000      1.0079
  217   1 O    8      -2.700000   -0.450000   34.728000       6.0000     15.9994
  218   2 H    1      -3.440000   -1.140000   34.508001       1.0000      1.0079
  219   2 H    1      -2.060000   -1.000000   35.238000       1.0000      1.0079
  220   1 O    8       3.350000    3.030000   30.128001       6.0000     15.9994
  221   2 H    1       3.250000    3.650000   29.348000       1.0000      1.0079
  222   2 H    1       4.030000    2.390000   29.888000       1.0000      1.0079
  223   1 O    8       3.800000   -1.860000   38.988000       6.0000     15.9994
  224   2 H    1       4.240000   -1.420000   38.248000       1.0000      1.0079
  225   2 H    1       3.070000   -2.250000   38.538001       1.0000      1.0079
  226   1 O    8       1.740000    4.170000   36.388000       6.0000     15.9994
  227   2 H    1       2.630000    3.710000   36.178001       1.0000      1.0079
  228   2 H    1       1.910000    4.510000   37.277999       1.0000      1.0079
  229   1 O    8       0.540000    2.470000   30.158000       6.0000     15.9994
  230   2 H    1       1.460000    2.750000   30.198000       1.0000      1.0079
  231   2 H    1       0.160000    3.360000   30.148000       1.0000      1.0079
  232   1 O    8      10.410000   11.210001   37.787999       6.0000     15.9994
  233   2 H    1      10.660001   11.270000   36.838001       1.0000      1.0079
  234   2 H    1      10.630001   10.310000   38.148000       1.0000      1.0079
  235   1 O    8       6.250000    4.390000   29.928001       6.0000     15.9994
  236   2 H    1       5.460000    4.950000   29.538000       1.0000      1.0079
  237   2 H    1       5.950000    3.470000   29.968000       1.0000      1.0079
  238   1 O    8       5.460000   23.520000   34.697999       6.0000     15.9994
  239   2 H    1       6.360001   23.120001   34.358001       1.0000      1.0079
  240   2 H    1       5.850000   24.120003   35.328000       1.0000      1.0079
  241   1 O    8      11.630001    9.800000   30.758001       6.0000     15.9994
  242   2 H    1      11.560000    9.520000   31.708000       1.0000      1.0079
  243   2 H    1      10.710001    9.680000   30.408000       1.0000      1.0079
  244   1 O    8       8.140000   -0.390000   33.558000       6.0000     15.9994
  245   2 H    1       0.380000   14.960001   33.458000       1.0000      1.0079
  246   2 H    1       8.040000   -0.540000   34.548000       1.0000      1.0079
  247   1 O    8       3.570000   12.490001   33.938000       6.0000     15.9994
  248   2 H    1       3.880000   11.750001   33.328000       1.0000      1.0079
  249   2 H    1       2.560000   12.570001   33.798001       1.0000      1.0079
  250   1 O    8     -12.550001   -7.380000   39.228000       6.0000     15.9994
  251   2 H    1     -11.790000   -7.460001   38.568000       1.0000      1.0079
  252   2 H    1     -12.870001   -8.290001   39.218000       1.0000      1.0079
  253   1 O    8       3.730000   15.170001   30.098000       6.0000     15.9994
  254   2 H    1       2.990000   15.670000   30.438000       1.0000      1.0079
  255   2 H    1       3.630000   15.190001   29.078000       1.0000      1.0079
  256   1 O    8      -6.560000    8.140000   35.848000       6.0000     15.9994
  257   2 H    1      -7.470000    8.370000   35.608001       1.0000      1.0079
  258   2 H    1      -6.010000    8.260000   35.048001       1.0000      1.0079
  259   1 O    8       6.680000    4.990000   32.988000       6.0000     15.9994
  260   2 H    1       6.470000    4.900000   32.058000       1.0000      1.0079
  261   2 H    1       7.640000    4.880000   33.058001       1.0000      1.0079
  262   1 O    8       5.290000    9.070001   37.158000       6.0000     15.9994
  263   2 H    1      14.210001   -5.590000   38.098001       1.0000      1.0079
  264   2 H    1       5.950000    8.590000   36.568000       1.0000      1.0079
  265   1 O    8       5.370000   -2.590000   34.458000       6.0000     15.9994
  266   2 H    1       5.850000   -3.190000   33.858000       1.0000      1.0079
  267   2 H    1       4.880000   -2.010000   33.708000       1.0000      1.0079
  268   1 O    8      -3.580000   10.000000   38.828000       6.0000     15.9994
  269   2 H    1      -2.890000    9.990001   38.098001       1.0000      1.0079
  270   2 H    1      -3.860000   10.980000   39.008001       1.0000      1.0079
  271   1 O    8       6.210001   -0.970000   38.138000       6.0000     15.9994
  272   2 H    1       6.450000   -1.420000   38.968000       1.0000      1.0079
  273   2 H    1       6.430000    0.030000   38.308000       1.0000      1.0079
  274   1 O    8      -2.440000   -5.760000   39.628000       6.0000     15.9994
  275   2 H    1      -1.490000   -5.740000   40.028001       1.0000      1.0079
  276   2 H    1      -2.680000   -6.730001   39.788001       1.0000      1.0079
  277   1 O    8       2.280000    9.480001   29.478000       6.0000     15.9994
  278   2 H    1       1.390000    9.850000   29.598000       1.0000      1.0079
  279   2 H    1       2.120000    8.510000   29.638000       1.0000      1.0079
  280   1 O    8      -8.670000    9.820001   34.678000       6.0000     15.9994
  281   2 H    1       7.850000   10.559999   35.278001       1.0000      1.0079
  282   2 H    1       7.950000    9.950001   33.738000       1.0000      1.0079
  283   1 O    8       3.220000    7.400000   37.628002       6.0000     15.9994
  284   2 H    1       4.060000    7.960001   37.398000       1.0000      1.0079
  285   2 H    1       2.650000    7.320001   36.748000       1.0000      1.0079
  286   1 O    8      -3.410000    7.930000   30.028000       6.0000     15.9994
  287   2 H    1      -3.830000    8.790001   30.178000       1.0000      1.0079
  288   2 H    1      -3.120000    8.040000   29.088000       1.0000      1.0079
  289   1 O    8      -0.890000    9.480001   37.018001       6.0000     15.9994
  290   2 H    1      -0.970000    8.480000   37.168001       1.0000      1.0079
  291   2 H    1      -0.030000    9.600000   36.537999       1.0000      1.0079
  292   1 O    8       4.010000   12.840000   39.308000       6.0000     15.9994
  293   2 H    1       4.210001   12.550001   38.368001       1.0000      1.0079
  294   2 H    1       3.260000   12.210001   39.728000       1.0000      1.0079
  295   1 O    8      -9.100000   10.820000   32.048000       6.0000     15.9994
  296   2 H    1      -9.930000   11.080000   31.698000       1.0000      1.0079
  297   2 H    1       8.350000   11.630001   32.368000       1.0000      1.0079
  298   3 Pt  78       1.700000    0.780000   15.340000      10.0000    195.0840
  299   3 Pt  78       4.540000    0.570000   15.270000      10.0000    195.0840
  300   3 Pt  78       7.330000    0.720000   15.340000      10.0000    195.0840
  301   3 Pt  78      10.030001    0.700000   15.320004      10.0000    195.0840
  302   3 Pt  78      12.840000    0.730000   15.390003      10.0000    195.0840
  303   3 Pt  78      15.750000    0.650000   15.400002      10.0000    195.0840
  304   3 Pt  78       3.120000    3.150000   15.230003      10.0000    195.0840
  305   3 Pt  78       5.880000    3.270000   15.190002      10.0000    195.0840
  306   3 Pt  78       8.710001    3.120000   15.410000      10.0000    195.0840
  307   3 Pt  78      11.510000    3.130000   15.349998      10.0000    195.0840
  308   3 Pt  78      14.250001    3.240000   15.380001      10.0000    195.0840
  309   3 Pt  78       0.210000    3.230000   15.170002      10.0000    195.0840
  310   3 Pt  78       4.420000    5.760000   15.279999      10.0000    195.0840
  311   3 Pt  78       7.270000    5.680000   15.279999      10.0000    195.0840
  312   3 Pt  78       9.970000    5.620000   15.400002      10.0000    195.0840
  313   3 Pt  78      12.800001    5.580000   15.420002      10.0000    195.0840
  314   3 Pt  78      -1.140000    5.620000   15.230003      10.0000    195.0840
  315   3 Pt  78       1.610000    5.640000   15.000000      10.0000    195.0840
  316   3 Pt  78       5.780000    8.200001   15.400002      10.0000    195.0840
  317   3 Pt  78       8.590000    8.060000   15.130001      10.0000    195.0840
  318   3 Pt  78      11.480000    8.030001   15.250000      10.0000    195.0840
  319   3 Pt  78      -2.600000    7.950000   15.330002      10.0000    195.0840
  320   3 Pt  78       0.240000    7.990000   15.209999      10.0000    195.0840
  321   3 Pt  78       3.040000    8.080000   15.250000      10.0000    195.0840
  322   3 Pt  78       7.310000   10.540000   15.150002      10.0000    195.0840
  323   3 Pt  78      10.150002   10.520000   15.240002      10.0000    195.0840
  324   3 Pt  78      -3.960000   10.540000   15.270000      10.0000    195.0840
  325   3 Pt  78      -1.140000   10.390000   15.349998      10.0000    195.0840
  326   3 Pt  78       1.590000   10.450001   15.279999      10.0000    195.0840
  327   3 Pt  78       4.450000   10.420000   15.200001      10.0000    195.0840
  328   3 Pt  78       8.780001   12.990000   15.330002      10.0000    195.0840
  329   3 Pt  78      -5.350000   12.980001   15.160004      10.0000    195.0840
  330   3 Pt  78      -2.560000   12.860001   15.290001      10.0000    195.0840
  331   3 Pt  78       0.320000   12.780001   15.290001      10.0000    195.0840
  332   3 Pt  78       3.120000   12.880001   15.180000      10.0000    195.0840
  333   3 Pt  78       5.930000   12.980001   15.220001      10.0000    195.0840
  334   3 Pt  78       0.230000    1.500000   17.639999      10.0000    195.0840
  335   3 Pt  78       3.140000    1.610000   17.570000      10.0000    195.0840
  336   3 Pt  78       5.900001    1.570000   17.500000      10.0000    195.0840
  337   3 Pt  78       8.630000    1.350000   17.760002      10.0000    195.0840
  338   3 Pt  78      11.580001    1.480000   17.670002      10.0000    195.0840
  339   3 Pt  78      14.340000    1.570000   17.690002      10.0000    195.0840
  340   3 Pt  78       1.580000    3.990000   17.420002      10.0000    195.0840
  341   3 Pt  78       4.460000    4.010000   17.560001      10.0000    195.0840
  342   3 Pt  78       7.250000    4.050000   17.690002      10.0000    195.0840
  343   3 Pt  78      10.020000    3.950000   17.750000      10.0000    195.0840
  344   3 Pt  78      12.840000    3.990000   17.720001      10.0000    195.0840
  345   3 Pt  78      -1.190000    3.960000   17.590004      10.0000    195.0840
  346   3 Pt  78       2.960000    6.390000   17.540001      10.0000    195.0840
  347   3 Pt  78       5.770000    6.470000   17.650002      10.0000    195.0840
  348   3 Pt  78       8.580000    6.470000   17.610001      10.0000    195.0840
  349   3 Pt  78      11.400002    6.420000   17.570000      10.0000    195.0840
  350   3 Pt  78      -2.500000    6.340000   17.650002      10.0000    195.0840
  351   3 Pt  78       0.280000    6.380000   17.540001      10.0000    195.0840
  352   3 Pt  78       4.320000    8.850000   17.670002      10.0000    195.0840
  353   3 Pt  78       7.190001    8.920000   17.549999      10.0000    195.0840
  354   3 Pt  78       9.980000    8.820001   17.480000      10.0000    195.0840
  355   3 Pt  78      -3.940000    8.920000   17.549999      10.0000    195.0840
  356   3 Pt  78      -1.160000    8.740000   17.660004      10.0000    195.0840
  357   3 Pt  78       1.570000    8.780001   17.709999      10.0000    195.0840
  358   3 Pt  78       5.890000   11.210001   17.440002      10.0000    195.0840
  359   3 Pt  78       8.540000   11.360001   17.549999      10.0000    195.0840
  360   3 Pt  78      -5.480001   11.260000   17.560001      10.0000    195.0840
  361   3 Pt  78      -2.580000   11.300000   17.590004      10.0000    195.0840
  362   3 Pt  78       0.210000   11.190001   17.740002      10.0000    195.0840
  363   3 Pt  78       3.030000   11.240001   17.560001      10.0000    195.0840
  364   3 Pt  78       7.260000   13.760000   17.720001      10.0000    195.0840
  365   3 Pt  78      -6.750000   13.750001   17.610001      10.0000    195.0840
  366   3 Pt  78      -4.030000   13.780001   17.580002      10.0000    195.0840
  367   3 Pt  78      -1.190000   13.600000   17.590004      10.0000    195.0840
  368   3 Pt  78       1.630000   13.630000   17.700001      10.0000    195.0840
  369   3 Pt  78       4.460000   13.640001   17.610001      10.0000    195.0840
  370   3 Pt  78      -8.270000   14.470000   19.889999      10.0000    195.0840
  371   3 Pt  78      -5.430000   14.550000   19.780003      10.0000    195.0840
  372   3 Pt  78      -2.580000   14.470000   19.889999      10.0000    195.0840
  373   3 Pt  78       0.170000   14.420000   19.920002      10.0000    195.0840
  374   3 Pt  78       2.960000   14.470000   19.959999      10.0000    195.0840
  375   3 Pt  78       5.790000   14.570000   19.980003      10.0000    195.0840
  376   3 Pt  78       1.600000    2.430000   19.870003      10.0000    195.0840
  377   3 Pt  78       4.400000    2.410000   19.860001      10.0000    195.0840
  378   3 Pt  78       7.180000    2.390000   19.950001      10.0000    195.0840
  379   3 Pt  78      10.060000    2.190000   19.970001      10.0000    195.0840
  380   3 Pt  78      12.900001    2.330000   20.029999      10.0000    195.0840
  381   3 Pt  78      -1.160000    2.330000   19.880001      10.0000    195.0840
  382   3 Pt  78       3.090000    4.810000   19.810001      10.0000    195.0840
  383   3 Pt  78       5.810000    4.840000   19.920002      10.0000    195.0840
  384   3 Pt  78       8.710001    4.840000   20.000000      10.0000    195.0840
  385   3 Pt  78      11.430000    4.730000   19.959999      10.0000    195.0840
  386   3 Pt  78      -2.580000    4.710000   19.930000      10.0000    195.0840
  387   3 Pt  78       0.250000    4.760000   19.930000      10.0000    195.0840
  388   3 Pt  78       4.400000    7.260000   19.860001      10.0000    195.0840
  389   3 Pt  78       7.220001    7.210000   19.900002      10.0000    195.0840
  390   3 Pt  78      10.050000    7.320001   19.820000      10.0000    195.0840
  391   3 Pt  78      -4.070000    7.210000   19.900002      10.0000    195.0840
  392   3 Pt  78      -1.140000    7.170000   19.959999      10.0000    195.0840
  393   3 Pt  78       1.590000    7.140000   19.920002      10.0000    195.0840
  394   3 Pt  78       5.800000    9.720000   19.930000      10.0000    195.0840
  395   3 Pt  78       8.640000    9.580001   19.800003      10.0000    195.0840
  396   3 Pt  78      -5.470000    9.640000   19.790001      10.0000    195.0840
  397   3 Pt  78      -2.550000    9.550000   19.790001      10.0000    195.0840
  398   3 Pt  78       0.320000    9.560000   20.000000      10.0000    195.0840
  399   3 Pt  78       2.990000    9.690001   20.000000      10.0000    195.0840
  400   3 Pt  78       7.160000   12.130001   19.920002      10.0000    195.0840
  401   3 Pt  78      -6.890000   12.040001   19.770000      10.0000    195.0840
  402   3 Pt  78      -3.990000   12.050000   19.860001      10.0000    195.0840
  403   3 Pt  78      -1.250000   12.030001   19.880001      10.0000    195.0840
  404   3 Pt  78       1.560000   12.080001   20.000000      10.0000    195.0840
  405   3 Pt  78       4.360000   12.140001   19.910004      10.0000    195.0840
  406   3 Pt  78       1.580000    0.730000   22.078000      10.0000    195.0840
  407   3 Pt  78       4.460000    0.620000   22.088000      10.0000    195.0840
  408   3 Pt  78       7.190001    0.640000   22.228000      10.0000    195.0840
  409   3 Pt  78       9.930000    0.720000   22.268000      10.0000    195.0840
  410   3 Pt  78      12.720001    0.650000   22.288000      10.0000    195.0840
  411   3 Pt  78      15.580001    0.700000   22.248000      10.0000    195.0840
  412   3 Pt  78       3.060000    3.110000   22.238000      10.0000    195.0840
  413   3 Pt  78       5.760000    3.130000   22.248000      10.0000    195.0840
  414   3 Pt  78       8.460000    3.180000   22.268000      10.0000    195.0840
  415   3 Pt  78      11.340000    3.070000   22.258000      10.0000    195.0840
  416   3 Pt  78      14.150001    3.080000   22.318000      10.0000    195.0840
  417   3 Pt  78       0.180000    3.070000   22.228000      10.0000    195.0840
  418   3 Pt  78       4.380000    5.560000   22.158000      10.0000    195.0840
  419   3 Pt  78       7.180000    5.730000   22.168000      10.0000    195.0840
  420   3 Pt  78       9.920000    5.650000   22.238000      10.0000    195.0840
  421   3 Pt  78      12.680000    5.520000   22.258000      10.0000    195.0840
  422   3 Pt  78      -1.220000    5.510000   22.198000      10.0000    195.0840
  423   3 Pt  78       1.710000    5.450000   22.188000      10.0000    195.0840
  424   3 Pt  78       5.760000    8.090000   22.208000      10.0000    195.0840
  425   3 Pt  78       8.590000    8.060000   22.198000      10.0000    195.0840
  426   3 Pt  78      11.420001    8.030001   22.168000      10.0000    195.0840
  427   3 Pt  78      -2.710000    7.910000   22.208000      10.0000    195.0840
  428   3 Pt  78       0.180000    7.920001   22.208000      10.0000    195.0840
  429   3 Pt  78       3.040000    8.020000   22.258000      10.0000    195.0840
  430   3 Pt  78       7.150001   10.490000   22.138000      10.0000    195.0840
  431   3 Pt  78       9.960001   10.450001   22.098000      10.0000    195.0840
  432   3 Pt  78      -4.030000   10.390000   22.138000      10.0000    195.0840
  433   3 Pt  78      -1.240000   10.340000   22.248000      10.0000    195.0840
  434   3 Pt  78       1.500000   10.440001   22.368000      10.0000    195.0840
  435   3 Pt  78       4.310000   10.480001   22.218000      10.0000    195.0840
  436   3 Pt  78       8.540000   12.920000   22.198000      10.0000    195.0840
  437   3 Pt  78      -5.480001   12.820001   22.008000      10.0000    195.0840
  438   3 Pt  78      -2.620000   12.800001   22.168000      10.0000    195.0840
  439   3 Pt  78       0.070000   12.800001   22.258000      10.0000    195.0840
  440   3 Pt  78       2.830000   12.940001   22.358000      10.0000    195.0840
  441   3 Pt  78       5.680000   12.930001   22.288000      10.0000    195.0840
  442   3 Pt  78       0.130000    1.410000   24.688000      10.0000    195.0840
  443   3 Pt  78       3.040000    1.470000   24.428000      10.0000    195.0840
  444   3 Pt  78       5.850000    1.560000   24.498000      10.0000    195.0840
  445   3 Pt  78       8.500000    1.510000   24.508000      10.0000    195.0840
  446   3 Pt  78      11.290001    1.540000   24.588000      10.0000    195.0840
  447   3 Pt  78      14.140000    1.540000   24.538000      10.0000    195.0840
  448   3 Pt  78       1.490000    3.800000   24.538000      10.0000    195.0840
  449   3 Pt  78       4.270000    3.920000   24.598000      10.0000    195.0840
  450   3 Pt  78       7.170000    4.060000   24.588000      10.0000    195.0840
  451   3 Pt  78       9.920000    4.000000   24.568000      10.0000    195.0840
  452   3 Pt  78      12.730000    3.950000   24.628000      10.0000    195.0840
  453   3 Pt  78      -1.200000    3.820000   24.468000      10.0000    195.0840
  454   3 Pt  78       2.900000    6.330000   24.578000      10.0000    195.0840
  455   3 Pt  78       5.760000    6.550000   24.438000      10.0000    195.0840
  456   3 Pt  78       8.470000    6.470000   24.628000      10.0000    195.0840
  457   3 Pt  78      11.290001    6.490001   24.458000      10.0000    195.0840
  458   3 Pt  78      -2.670000    6.280000   24.538000      10.0000    195.0840
  459   3 Pt  78       0.140000    6.260000   24.508000      10.0000    195.0840
  460   3 Pt  78       4.380000    8.800000   24.638000      10.0000    195.0840
  461   3 Pt  78       7.180000    8.950001   24.558000      10.0000    195.0840
  462   3 Pt  78      10.010000    8.990001   24.538000      10.0000    195.0840
  463   3 Pt  78      -4.070000    8.750001   24.628000      10.0000    195.0840
  464   3 Pt  78      -1.260000    8.640000   24.568000      10.0000    195.0840
  465   3 Pt  78       1.580000    8.770000   24.508000      10.0000    195.0840
  466   3 Pt  78       5.710001   11.280001   24.448000      10.0000    195.0840
  467   3 Pt  78       8.540000   11.330000   24.428000      10.0000    195.0840
  468   3 Pt  78      -5.470000   11.190001   24.308000      10.0000    195.0840
  469   3 Pt  78      -2.650000   11.130000   24.518000      10.0000    195.0840
  470   3 Pt  78       0.120000   11.150000   24.648000      10.0000    195.0840
  471   3 Pt  78       2.930000   11.190001   24.578000      10.0000    195.0840
  472   3 Pt  78       7.050000   13.700001   24.568000      10.0000    195.0840
  473   3 Pt  78      -6.860001   13.680000   24.448000      10.0000    195.0840
  474   3 Pt  78      -4.110000   13.690001   24.368000      10.0000    195.0840
  475   3 Pt  78      -1.270000   13.530001   24.548000      10.0000    195.0840
  476   3 Pt  78       1.400000   13.640001   24.558000      10.0000    195.0840
  477   3 Pt  78       4.180000   13.730000   24.588000      10.0000    195.0840
  478   3 Pt  78      -8.550000   14.490002   26.898000      10.0000    195.0840
  479   3 Pt  78      -5.520000   14.390000   26.758000      10.0000    195.0840
  480   3 Pt  78      -2.780000   14.460001   26.738000      10.0000    195.0840
  481   3 Pt  78       0.130000   14.400001   26.868000      10.0000    195.0840
  482   3 Pt  78       2.790000   14.480001   26.918000      10.0000    195.0840
  483   3 Pt  78       5.570001   14.490002   26.958000      10.0000    195.0840
  484   3 Pt  78       1.580000    2.280000   26.838000      10.0000    195.0840
  485   3 Pt  78       4.440001    2.250000   26.818000      10.0000    195.0840
  486   3 Pt  78       7.210000    2.310000   26.868000      10.0000    195.0840
  487   3 Pt  78       9.880000    2.280000   26.828000      10.0000    195.0840
  488   3 Pt  78      12.770000    2.300000   27.028000      10.0000    195.0840
  489   3 Pt  78      -1.400000    2.340000   26.888000      10.0000    195.0840
  490   3 Pt  78       2.910000    4.620000   26.898000      10.0000    195.0840
  491   3 Pt  78       5.660000    4.870000   26.758000      10.0000    195.0840
  492   3 Pt  78       8.500000    4.870000   27.018000      10.0000    195.0840
  493   3 Pt  78      11.220001    4.720000   26.738000      10.0000    195.0840
  494   3 Pt  78      -2.650000    4.750000   26.848000      10.0000    195.0840
  495   3 Pt  78       0.170000    4.760000   26.848000      10.0000    195.0840
  496   3 Pt  78       4.190001    7.160000   26.968000      10.0000    195.0840
  497   3 Pt  78       6.980000    7.250000   27.018000      10.0000    195.0840
  498   3 Pt  78       9.780001    7.220001   26.998000      10.0000    195.0840
  499   3 Pt  78      -4.170000    7.150001   26.808000      10.0000    195.0840
  500   3 Pt  78      -1.370000    7.180000   26.898000      10.0000    195.0840
  501   3 Pt  78       1.450000    7.130001   26.768000      10.0000    195.0840
  502   3 Pt  78       5.650000    9.630001   26.898000      10.0000    195.0840
  503   3 Pt  78       8.420001    9.640000   26.888000      10.0000    195.0840
  504   3 Pt  78      -5.660000    9.550000   26.878000      10.0000    195.0840
  505   3 Pt  78      -2.760000    9.530001   26.758000      10.0000    195.0840
[...]
 flops    13 x    32 x    13           5765782464       0.0%    100.0%      0.0%
 flops    13 x    13 x   120           6631681680       0.0%    100.0%      0.0%
 flops     5 x     5 x    96           6996729600       0.0%    100.0%      0.0%
 flops    13 x    32 x    20           8346673920       0.0%    100.0%      0.0%
 flops    20 x    32 x    13           8346673920       0.0%    100.0%      0.0%
 flops     5 x    13 x    96           8886109440       0.0%    100.0%      0.0%
 flops    13 x     5 x    96           8896268160       0.0%    100.0%      0.0%
 flops    20 x    32 x     5           8990131200       0.0%    100.0%      0.0%
 flops     5 x    32 x    20           8990131200       0.0%    100.0%      0.0%
 flops    20 x    13 x   120           9484550400       0.0%    100.0%      0.0%
 flops    13 x    20 x   120           9500712000       0.0%    100.0%      0.0%
 flops     5 x    20 x   120          10222656000       0.0%    100.0%      0.0%
 flops    20 x     5 x   120          10226208000       0.0%    100.0%      0.0%
 flops    13 x    13 x    96          10610690688       0.0%    100.0%      0.0%
 flops    20 x    13 x    96          15175280640       0.0%    100.0%      0.0%
 flops    13 x    20 x    96          15201139200       0.0%    100.0%      0.0%
 flops     5 x    20 x    96          16356249600       0.0%    100.0%      0.0%
 flops    20 x     5 x    96          16361932800       0.0%    100.0%      0.0%
 flops     5 x     5 x   128          60638323200       0.0%    100.0%      0.0%
 flops    20 x    32 x    20          72858009600       0.0%    100.0%      0.0%
 flops     5 x    13 x   128          77012948480       0.0%    100.0%      0.0%
 flops    13 x     5 x   128          77100990720       0.0%    100.0%      0.0%
 flops    20 x    20 x   120          83244672000       0.0%    100.0%      0.0%
 flops    13 x    13 x   128          91959319296       0.0%    100.0%      0.0%
 flops    20 x    13 x   128         131519098880       0.0%    100.0%      0.0%
 flops    13 x    20 x   128         131743206400       0.0%    100.0%      0.0%
 flops    20 x    20 x    96         133191475200       0.0%    100.0%      0.0%
 flops     5 x    20 x   128         141754163200       0.0%    100.0%      0.0%
 flops    20 x     5 x   128         141803417600       0.0%    100.0%      0.0%
 flops    20 x    20 x   128        1154326118400       0.0%    100.0%      0.0%
 flops inhomo. stacks                           0       0.0%      0.0%      0.0%
 flops total                         2.512786E+12       0.0%    100.0%      0.0%
 flops max/rank                     22.815742E+09       0.0%    100.0%      0.0%
 matmuls inhomo. stacks                         0       0.0%      0.0%      0.0%
 matmuls total                           70178438       0.0%    100.0%      0.0%
 number of processed stacks                701850       0.0%    100.0%      0.0%
 average stack size                                     0.0     100.0       0.0
 marketing flops                     5.119219E+12
 -------------------------------------------------------------------------------
 # multiplications                             38
 max memory usage/rank               1.613353E+09
 # max total images/rank                        2
 # max 3D layers                                1
 # MPI messages exchanged                  141056
 MPI messages size (bytes):
  total size                        89.518768E+09
  min size                         272.640000E+03
  max size                           2.367088E+06
  average size                     634.632812E+03
 MPI breakdown and total messages size (bytes):
             size <=      128                   0                        0
       128 < size <=     8192                   0                        0
      8192 < size <=    32768                   0                        0
     32768 < size <=   131072                   0                        0
    131072 < size <=  4194304              141056              89518767816
   4194304 < size <= 16777216                   0                        0
  16777216 < size                               0                        0
 -------------------------------------------------------------------------------

 *** WARNING in dbcsr_mm.F:290 :: Using a non-square number of MPI ranks ***
 *** might lead to poor performance. Used ranks: 128 Suggested: 121 256  ***

 -------------------------------------------------------------------------------
 -                                                                             -
 -                      DBCSR MESSAGE PASSING PERFORMANCE                      -
 -                                                                             -
 -------------------------------------------------------------------------------
 ROUTINE             CALLS      AVE VOLUME [Bytes]
 MP_Bcast               46                     12.
 MP_Allreduce          369                     13.
 MP_Alltoall          1057                 573389.
 MP_ISend             2432                 301414.
 MP_IRecv             2432                 294951.
 -------------------------------------------------------------------------------

 -------------------------------------------------------------------------------
 -                                                                             -
 -                                DBM STATISTICS                               -
 -                                                                             -
 -------------------------------------------------------------------------------
    M  x    N  x    K                                          COUNT     PERCENT
 -------------------------------------------------------------------------------

 -------------------------------------------------------------------------------
 -                                                                             -
 -                                GRID STATISTICS                              -
 -                                                                             -
 -------------------------------------------------------------------------------
 LP    KERNEL             BACKEND                              COUNT     PERCENT
 4     collocate general  REF                               14594832      22.29%
 4     integrate general  REF                               14467909      22.09%
 3     collocate general  REF                               10025604      15.31%
 3     integrate general  REF                                9969057      15.22%
 2     collocate general  REF                                7989912      12.20%
 2     integrate general  REF                                7767970      11.86%
 5     integrate general  REF                                 405412       0.62%
 0     collocate general  REF                                 131328       0.20%
 0     integrate general  REF                                  65664       0.10%
 1     integrate general  REF                                  65664       0.10%
 -------------------------------------------------------------------------------

 MEMORY| Estimated peak process memory [MiB]                                1794

 -------------------------------------------------------------------------------
 ----                             MULTIGRID INFO                            ----
 -------------------------------------------------------------------------------
 count for grid        1:        1095125          cutoff [a.u.]          200.00
 count for grid        2:        1090320          cutoff [a.u.]           66.67
 count for grid        3:         713755          cutoff [a.u.]           22.22
 count for grid        4:         552036          cutoff [a.u.]            7.41
 total gridlevel count  :        3451236

 -------------------------------------------------------------------------------
 -                                                                             -
 -                         MESSAGE PASSING PERFORMANCE                         -
 -                                                                             -
 -------------------------------------------------------------------------------

 ROUTINE             CALLS      AVE VOLUME [Bytes]
 MP_Group                4
 MP_Bcast             2196                 307145.
 MP_Allreduce         3345                  32258.
 MP_Sync                78
 MP_Alltoall          2182               15626974.
 MP_SendRecv           508                   6273.
 MP_ISendRecv        18288                  61740.
 MP_Wait             32460
 MP_comm_split          37
 MP_ISend            13360                 256161.
 MP_IRecv            13360                 256161.
 MP_Recv               122                1688832.
 MP_Write_All            3                1797408.
 -------------------------------------------------------------------------------


 -------------------------------------------------------------------------------
 -                                                                             -
 -                           R E F E R E N C E S                               -
 -                                                                             -
 -------------------------------------------------------------------------------
 
 CP2K version 2022.1, the CP2K developers group (2022).
 CP2K is freely available from https://www.cp2k.org/ .

 Kuehne,Thomas D.; Iannuzzi,Marcella; Del Ben,Mauro;
 Rybkin,Vladimir V.; Seewald,Patrick; Stein,Frederick; Laino,Teodoro;
 Khaliullin,Rustam Z.; Schuett,Ole; Schiffmann,Florian; Golze,Dorothea;
 Wilhelm,Jan; Chulkov,Sergey; Bani-Hashemian,Mohammad Hossein;
 Weber,Valery; Borstnik,Urban; Taillefumier,Mathieu;
 Jakobovits,Alice Shoshana; Lazzaro,Alfio; Pabst,Hans; Mueller,Tiziano;
 Schade,Robert; Guidon,Manuel; Andermatt,Samuel; Holmberg,Nico;
 Schenter,Gregory K.; Hehn,Anna; Bussy,Augustin; Belleflamme,Fabian;
 Tabacchi,Gloria; Gloess,Andreas; Lass,Michael; Bethune,Iain;
 Mundy,Christopher J.; Plessl,Christian; Watkins,Matt;
 VandeVondele,Joost; Krack,Matthias; Hutter,Juerg. 
 The Journal of Chemical Physics, 152 (19), (2020). 
 CP2K: An electronic structure and molecular dynamics software package -
 Quickstep: Efficient and accurate electronic structure calculations.
 https://doi.org/10.1063/5.0007045

 Goerigk, Lars; Hansen, Andreas; Bauer, Christoph; Ehrlich, Stephan;
 Najibi, Asim; Grimme, Stefan. , 19 (48), (2017). 
 A look at the density functional theory zoo with the advanced GMTKN55 database
 for general main group thermochemistry, kinetics and noncovalent interactions.
 https://doi.org/10.1039/C7CP04913G

 Bani-Hashemian, MH; Bruck, S; Luisier, M; VandeVondele, J. 
 JOURNAL OF CHEMICAL PHYSICS, 144 (4), 044113 (2016). 
 A generalized Poisson solver for first-principles device simulations.
 https://doi.org/10.1063/1.4940796

 Schuett, Ole; Messmer, Peter; Hutter, Juerg; VandeVondele, Joost. 
 Electronic Structure Calculations on Graphics Processing Units, John
 Wiley & Sons, Ltd, 173-190 (2016). 
 GPU-Accelerated Sparse Matrix-Matrix Multiplication for
 Linear Scaling Density Functional Theory.
 https://doi.org/10.1002/9781118670712.ch8

 Heinecke, A; Henry, G; Hutchinson, M; Pabst, H. 
 Proceedings of Intl. Supercomputing Conference, 981-991 (2016). 
 LIBXSMM: Accelerating Small Matrix Multiplications
 by Runtime Code Generation.
 https://doi.org/10.1109/SC.2016.83

 Borstnik, U; VandeVondele, J; Weber, V; Hutter, J. 
 PARALLEL COMPUTING, 40 (5-6), 47-58 (2014). 
 Sparse matrix multiplication: The distributed block-compressed sparse
 row library.
 https://doi.org/10.1016/j.parco.2014.03.012

 Hutter, J; Iannuzzi, M; Schiffmann, F; VandeVondele, J. 
 WIREs Comput Mol Sci., 4 (1), 15-25 (2014). 
 CP2K: atomistic simulations of condensed matter systems.
 https://doi.org/10.1002/wcms.1159

 Marek, A; Blum, V; Johanni, R; Havu, V; Lang, B; Auckenthaler, T;
 Heinecke, A; Bungartz, H; Lederer, H. 
 Journal of Physics: Condensed Matter, 26 (21), (2014). 
 The ELPA library: scalable parallel eigenvalue solutions for
 electronic structure
 theory and computational science.
 https://doi.org/10.1088/0953-8984/26/21/213201

 Grimme, S; Ehrlich, S; Goerigk, L. 
 JOURNAL OF COMPUTATIONAL CHEMISTRY, 32, 1456 (2011). 
 Effect of the damping function in dispersion corrected density functional theory.
 https://doi.org/10.1002/jcc.21759

 Grimme, S; Antony, J; Ehrlich, S; Krieg, H. 
 JOURNAL OF CHEMICAL PHYSICS, 132 (15), 154104 (2010). 
 A consistent and accurate ab initio parametrization of density
 functional dispersion correction (DFT-D) for the 94 elements H-Pu.
 https://doi.org/10.1063/1.3382344

 VandeVondele, J; Hutter, J. 
 JOURNAL OF CHEMICAL PHYSICS, 127 (11), 114105 (2007). 
 Gaussian basis sets for accurate calculations on molecular systems in
 gas and condensed phases.
 https://doi.org/10.1063/1.2770708

 Krack, M. 
 THEORETICAL CHEMISTRY ACCOUNTS, 114 (1-3), 145-152 (2005). 
 Pseudopotentials for H to Kr optimized for gradient-corrected
 exchange-correlation functionals.
 https://doi.org/10.1007/s00214-005-0655-y

 VandeVondele, J; Krack, M; Mohamed, F; Parrinello, M; Chassaing, T;
 Hutter, J. COMPUTER PHYSICS COMMUNICATIONS, 167 (2), 103-128 (2005). 
 QUICKSTEP: Fast and accurate density functional calculations using a
 mixed Gaussian and plane waves approach.
 https://doi.org/10.1016/j.cpc.2004.12.014

 Frigo, M; Johnson, SG. 
 PROCEEDINGS OF THE IEEE, 93 (2), 216-231 (2005). 
 The design and implementation of FFTW3.
 https://doi.org/10.1109/JPROC.2004.840301

 Hartwigsen, C; Goedecker, S; Hutter, J. 
 PHYSICAL REVIEW B, 58 (7), 3641-3662 (1998). 
 Relativistic separable dual-space Gaussian pseudopotentials from H to Rn.
 https://doi.org/10.1103/PhysRevB.58.3641

 Lippert, G; Hutter, J; Parrinello, M. 
 MOLECULAR PHYSICS, 92 (3), 477-487 (1997). 
 A hybrid Gaussian and plane wave density functional scheme.
 https://doi.org/10.1080/002689797170220

 Perdew, JP; Burke, K; Ernzerhof, M. 
 PHYSICAL REVIEW LETTERS, 77 (18), 3865-3868 (1996). 
 Generalized gradient approximation made simple.
 https://doi.org/10.1103/PhysRevLett.77.3865

 Goedecker, S; Teter, M; Hutter, J. 
 PHYSICAL REVIEW B, 54 (3), 1703-1710 (1996). 
 Separable dual-space Gaussian pseudopotentials.
 https://doi.org/10.1103/PhysRevB.54.1703


 -------------------------------------------------------------------------------
 -                                                                             -
 -                                T I M I N G                                  -
 -                                                                             -
 -------------------------------------------------------------------------------
 SUBROUTINE                       CALLS  ASD         SELF TIME        TOTAL TIME
                                MAXIMUM       AVERAGE  MAXIMUM  AVERAGE  MAXIMUM
 CP2K                                 1  1.0    0.019    0.036  255.192  255.194
 qs_forces                            1  2.0    0.002    0.002  254.848  254.850
 qs_energies                          1  3.0    0.000    0.001  248.614  248.618
 scf_env_do_scf                       1  4.0    0.000    0.000  239.433  239.576
 scf_env_do_scf_inner_loop           35  5.0    0.002    0.005  239.430  239.572
 rebuild_ks_matrix                   36  6.9    0.000    0.000  129.645  129.683
 qs_ks_build_kohn_sham_matrix        36  7.9    0.006    0.006  129.645  129.683
 qs_ks_update_qs_env                 35  6.0    0.000    0.000  125.585  125.622
 pw_transfer                       1876 12.2    0.136    0.177   81.505   83.103
 fft_wrap_pw1pw2                   1876 13.2    0.018    0.021   81.368   82.952
 fft_wrap_pw1pw2_200               1660 14.4    5.516    6.578   80.264   81.803
 pw_poisson_solve                    36  8.9    0.003    0.009   69.861   69.888
 qs_scf_new_mos                      35  6.0    0.001    0.003   68.351   68.486
 fft3d_ps                          1876 15.2   23.529   26.245   65.358   67.733
 implicit_poisson_solver_mixed_      36  9.9    1.488    1.814   66.056   66.114
 eigensolver                         35  7.0    0.003    0.004   64.494   64.686
 derive_fft                         216 12.1    0.013    0.016   46.373   46.513
 cp_fm_diag_elpa                     37  8.1    0.000    0.001   45.767   45.887
 cp_fm_redistribute_end              37  9.1    6.107   45.363    6.179   45.411
 cp_fm_diag_elpa_base                37  9.0   38.633   44.323   39.003   44.714
 mp_alltoall_z22v                  1876 17.2   34.987   43.178   34.987   43.178
 qs_rho_update_rho_low               36  6.0    0.000    0.000   40.640   40.648
 calculate_rho_elec                  36  7.0    0.070    0.087   40.639   40.648
 sum_up_and_integrate                36  8.9    0.196    0.241   39.887   39.928
 integrate_v_rspace                  36  9.9    0.001    0.002   39.691   39.789
 apply_P_operator                   180 11.1    0.959    1.076   39.602   39.727
 grid_collocate_task_list            36  8.0   25.996   31.824   25.996   31.824
 grid_integrate_task_list            36 10.9   24.143   28.840   24.143   28.840
 x_to_yz                           1081 16.4    4.562    5.782   26.505   27.639
 rs_pw_transfer                     292 10.4    0.003    0.004   18.391   21.020
 cp_fm_triangular_multiply          105  8.0   20.192   20.464   20.192   20.464
 yz_to_x                            579 16.4    1.575    1.841   14.475   19.713
 qs_vxc_create                       36  8.9    0.001    0.002   17.806   18.020
 xc_vxc_pw_create                    36  9.9    0.308    0.383   17.805   18.019
 density_rs2pw                       36  8.0    0.002    0.005   13.832   16.565
 xc_pw_derive                       216 11.9    0.003    0.011   12.568   13.922
 apply_poisson_operator_fft          36 10.9    0.000    0.001   11.579   11.795
 rs_pw_transfer_RS2PW_200            38  9.9    2.451    2.777    8.434   11.070
 mp_waitany                       13360 12.3    8.477   11.042    8.477   11.042
 apply_inv_laplace_operator_fft     110 11.6    0.272    0.333   10.618   11.033
 potential_pw2rs                     36 10.9    0.011    0.012   10.355   10.430
 xc_pw_divergence                    36 10.9    0.002    0.002    8.460    9.499
 xc_rho_set_and_dset_create          36 10.9    0.179    0.208    8.709    9.238
 mp_alltoall_d11v                   526 10.3    6.258    8.595    6.258    8.595
 ps_implicit_compute_error_fft       72 10.9    0.454    0.554    7.778    8.326
 ps_implicit_compute_veps            36 10.9    0.209    0.249    7.941    8.075
 pw_scatter_p                      1189 15.4    6.670    7.715    6.670    7.715
 rs_gather_matrices                  36 10.9    0.042    0.056    5.181    7.459
 rs_pw_transfer_PW2RS_200            38 12.7    2.875    3.028    5.972    6.155
 pw_derive                          864 13.0    5.482    5.932    5.482    5.932
 scf_post_calculation_gpw             1  4.0    0.000    0.001    5.823    5.829
 write_available_results              1  5.0    0.000    0.000    5.822    5.828
 gspace_mixing                       34  6.0    0.065    0.080    5.748    5.750
 -------------------------------------------------------------------------------

 The number of warnings for this run is : 1
 
 -------------------------------------------------------------------------------
  **** **** ******  **  PROGRAM ENDED AT                 2023-12-01 22:49:58.460
 ***** ** ***  *** **   PROGRAM RAN ON                                     cu039
 **    ****   ******    PROGRAM RAN BY                                     jxzhu
 ***** **    ** ** **   PROGRAM PROCESS ID                                 62606
  **** **  *******  **  PROGRAM STOPPED IN /public/home/jxzhu/tmp_calc/9ae3b0a45
                                           b35b5d31b2d51cd54a8538de7c0b444/calc/
                                           000200.000/search_lo.000000
