 DBCSR| CPU Multiplication driver                                           XSMM
 DBCSR| Multrec recursion limit                                              512
 DBCSR| Multiplication stack size                                           1000
 DBCSR| Maximum elements for images                                    UNLIMITED
 DBCSR| Multiplicative factor virtual images                                   1
 DBCSR| Use multiplication densification                                       T
 DBCSR| Multiplication size stacks                                             3
 DBCSR| Use memory pool for CPU allocation                                     F
 DBCSR| Number of 3D layers                                               SINGLE
 DBCSR| Use MPI memory allocation                                              F
 DBCSR| Use RMA algorithm                                                      F
 DBCSR| Use Communication thread                                               T
 DBCSR| Communication thread load                                             87
 DBCSR| MPI: My node id                                                        0
 DBCSR| MPI: Number of nodes                                                  32
 DBCSR| OMP: Current number of threads                                         1
 DBCSR| OMP: Max number of threads                                             1
 DBCSR| Split modifier for TAS multiplication algorithm                  1.0E+00


  **** **** ******  **  PROGRAM STARTED AT               2023-12-02 23:45:45.880
 ***** ** ***  *** **   PROGRAM STARTED ON                                 cu042
 **    ****   ******    PROGRAM STARTED BY                                 jxzhu
 ***** **    ** ** **   PROGRAM PROCESS ID                                 41327
  **** **  *******  **  PROGRAM STARTED IN /public/home/jxzhu/tmp_calc/04c0855f9
                                           8753fac23fde4df51ba20f3741a9e9a/calc/
                                           task.001.000001

 CP2K| version string:                                       CP2K version 2022.1
 CP2K| source code revision number:                                  git:2caeb6f
 CP2K| cp2kflags: omp libint fftw3 libxc elpa parallel mpi3 scalapack cosma xsmm
 CP2K|             plumed2 spglib mkl sirius libvori libbqb
 CP2K| is freely available from                            https://www.cp2k.org/
 CP2K| Program compiled at                           Mon Jul 3 17:37:06 CST 2023
 CP2K| Program compiled on                                                 mu003
 CP2K| Program compiled for                                                local
 CP2K| Data directory path                             /public/home/jxzhu/basis/
 CP2K| Input file name                                                 input.inp
 
 GLOBAL| Force Environment number                                              1
 GLOBAL| Basis set file name                                        BASIS_MOLOPT
 GLOBAL| Potential file name                                      GTH_POTENTIALS
 GLOBAL| MM Potential file name                                     MM_POTENTIAL
 GLOBAL| Coordinate file name                                          coord.xyz
 GLOBAL| Method name                                                        CP2K
 GLOBAL| Project name                                                       cp2k
 GLOBAL| Run type                                                   ENERGY_FORCE
 GLOBAL| FFT library                                                       FFTW3
 GLOBAL| Diagonalization library                                            ELPA
 GLOBAL| Minimum number of eigenvectors for ELPA usage                        16
 GLOBAL| Orthonormality check for eigenvectors                          DISABLED
 GLOBAL| Matrix multiplication library                                     COSMA
 GLOBAL| All-to-all communication in single precision                          F
 GLOBAL| FFTs using library dependent lengths                                  T
 GLOBAL| Grid backend                                                       AUTO
 GLOBAL| Global print level                                               MEDIUM
 GLOBAL| MPI I/O enabled                                                       T
 GLOBAL| Total number of message passing processes                            32
 GLOBAL| Number of threads for this process                                    1
 GLOBAL| This output is from process                                           0
 GLOBAL| Stack size for threads created by OpenMP (OMP_STACKSIZE)        default
 GLOBAL| CPU model name                 Intel(R) Xeon(R) Gold 6338 CPU @ 2.00GHz
 GLOBAL| CPUID                                                              1003

 MEMORY| system memory details [Kb]
 MEMORY|                        rank 0           min           max       average
 MEMORY| MemTotal            263619172     263619172     263619172     263619172
 MEMORY| MemFree             173736616     173736616     173736616     173736616
 MEMORY| Buffers                  3320          3320          3320          3320
 MEMORY| Cached                9475448       9475448       9475448       9475448
 MEMORY| Slab                  1995956       1995956       1995956       1995956
 MEMORY| SReclaimable           249692        249692        249692        249692
 MEMORY| MemLikelyFree       183465076     183465076     183465076     183465076


 *** Fundamental physical constants (SI units) ***

 *** Literature: B. J. Mohr and B. N. Taylor,
 ***             CODATA recommended values of the fundamental physical
 ***             constants: 2006, Web Version 5.1
 ***             http://physics.nist.gov/constants

 Speed of light in vacuum [m/s]                             2.99792458000000E+08
 Magnetic constant or permeability of vacuum [N/A**2]       1.25663706143592E-06
 Electric constant or permittivity of vacuum [F/m]          8.85418781762039E-12
 Planck constant (h) [J*s]                                  6.62606896000000E-34
 Planck constant (h-bar) [J*s]                              1.05457162825177E-34
 Elementary charge [C]                                      1.60217648700000E-19
 Electron mass [kg]                                         9.10938215000000E-31
 Electron g factor [ ]                                     -2.00231930436220E+00
 Proton mass [kg]                                           1.67262163700000E-27
 Fine-structure constant                                    7.29735253760000E-03
 Rydberg constant [1/m]                                     1.09737315685270E+07
 Avogadro constant [1/mol]                                  6.02214179000000E+23
 Boltzmann constant [J/K]                                   1.38065040000000E-23
 Atomic mass unit [kg]                                      1.66053878200000E-27
 Bohr radius [m]                                            5.29177208590000E-11

 *** Conversion factors ***

 [u] -> [a.u.]                                              1.82288848426455E+03
 [Angstrom] -> [Bohr] = [a.u.]                              1.88972613288564E+00
 [a.u.] = [Bohr] -> [Angstrom]                              5.29177208590000E-01
 [a.u.] -> [s]                                              2.41888432650478E-17
 [a.u.] -> [fs]                                             2.41888432650478E-02
 [a.u.] -> [J]                                              4.35974393937059E-18
 [a.u.] -> [N]                                              8.23872205491840E-08
 [a.u.] -> [K]                                              3.15774647902944E+05
 [a.u.] -> [kJ/mol]                                         2.62549961709828E+03
 [a.u.] -> [kcal/mol]                                       6.27509468713739E+02
 [a.u.] -> [Pa]                                             2.94210107994716E+13
 [a.u.] -> [bar]                                            2.94210107994716E+08
 [a.u.] -> [atm]                                            2.90362800883016E+08
 [a.u.] -> [eV]                                             2.72113838565563E+01
 [a.u.] -> [Hz]                                             6.57968392072181E+15
 [a.u.] -> [1/cm] (wave numbers)                            2.19474631370540E+05
 [a.u./Bohr**2] -> [1/cm]                                   5.14048714338585E+03
 

 CELL_TOP| Volume [angstrom^3]:                                     12686.086737
 CELL_TOP| Vector a [angstrom    16.869     0.000     0.000   |a| =    16.869000
 CELL_TOP| Vector b [angstrom    -8.434    14.609     0.000   |b| =    16.868929
 CELL_TOP| Vector c [angstrom     0.000     0.000    51.478   |c| =    51.477900
 CELL_TOP| Angle (b,c), alpha [degree]:                                90.000000
 CELL_TOP| Angle (a,c), beta  [degree]:                                90.000000
 CELL_TOP| Angle (a,b), gamma [degree]:                               120.000140
 CELL_TOP| Numerically orthorhombic:                                          NO
 
 GENERATE|  Preliminary Number of Bonds generated:                             0
 GENERATE|  Achieved consistency in connectivity generation.

 CELL| Volume [angstrom^3]:                                         12686.086737
 CELL| Vector a [angstrom]:      16.869     0.000     0.000   |a| =    16.869000
 CELL| Vector b [angstrom]:      -8.434    14.609     0.000   |b| =    16.868929
 CELL| Vector c [angstrom]:       0.000     0.000    51.478   |c| =    51.477900
 CELL| Angle (b,c), alpha [degree]:                                    90.000000
 CELL| Angle (a,c), beta  [degree]:                                    90.000000
 CELL| Angle (a,b), gamma [degree]:                                   120.000140
 CELL| Numerically orthorhombic:                                              NO

 CELL_REF| Volume [angstrom^3]:                                     12686.086737
 CELL_REF| Vector a [angstrom    16.869     0.000     0.000   |a| =    16.869000
 CELL_REF| Vector b [angstrom    -8.434    14.609     0.000   |b| =    16.868929
 CELL_REF| Vector c [angstrom     0.000     0.000    51.478   |c| =    51.477900
 CELL_REF| Angle (b,c), alpha [degree]:                                90.000000
 CELL_REF| Angle (a,c), beta  [degree]:                                90.000000
 CELL_REF| Angle (a,b), gamma [degree]:                               120.000140
 CELL_REF| Numerically orthorhombic:                                          NO

 *******************************************************************************
 *******************************************************************************
 **                                                                           **
 **     #####                         ##              ##                      **
 **    ##   ##            ##          ##              ##                      **
 **   ##     ##                       ##            ######                    **
 **   ##     ##  ##   ##  ##   #####  ##  ##   ####   ##    #####    #####    **
 **   ##     ##  ##   ##  ##  ##      ## ##   ##      ##   ##   ##  ##   ##   **
 **   ##  ## ##  ##   ##  ##  ##      ####     ###    ##   ######   ######    **
 **    ##  ###   ##   ##  ##  ##      ## ##      ##   ##   ##       ##        **
 **     #######   #####   ##   #####  ##  ##  ####    ##    #####   ##        **
 **           ##                                                    ##        **
 **                                                                           **
 **                                                ... make the atoms dance   **
 **                                                                           **
 **            Copyright (C) by CP2K developers group (2000-2022)             **
 **                      J. Chem. Phys. 152, 194103 (2020)                    **
 **                                                                           **
 *******************************************************************************

 DFT| Spin restricted Kohn-Sham (RKS) calculation                            RKS
 DFT| Multiplicity                                                             1
 DFT| Number of spin states                                                    1
 DFT| Charge                                                                   0
 DFT| Self-interaction correction (SIC)                                       NO
 DFT| Cutoffs: density                                              1.000000E-10
 DFT|          gradient                                             1.000000E-10
 DFT|          tau                                                  1.000000E-10
 DFT|          cutoff_smoothing_range                               0.000000E+00
 DFT| XC density smoothing                                                  NONE
 DFT| XC derivatives                                                          PW

 FUNCTIONAL| PBE:
 FUNCTIONAL| J.P.Perdew, K.Burke, M.Ernzerhof, Phys. Rev. Letter, vol. 77, n 18,
 FUNCTIONAL|  pp. 3865-3868, (1996){spin unpolarized}                           

 vdW POTENTIAL|                                                   Pair Potential
 vdW POTENTIAL|          DFT-D3 (Version 3.1)
 vdW POTENTIAL|          Potential Form: S. Grimme et al, JCP 132: 154104 (2010)
 vdW POTENTIAL|          Zero Damping
 vdW POTENTIAL|          Cutoff Radius [Bohr]:                             20.00
 vdW POTENTIAL|          s6 Scaling Factor:                               1.0000
 vdW POTENTIAL|          sr6 Scaling Factor:                              1.2170
 vdW POTENTIAL|          s8 Scaling Factor:                               0.7220
 vdW POTENTIAL|          Cutoff for CN calculation:                   0.1000E-05

 QS| Method:                                                                 GPW
 QS| Density plane wave grid type                        NON-SPHERICAL FULLSPACE
 QS| Number of grid levels:                                                    4
 QS| Density cutoff [a.u.]:                                                200.0
 QS| Multi grid cutoff [a.u.]: 1) grid level                               200.0
 QS|                           2) grid level                                66.7
 QS|                           3) grid level                                22.2
 QS|                           4) grid level                                 7.4
 QS| Grid level progression factor:                                          3.0
 QS| Relative density cutoff [a.u.]:                                        20.0
 QS| Interaction thresholds: eps_pgf_orb:                                3.2E-07
 QS|                         eps_filter_matrix:                          0.0E+00
 QS|                         eps_core_charge:                            1.0E-15
 QS|                         eps_rho_gspace:                             1.0E-13
 QS|                         eps_rho_rspace:                             1.0E-13
 QS|                         eps_gvg_rspace:                             3.2E-07
 QS|                         eps_ppl:                                    1.0E-02
 QS|                         eps_ppnl:                                   3.2E-09


 ATOMIC KIND INFORMATION

  1. Atomic kind: Pt                                    Number of atoms:     216

     Orbital Basis Set                      DZVP-A5-Q10-323-MOL-T1-DERIVED_SET-1

       Number of orbital shell sets:                                           1
       Number of orbital shells:                                               6
       Number of primitive Cartesian functions:                                5
       Number of Cartesian basis functions:                                   23
       Number of spherical basis functions:                                   20
       Norm type:                                                              2

       Normalised Cartesian orbitals:

                        Set   Shell   Orbital            Exponent    Coefficient

                          1       1    2s                2.521825       0.177473
                                                         1.453920      -0.063399
                                                         0.614053      -0.407089
                                                         0.232656       0.262254
                                                         0.074788       0.047371

                          1       2    3s                2.521825      -0.049056
                                                         1.453920       0.044904
                                                         0.614053      -0.009756
                                                         0.232656      -0.144709
                                                         0.074788       0.144085

                          1       3    3px               2.521825      -0.317572
                                                         1.453920       0.534826
                                                         0.614053      -0.489458
                                                         0.232656       0.245631
                                                         0.074788       0.018221
                          1       3    3py               2.521825      -0.317572
                                                         1.453920       0.534826
                                                         0.614053      -0.489458
                                                         0.232656       0.245631
                                                         0.074788       0.018221
                          1       3    3pz               2.521825      -0.317572
                                                         1.453920       0.534826
                                                         0.614053      -0.489458
                                                         0.232656       0.245631
                                                         0.074788       0.018221

                          1       4    4dx2              2.521825       3.008522
                                                         1.453920      -1.224251
                                                         0.614053       0.225691
                                                         0.232656       0.125144
                                                         0.074788      -0.015348
                          1       4    4dxy              2.521825       5.210912
                                                         1.453920      -2.120465
                                                         0.614053       0.390909
                                                         0.232656       0.216756
                                                         0.074788      -0.026584
                          1       4    4dxz              2.521825       5.210912
                                                         1.453920      -2.120465
                                                         0.614053       0.390909
                                                         0.232656       0.216756
                                                         0.074788      -0.026584
                          1       4    4dy2              2.521825       3.008522
                                                         1.453920      -1.224251
                                                         0.614053       0.225691
                                                         0.232656       0.125144
                                                         0.074788      -0.015348
                          1       4    4dyz              2.521825       5.210912
                                                         1.453920      -2.120465
                                                         0.614053       0.390909
                                                         0.232656       0.216756
                                                         0.074788      -0.026584
                          1       4    4dz2              2.521825       3.008522
                                                         1.453920      -1.224251
                                                         0.614053       0.225691
                                                         0.232656       0.125144
                                                         0.074788      -0.015348

                          1       5    5dx2              2.521825       0.698026
                                                         1.453920      -1.511486
                                                         0.614053      -0.335394
                                                         0.232656      -0.025564
                                                         0.074788      -0.002699
                          1       5    5dxy              2.521825       1.209017
                                                         1.453920      -2.617970
                                                         0.614053      -0.580920
                                                         0.232656      -0.044277
                                                         0.074788      -0.004674
                          1       5    5dxz              2.521825       1.209017
                                                         1.453920      -2.617970
                                                         0.614053      -0.580920
                                                         0.232656      -0.044277
                                                         0.074788      -0.004674
                          1       5    5dy2              2.521825       0.698026
                                                         1.453920      -1.511486
                                                         0.614053      -0.335394
                                                         0.232656      -0.025564
                                                         0.074788      -0.002699
                          1       5    5dyz              2.521825       1.209017
                                                         1.453920      -2.617970
                                                         0.614053      -0.580920
                                                         0.232656      -0.044277
                                                         0.074788      -0.004674
                          1       5    5dz2              2.521825       0.698026
                                                         1.453920      -1.511486
                                                         0.614053      -0.335394
                                                         0.232656      -0.025564
                                                         0.074788      -0.002699

                          1       6    6dx2              2.521825       0.831079
                                                         1.453920      -0.709226
                                                         0.614053      -0.137351
                                                         0.232656       0.068642
                                                         0.074788       0.011745
                          1       6    6dxy              2.521825       1.439472
                                                         1.453920      -1.228415
                                                         0.614053      -0.237899
                                                         0.232656       0.118891
                                                         0.074788       0.020343
                          1       6    6dxz              2.521825       1.439472
                                                         1.453920      -1.228415
                                                         0.614053      -0.237899
                                                         0.232656       0.118891
                                                         0.074788       0.020343
                          1       6    6dy2              2.521825       0.831079
                                                         1.453920      -0.709226
                                                         0.614053      -0.137351
                                                         0.232656       0.068642
                                                         0.074788       0.011745
                          1       6    6dyz              2.521825       1.439472
                                                         1.453920      -1.228415
                                                         0.614053      -0.237899
                                                         0.232656       0.118891
                                                         0.074788       0.020343
                          1       6    6dz2              2.521825       0.831079
                                                         1.453920      -0.709226
                                                         0.614053      -0.137351
                                                         0.232656       0.068642
                                                         0.074788       0.011745

       Atomic covalent radius [Angstrom]:                                  1.300

       Atomic van der Waals radius [Angstrom]:                             1.750

     GTH Potential information for                                   GTH-PBE-q10

       Description:                       Goedecker-Teter-Hutter pseudopotential
                                           Goedecker et al., PRB 54, 1703 (1996)
                                          Hartwigsen et al., PRB 58, 3641 (1998)
                                                      Krack, TCA 114, 145 (2005)

       Gaussian exponent of the core charge distribution:               1.317676
       Electronic configuration (s p d ...):                           1   0   9

       Parameters of the local part of the GTH pseudopotential:

                          rloc        C1          C2          C3          C4
                        0.616000   11.313635

       Parameters of the non-local part of the GTH pseudopotential:

                   l      r(l)      h(i,j,l)

                   0    0.550904    4.733491   -1.784594
                                   -1.784594    2.303901
                   1    0.674138    2.534798   -1.778066
                                   -1.778066    2.103836
                   2    0.457392   -7.264011    2.558665
                                    2.558665   -2.901253


 MOLECULE KIND INFORMATION


 All atoms are their own molecule, skipping detailed information


 TOTAL NUMBERS AND MAXIMUM NUMBERS

  Total number of            - Atomic kinds:                                   1
                             - Atoms:                                        216
                             - Shell sets:                                   216
                             - Shells:                                      1296
                             - Primitive Cartesian functions:               1080
                             - Cartesian basis functions:                   4968
                             - Spherical basis functions:                   4320

  Maximum angular momentum of- Orbital basis functions:                        2
                             - Local part of the GTH pseudopotential:          0
                             - Non-local part of the GTH pseudopotential:      4


 MODULE QUICKSTEP:  ATOMIC COORDINATES IN angstrom

 Atom  Kind  Element       X           Y           Z          Z(eff)       Mass
    1   1 Pt  78       2.158367    0.444470   19.814934      10.0000    195.0840
    2   1 Pt  78       5.058368    0.554470   20.074933      10.0000    195.0840
    3   1 Pt  78       7.748368    0.444470   19.984933      10.0000    195.0840
    4   1 Pt  78      10.548368    0.474471   19.984933      10.0000    195.0840
    5   1 Pt  78      13.218367    0.524470   19.924935      10.0000    195.0840
    6   1 Pt  78      16.258367    0.484470   20.024933      10.0000    195.0840
    7   1 Pt  78       3.468367    2.784471   20.074933      10.0000    195.0840
    8   1 Pt  78       6.328368    2.934470   20.024933      10.0000    195.0840
    9   1 Pt  78       9.188368    2.874471   19.904935      10.0000    195.0840
   10   1 Pt  78      11.938368    2.874471   19.964936      10.0000    195.0840
   11   1 Pt  78      14.718368    2.884471   20.084931      10.0000    195.0840
   12   1 Pt  78       0.718367    2.914470   20.034936      10.0000    195.0840
   13   1 Pt  78       4.828368    5.274471   19.994935      10.0000    195.0840
   14   1 Pt  78       7.648368    5.454471   19.964936      10.0000    195.0840
   15   1 Pt  78      10.398368    5.334471   20.084931      10.0000    195.0840
   16   1 Pt  78      13.238367    5.334471   20.044934      10.0000    195.0840
   17   1 Pt  78      -0.701633    5.264471   20.164933      10.0000    195.0840
   18   1 Pt  78       2.078367    5.334471   19.944932      10.0000    195.0840
   19   1 Pt  78       6.238367    7.764471   19.934933      10.0000    195.0840
   20   1 Pt  78       8.968367    7.764471   19.874932      10.0000    195.0840
   21   1 Pt  78      11.938368    7.694471   19.824937      10.0000    195.0840
   22   1 Pt  78      -2.121633    7.734471   20.074933      10.0000    195.0840
   23   1 Pt  78       0.608367    7.974471   20.044934      10.0000    195.0840
   24   1 Pt  78       3.488367    7.894471   20.024933      10.0000    195.0840
   25   1 Pt  78       7.758367   10.214471   19.904935      10.0000    195.0840
   26   1 Pt  78      10.508367   10.004472   19.694935      10.0000    195.0840
   27   1 Pt  78      -3.551633   10.214471   19.844933      10.0000    195.0840
   28   1 Pt  78      -0.751633   10.254472   19.864934      10.0000    195.0840
   29   1 Pt  78       2.068367   10.244470   20.164933      10.0000    195.0840
   30   1 Pt  78       4.898368   10.364471   20.014931      10.0000    195.0840
   31   1 Pt  78       9.208368   12.634472   19.744935      10.0000    195.0840
   32   1 Pt  78      -4.941633   12.554471   19.834935      10.0000    195.0840
   33   1 Pt  78      -2.131633   12.514471   20.074933      10.0000    195.0840
   34   1 Pt  78       0.748367   12.764472   19.964936      10.0000    195.0840
   35   1 Pt  78       3.548368   12.734471   19.874932      10.0000    195.0840
   36   1 Pt  78       6.388367   12.634472   19.834935      10.0000    195.0840
   37   1 Pt  78       0.638367    1.324470   22.314934      10.0000    195.0840
   38   1 Pt  78       3.518368    1.204470   22.314934      10.0000    195.0840
   39   1 Pt  78       6.438368    1.254470   22.384934      10.0000    195.0840
   40   1 Pt  78       9.148368    1.204470   22.394936      10.0000    195.0840
   41   1 Pt  78      11.868368    1.334470   22.394936      10.0000    195.0840
   42   1 Pt  78      14.738369    1.234471   22.324937      10.0000    195.0840
   43   1 Pt  78       2.118367    3.674471   22.284932      10.0000    195.0840
   44   1 Pt  78       4.988367    3.734471   22.324937      10.0000    195.0840
   45   1 Pt  78       7.798368    3.694471   22.384934      10.0000    195.0840
   46   1 Pt  78      10.538368    3.674471   22.414933      10.0000    195.0840
   47   1 Pt  78      13.398368    3.754471   22.364934      10.0000    195.0840
   48   1 Pt  78      -0.731633    3.654470   22.414933      10.0000    195.0840
   49   1 Pt  78       3.568368    6.184470   22.274933      10.0000    195.0840
   50   1 Pt  78       6.368367    6.134471   22.304932      10.0000    195.0840
   51   1 Pt  78       9.078368    6.094471   22.434933      10.0000    195.0840
   52   1 Pt  78      11.878368    6.234471   22.344933      10.0000    195.0840
   53   1 Pt  78      -2.061633    6.194471   22.334935      10.0000    195.0840
   54   1 Pt  78       0.698367    6.084471   22.364934      10.0000    195.0840
   55   1 Pt  78       5.028368    8.514471   22.344933      10.0000    195.0840
   56   1 Pt  78       7.748368    8.594471   22.324937      10.0000    195.0840
   57   1 Pt  78      10.528368    8.704470   22.154935      10.0000    195.0840
   58   1 Pt  78      -3.511633    8.604471   22.234933      10.0000    195.0840
   59   1 Pt  78      -0.531633    8.614470   22.314934      10.0000    195.0840
   60   1 Pt  78       2.208367    8.604471   22.434933      10.0000    195.0840
   61   1 Pt  78       6.288368   11.174472   22.334935      10.0000    195.0840
   62   1 Pt  78       9.068368   11.164470   22.134934      10.0000    195.0840
   63   1 Pt  78      -4.931633   11.044471   22.234933      10.0000    195.0840
   64   1 Pt  78      -2.021633   10.894471   22.244935      10.0000    195.0840
   65   1 Pt  78       0.788367   11.074471   22.374932      10.0000    195.0840
   66   1 Pt  78       3.638367   11.094471   22.324937      10.0000    195.0840
   67   1 Pt  78       7.738368   13.464471   22.184933      10.0000    195.0840
   68   1 Pt  78      -6.311633   13.454471   22.174935      10.0000    195.0840
   69   1 Pt  78      -3.521633   13.484471   22.294934      10.0000    195.0840
   70   1 Pt  78      -0.741633   13.424472   22.274933      10.0000    195.0840
   71   1 Pt  78       2.148367   13.484471   22.394936      10.0000    195.0840
   72   1 Pt  78       4.968367   13.604472   22.224934      10.0000    195.0840
   73   1 Pt  78      -7.691633   14.204470   24.574937      10.0000    195.0840
   74   1 Pt  78      -4.941633   14.234471   24.494935      10.0000    195.0840
   75   1 Pt  78      -2.051633   14.114471   24.614934      10.0000    195.0840
   76   1 Pt  78       0.668367   14.134471   24.694932      10.0000    195.0840
   77   1 Pt  78       3.498368   14.174471   24.654935      10.0000    195.0840
   78   1 Pt  78       6.358368   14.274470   24.714936      10.0000    195.0840
   79   1 Pt  78       2.108367    2.154470   24.594933      10.0000    195.0840
   80   1 Pt  78       4.988367    2.114471   24.624932      10.0000    195.0840
   81   1 Pt  78       7.748368    2.024471   24.704934      10.0000    195.0840
   82   1 Pt  78      10.508367    1.964471   24.694932      10.0000    195.0840
   83   1 Pt  78      13.378368    2.004470   24.744935      10.0000    195.0840
   84   1 Pt  78      -0.671633    2.034471   24.644936      10.0000    195.0840
   85   1 Pt  78       3.588368    4.554471   24.584935      10.0000    195.0840
   86   1 Pt  78       6.398368    4.494471   24.654935      10.0000    195.0840
   87   1 Pt  78       9.188368    4.434470   24.724934      10.0000    195.0840
   88   1 Pt  78      11.948368    4.514471   24.664933      10.0000    195.0840
   89   1 Pt  78      -2.141633    4.424471   24.644936      10.0000    195.0840
   90   1 Pt  78       0.728367    4.494471   24.664933      10.0000    195.0840
   91   1 Pt  78       4.958368    6.974471   24.694932      10.0000    195.0840
   92   1 Pt  78       7.698368    6.904471   24.664933      10.0000    195.0840
   93   1 Pt  78      10.498368    7.084471   24.584935      10.0000    195.0840
   94   1 Pt  78      -3.601633    6.894471   24.564934      10.0000    195.0840
   95   1 Pt  78      -0.681633    6.894471   24.684933      10.0000    195.0840
   96   1 Pt  78       2.138367    6.894471   24.624932      10.0000    195.0840
   97   1 Pt  78       6.368367    9.394471   24.644936      10.0000    195.0840
   98   1 Pt  78       9.128368    9.334471   24.574937      10.0000    195.0840
   99   1 Pt  78      -4.891633    9.384471   24.534936      10.0000    195.0840
  100   1 Pt  78      -2.091633    9.264471   24.594933      10.0000    195.0840
  101   1 Pt  78       0.808367    9.244471   24.614934      10.0000    195.0840
  102   1 Pt  78       3.528368    9.334471   24.694932      10.0000    195.0840
  103   1 Pt  78       7.758367   11.884471   24.644936      10.0000    195.0840
  104   1 Pt  78      -6.421633   11.814471   24.504933      10.0000    195.0840
  105   1 Pt  78      -3.481633   11.804471   24.504933      10.0000    195.0840
  106   1 Pt  78      -0.731633   11.634471   24.624932      10.0000    195.0840
  107   1 Pt  78       2.138367   11.814471   24.744935      10.0000    195.0840
  108   1 Pt  78       4.908367   11.904471   24.714936      10.0000    195.0840
  109   1 Pt  78       2.138367    0.384470   26.842932      10.0000    195.0840
  110   1 Pt  78       4.958368    0.334470   26.822932      10.0000    195.0840
  111   1 Pt  78       7.688368    0.374470   26.972932      10.0000    195.0840
  112   1 Pt  78      10.428367    0.434471   27.062932      10.0000    195.0840
  113   1 Pt  78      13.308368    0.334470   27.032932      10.0000    195.0840
  114   1 Pt  78      16.048367    0.384470   26.952932      10.0000    195.0840
  115   1 Pt  78       3.508367    2.854471   26.892932      10.0000    195.0840
  116   1 Pt  78       6.288368    2.894470   27.002932      10.0000    195.0840
  117   1 Pt  78       9.058368    2.914470   27.002932      10.0000    195.0840
  118   1 Pt  78      11.878368    2.884471   27.022932      10.0000    195.0840
  119   1 Pt  78      14.728368    2.804470   26.942932      10.0000    195.0840
  120   1 Pt  78       0.678367    2.734470   26.972932      10.0000    195.0840
  121   1 Pt  78       4.908367    5.264471   26.902932      10.0000    195.0840
  122   1 Pt  78       7.648368    5.364471   27.022932      10.0000    195.0840
  123   1 Pt  78      10.508367    5.374471   26.962932      10.0000    195.0840
  124   1 Pt  78      13.258368    5.204470   26.912932      10.0000    195.0840
  125   1 Pt  78      -0.661633    5.244470   26.912932      10.0000    195.0840
  126   1 Pt  78       2.218367    5.234471   26.872932      10.0000    195.0840
  127   1 Pt  78       6.268368    7.804471   26.922932      10.0000    195.0840
  128   1 Pt  78       9.118368    7.804471   26.982932      10.0000    195.0840
  129   1 Pt  78      11.908369    7.654471   26.902932      10.0000    195.0840
  130   1 Pt  78      -2.131633    7.614470   26.912932      10.0000    195.0840
  131   1 Pt  78       0.688367    7.614470   26.972932      10.0000    195.0840
  132   1 Pt  78       3.488367    7.744470   26.992932      10.0000    195.0840
  133   1 Pt  78       7.698368   10.194470   26.872932      10.0000    195.0840
  134   1 Pt  78      10.558368   10.154471   26.862932      10.0000    195.0840
  135   1 Pt  78      -3.501633   10.114470   26.862932      10.0000    195.0840
  136   1 Pt  78      -0.701633   10.014471   27.002932      10.0000    195.0840
  137   1 Pt  78       1.988367   10.154471   27.002932      10.0000    195.0840
  138   1 Pt  78       4.808368   10.184472   26.942932      10.0000    195.0840
  139   1 Pt  78       9.038368   12.634472   26.972932      10.0000    195.0840
  140   1 Pt  78      -4.991633   12.464471   26.732932      10.0000    195.0840
  141   1 Pt  78      -2.141633   12.504472   26.922932      10.0000    195.0840
  142   1 Pt  78       0.568367   12.494471   27.042932      10.0000    195.0840
  143   1 Pt  78       3.368367   12.584471   27.132932      10.0000    195.0840
  144   1 Pt  78       6.198367   12.604471   27.012932      10.0000    195.0840
  145   1 Pt  78       0.698367    1.044470   29.092933      10.0000    195.0840
  146   1 Pt  78       3.538367    1.094471   29.062932      10.0000    195.0840
  147   1 Pt  78       6.328368    1.264470   29.132932      10.0000    195.0840
  148   1 Pt  78       9.158368    1.274470   29.272932      10.0000    195.0840
  149   1 Pt  78      11.888367    1.264470   29.342932      10.0000    195.0840
  150   1 Pt  78      14.618368    1.194470   29.352932      10.0000    195.0840
  151   1 Pt  78       2.078367    3.444471   29.242932      10.0000    195.0840
  152   1 Pt  78       4.908367    3.594471   29.252932      10.0000    195.0840
  153   1 Pt  78       7.668368    3.584471   29.362932      10.0000    195.0840
  154   1 Pt  78      10.578368    3.674471   29.292932      10.0000    195.0840
  155   1 Pt  78      13.338368    3.684471   29.172932      10.0000    195.0840
  156   1 Pt  78      -0.781633    3.534471   29.252932      10.0000    195.0840
  157   1 Pt  78       3.558368    5.944471   29.292932      10.0000    195.0840
  158   1 Pt  78       6.348368    6.014471   29.312932      10.0000    195.0840
  159   1 Pt  78       9.108368    5.974471   29.412932      10.0000    195.0840
  160   1 Pt  78      11.858369    6.074471   29.262933      10.0000    195.0840
  161   1 Pt  78      -2.181633    6.024471   29.192933      10.0000    195.0840
  162   1 Pt  78       0.758367    5.854471   29.262933      10.0000    195.0840
  163   1 Pt  78       4.858368    8.434471   29.302932      10.0000    195.0840
  164   1 Pt  78       7.688368    8.364471   29.292932      10.0000    195.0840
  165   1 Pt  78      10.458368    8.434471   29.182932      10.0000    195.0840
  166   1 Pt  78      -3.631633    8.524471   29.182932      10.0000    195.0840
  167   1 Pt  78      -0.771633    8.444470   29.302932      10.0000    195.0840
  168   1 Pt  78       2.018367    8.434471   29.262933      10.0000    195.0840
  169   1 Pt  78       6.238367   10.894471   29.322932      10.0000    195.0840
  170   1 Pt  78       8.998368   10.814471   29.092933      10.0000    195.0840
  171   1 Pt  78      -5.041633   10.954470   29.232933      10.0000    195.0840
  172   1 Pt  78      -2.161633   10.864471   29.182932      10.0000    195.0840
  173   1 Pt  78       0.578367   11.014471   29.392933      10.0000    195.0840
  174   1 Pt  78       3.348368   10.884471   29.422933      10.0000    195.0840
  175   1 Pt  78       7.678367   13.244471   29.242932      10.0000    195.0840
  176   1 Pt  78      -6.381633   13.324471   29.132932      10.0000    195.0840
  177   1 Pt  78      -3.531633   13.284470   29.172932      10.0000    195.0840
  178   1 Pt  78      -0.841633   13.494471   29.352932      10.0000    195.0840
  179   1 Pt  78       1.978367   13.434471   29.442933      10.0000    195.0840
  180   1 Pt  78       4.808368   13.324471   29.462933      10.0000    195.0840
  181   1 Pt  78      -7.741633   14.084471   31.512932      10.0000    195.0840
  182   1 Pt  78      -4.961633   13.984471   31.422933      10.0000    195.0840
  183   1 Pt  78      -2.201633   14.094471   31.622933      10.0000    195.0840
  184   1 Pt  78       0.448367   14.144472   31.682933      10.0000    195.0840
  185   1 Pt  78       3.438367   14.094471   31.762933      10.0000    195.0840
  186   1 Pt  78       6.368367   14.154471   31.562932      10.0000    195.0840
  187   1 Pt  78       2.098368    1.764471   31.572933      10.0000    195.0840
  188   1 Pt  78       4.898368    1.874471   31.552933      10.0000    195.0840
  189   1 Pt  78       7.638368    1.954470   31.742932      10.0000    195.0840
  190   1 Pt  78      10.348368    1.974471   31.722933      10.0000    195.0840
  191   1 Pt  78      13.328368    1.994471   31.722933      10.0000    195.0840
  192   1 Pt  78      -0.751633    1.924471   31.502933      10.0000    195.0840
  193   1 Pt  78       3.438367    4.164470   31.542932      10.0000    195.0840
  194   1 Pt  78       6.158367    4.214471   31.652932      10.0000    195.0840
  195   1 Pt  78       8.958368    4.274471   31.782932      10.0000    195.0840
  196   1 Pt  78      11.948368    4.384471   31.592933      10.0000    195.0840
  197   1 Pt  78      -2.171633    4.334471   31.612932      10.0000    195.0840
  198   1 Pt  78       0.598367    4.234471   31.612932      10.0000    195.0840
  199   1 Pt  78       4.898368    6.804471   31.672933      10.0000    195.0840
  200   1 Pt  78       7.618367    6.754471   31.782932      10.0000    195.0840
  201   1 Pt  78      10.518368    6.804471   31.662932      10.0000    195.0840
  202   1 Pt  78      -3.541633    6.824470   31.512932      10.0000    195.0840
  203   1 Pt  78      -0.801633    6.644470   31.462933      10.0000    195.0840
  204   1 Pt  78       2.128367    6.644470   31.582932      10.0000    195.0840
  205   1 Pt  78       6.198367    9.154471   31.562932      10.0000    195.0840
  206   1 Pt  78       9.008367    9.224471   31.612932      10.0000    195.0840
  207   1 Pt  78      -4.921633    9.124471   31.562932      10.0000    195.0840
  208   1 Pt  78      -2.181633    9.194471   31.582932      10.0000    195.0840
  209   1 Pt  78       0.578367    9.284471   31.582932      10.0000    195.0840
  210   1 Pt  78       3.378367    9.164470   31.522932      10.0000    195.0840
  211   1 Pt  78       7.698368   11.704470   31.652932      10.0000    195.0840
  212   1 Pt  78      -6.231633   11.454471   31.622933      10.0000    195.0840
  213   1 Pt  78      -3.451633   11.544471   31.632933      10.0000    195.0840
  214   1 Pt  78      -0.811633   11.744471   31.612932      10.0000    195.0840
  215   1 Pt  78       2.018367   11.704470   31.712933      10.0000    195.0840
  216   1 Pt  78       4.988367   11.634471   31.742932      10.0000    195.0840




 SCF PARAMETERS         Density guess:                                   RESTART
                        --------------------------------------------------------
                        max_scf:                                             500
                        max_scf_history:                                       0
                        max_diis:                                              4
                        --------------------------------------------------------
                        eps_scf:                                        1.00E-06
                        eps_scf_history:                                0.00E+00
                        eps_diis:                                       1.00E-01
                        eps_eigval:                                     1.00E-05
                        --------------------------------------------------------
                        level_shift [a.u.]:                             0.000000
                        added MOs                                       500    0
                        --------------------------------------------------------
                        Mixing method:                            BROYDEN_MIXING
                                                charge density mixing in g-space
                        --------------------------------------------------------
                        Smear method:                                FERMI_DIRAC
                        Electronic temperature [K]:                        300.0
                        Electronic temperature [a.u.]:                  9.50E-04
                        Accuracy threshold:                             1.00E-10
                        --------------------------------------------------------
                        No outer SCF

 PW_GRID| Information for grid number                                          1
 PW_GRID| Grid distributed over                                    32 processors
 PW_GRID| Real space group dimensions                                    32    1
 PW_GRID| the grid is blocked:                                                NO
 PW_GRID| Cutoff [a.u.]                                                    200.0
 PW_GRID| spherical cutoff:                                                   NO
 PW_GRID|   Bounds   1           -105     104                Points:         210
 PW_GRID|   Bounds   2           -105     104                Points:         210
 PW_GRID|   Bounds   3           -315     314                Points:         630
 PW_GRID| Volume element (a.u.^3)  0.3081E-02     Volume (a.u.^3)     85609.9578
 PW_GRID| Grid span                                                    FULLSPACE
 PW_GRID|   Distribution                         Average         Max         Min
 PW_GRID|   G-Vectors                           868218.8      868350      868140
 PW_GRID|   G-Rays                                4134.4        4135        4134
 PW_GRID|   Real Space Points                   868218.8      926100      793800

 PW_GRID| Information for grid number                                          2
 PW_GRID| Number of the reference grid                                         1
 PW_GRID| Grid distributed over                                    32 processors
 PW_GRID| Real space group dimensions                                    32    1
 PW_GRID| the grid is blocked:                                                NO
 PW_GRID| Cutoff [a.u.]                                                     66.7
 PW_GRID| spherical cutoff:                                                   NO
 PW_GRID|   Bounds   1            -60      59                Points:         120
 PW_GRID|   Bounds   2            -60      59                Points:         120
 PW_GRID|   Bounds   3           -180     179                Points:         360
 PW_GRID| Volume element (a.u.^3)  0.1651E-01     Volume (a.u.^3)     85609.9578
 PW_GRID| Grid span                                                    FULLSPACE
 PW_GRID|   Distribution                         Average         Max         Min
 PW_GRID|   G-Vectors                           162000.0      162840      161280
 PW_GRID|   G-Rays                                1350.0        1357        1344
 PW_GRID|   Real Space Points                   162000.0      172800      129600

 PW_GRID| Information for grid number                                          3
 PW_GRID| Number of the reference grid                                         1
 PW_GRID| Grid distributed over                                    32 processors
 PW_GRID| Real space group dimensions                                    32    1
 PW_GRID| the grid is blocked:                                                NO
 PW_GRID| Cutoff [a.u.]                                                     22.2
 PW_GRID| spherical cutoff:                                                   NO
 PW_GRID|   Bounds   1            -35      34                Points:          70
 PW_GRID|   Bounds   2            -35      34                Points:          70
 PW_GRID|   Bounds   3           -105     104                Points:         210
 PW_GRID| Volume element (a.u.^3)  0.8320E-01     Volume (a.u.^3)     85609.9578
 PW_GRID| Grid span                                                    FULLSPACE
 PW_GRID|   Distribution                         Average         Max         Min
 PW_GRID|   G-Vectors                            32156.2       32340       31990
 PW_GRID|   G-Rays                                 459.4         462         457
 PW_GRID|   Real Space Points                    32156.2       44100       29400

 PW_GRID| Information for grid number                                          4
 PW_GRID| Number of the reference grid                                         1
 PW_GRID| Grid distributed over                                    32 processors
 PW_GRID| Real space group dimensions                                    32    1
 PW_GRID| the grid is blocked:                                                NO
 PW_GRID| Cutoff [a.u.]                                                      7.4
 PW_GRID| spherical cutoff:                                                   NO
 PW_GRID|   Bounds   1            -20      19                Points:          40
 PW_GRID|   Bounds   2            -20      19                Points:          40
 PW_GRID|   Bounds   3            -60      59                Points:         120
 PW_GRID| Volume element (a.u.^3)  0.4459         Volume (a.u.^3)     85609.9578
 PW_GRID| Grid span                                                    FULLSPACE
 PW_GRID|   Distribution                         Average         Max         Min
 PW_GRID|   G-Vectors                             6000.0        6120        5920
 PW_GRID|   G-Rays                                 150.0         153         148
 PW_GRID|   Real Space Points                     6000.0        9600        4800

 POISSON| Solver                                          IMPLICIT (GENERALIZED)
 POISSON| Boundary Condition                                PERIODIC & DIRICHLET
 POISSON| Maximum number of iterations                                        30
 POISSON| Convergence threshold                                         1.00E-08
 POISSON| Dielectric Constant                                              80.00
 POISSON| Relaxation parameter                                          1.00E+00

 RS_GRID| Information for grid number                                          1
 RS_GRID|   Bounds   1           -105     104                Points:         210
 RS_GRID|   Bounds   2           -105     104                Points:         210
 RS_GRID|   Bounds   3           -315     314                Points:         630
 RS_GRID| Real space distribution over                                 32 groups
 RS_GRID| Real space distribution along direction                              3
 RS_GRID| Border size                                                         54
 RS_GRID|   Distribution                         Average         Max         Min
 RS_GRID|   Planes                                 127.7         128         127

 RS_GRID| Information for grid number                                          2
 RS_GRID|   Bounds   1            -60      59                Points:         120
 RS_GRID|   Bounds   2            -60      59                Points:         120
 RS_GRID|   Bounds   3           -180     179                Points:         360
 RS_GRID| Real space distribution over                                 32 groups
 RS_GRID| Real space distribution along direction                              3
 RS_GRID| Border size                                                         36
 RS_GRID|   Distribution                         Average         Max         Min
 RS_GRID|   Planes                                  83.2          84          83

 RS_GRID| Information for grid number                                          3
 RS_GRID|   Bounds   1            -35      34                Points:          70
 RS_GRID|   Bounds   2            -35      34                Points:          70
 RS_GRID|   Bounds   3           -105     104                Points:         210
 RS_GRID| Real space fully replicated
 RS_GRID| Group size                                                           1

 RS_GRID| Information for grid number                                          4
 RS_GRID|   Bounds   1            -20      19                Points:          40
 RS_GRID|   Bounds   2            -20      19                Points:          40
 RS_GRID|   Bounds   3            -60      59                Points:         120
 RS_GRID| Real space fully replicated
 RS_GRID| Group size                                                           1

 Number of electrons:                                                       2160
 Number of occupied orbitals:                                               1080
 Number of molecular orbitals:                                              1580

 Number of orbital functions:                                               4320
 Number of independent orbital functions:                                   4320

 Extrapolation method: initial_guess


 SCF WAVEFUNCTION OPTIMIZATION

  Step     Update method      Time    Convergence         Total energy    Change
  ------------------------------------------------------------------------------

  POISSON| IMPLICIT (GENERALIZED) SOLVER ---------------------------------------
  POISSON| Preparing Dirichlet regions ...
  POISSON| Dirichlet region    1
  POISSON|     type : axis-aligned planar
  POISSON|     applied potential :   0.0000E+00  [Eh/e]
  POISSON| Dirichlet region    2
  POISSON|     type : axis-aligned planar
  POISSON|     applied potential :   0.0000E+00  [Eh/e]
  POISSON| ... Done. 
  ------------------------------------------------------------------------------

  POISSON|   iter        pres error      nabs error        E_hartree    delta E
  POISSON|      1        0.6151E-06      0.3303E-01    1992.5246294114  0.20E+04
  POISSON|      2        0.1302E-14      0.6151E-06    1992.5246294114  0.23E-10
  POISSON| Poisson solver converged in 2 iterations.
     1 NoMix/Diag. 0.30E+00   11.1     0.24997099     -5670.8633415758 -5.67E+03
  POISSON|   iter        pres error      nabs error        E_hartree    delta E
  POISSON|      1        0.4826E-05      0.3279E-01    1992.3551000872 -0.17E+00
  POISSON|      2        0.1333E-14      0.4826E-05    1992.3551000872  0.23E-10
  POISSON| Poisson solver converged in 2 iterations.
     2 Broy./Diag. 0.30E+00   13.2     0.28201418     -5670.4781292965  3.85E-01
  POISSON|   iter        pres error      nabs error        E_hartree    delta E
  POISSON|      1        0.1195E-04      0.3210E-03    1992.5632432344  0.21E+00
  POISSON|      2        0.1808E-16      0.1195E-04    1992.5632432344  0.11E-11
  POISSON| Poisson solver converged in 2 iterations.
     3 Broy./Diag. 0.30E+00   13.3     0.13548200     -5676.1050666585 -5.63E+00
  POISSON|   iter        pres error      nabs error        E_hartree    delta E
  POISSON|      1        0.5249E-04      0.2172E-03    1992.6608138495  0.98E-01
  POISSON|      2        0.1135E-17      0.5249E-04    1992.6608138495  0.45E-12
  POISSON| Poisson solver converged in 2 iterations.
     4 Broy./Diag. 0.30E+00   13.3     0.11085152     -5673.1156606655  2.99E+00
  POISSON|   iter        pres error      nabs error        E_hartree    delta E
  POISSON|      1        0.6693E-04      0.2681E-03    1992.6976264014  0.37E-01
  POISSON|      2        0.4936E-17      0.6693E-04    1992.6976264014  0.68E-12
  POISSON| Poisson solver converged in 2 iterations.
     5 Broy./Diag. 0.30E+00   13.2     0.11535439     -5671.8971581886  1.22E+00
  POISSON|   iter        pres error      nabs error        E_hartree    delta E
  POISSON|      1        0.2402E-04      0.1092E-03    1992.7757029913  0.78E-01
  POISSON|      2        0.2891E-17      0.2402E-04    1992.7757029913  0.18E-11
  POISSON| Poisson solver converged in 2 iterations.
     6 Broy./Diag. 0.30E+00   13.3     0.08178148     -5672.3753674583 -4.78E-01
  POISSON|   iter        pres error      nabs error        E_hartree    delta E
  POISSON|      1        0.3849E-05      0.4144E-04    1992.8824771845  0.11E+00
  POISSON|      2        0.9257E-18      0.3849E-05    1992.8824771845  0.68E-12
  POISSON| Poisson solver converged in 2 iterations.
     7 Broy./Diag. 0.30E+00   13.3     0.03412397     -5672.6445057105 -2.69E-01
  POISSON|   iter        pres error      nabs error        E_hartree    delta E
  POISSON|      1        0.1152E-05      0.2368E-04    1992.9508575066  0.68E-01
  POISSON|      2        0.6655E-18      0.1152E-05    1992.9508575066 -0.23E-12
  POISSON| Poisson solver converged in 2 iterations.
     8 Broy./Diag. 0.30E+00   13.3     0.02336921     -5672.2815254078  3.63E-01
  POISSON|   iter        pres error      nabs error        E_hartree    delta E
  POISSON|      1        0.4017E-06      0.1264E-04    1992.9876413152  0.37E-01
  POISSON|      2        0.7015E-19      0.4017E-06    1992.9876413152 -0.23E-12
  POISSON| Poisson solver converged in 2 iterations.
     9 Broy./Diag. 0.30E+00   13.4     0.01477655     -5672.3423117770 -6.08E-02
  POISSON|   iter        pres error      nabs error        E_hartree    delta E
  POISSON|      1        0.3638E-07      0.7344E-05    1993.0003135387  0.13E-01
  POISSON|      2        0.1314E-18      0.3638E-07    1993.0003135387 -0.45E-12
  POISSON| Poisson solver converged in 2 iterations.
    10 Broy./Diag. 0.30E+00   13.5     0.00647316     -5672.2512552248  9.11E-02
  POISSON|   iter        pres error      nabs error        E_hartree    delta E
  POISSON|      1        0.8613E-07      0.4717E-05    1993.0078840962  0.76E-02
  POISSON|      2        0.8673E-19      0.8613E-07    1993.0078840962 -0.45E-12
  POISSON| Poisson solver converged in 2 iterations.
    11 Broy./Diag. 0.30E+00   13.5     0.00397926     -5672.2667774536 -1.55E-02
  POISSON|   iter        pres error      nabs error        E_hartree    delta E
  POISSON|      1        0.1953E-06      0.5258E-05    1993.0181576057  0.10E-01
  POISSON|      2        0.2536E-20      0.1953E-06    1993.0181576057 -0.11E-11
  POISSON| Poisson solver converged in 2 iterations.
    12 Broy./Diag. 0.30E+00   13.5     0.00210684     -5672.2600216751  6.76E-03
  POISSON|   iter        pres error      nabs error        E_hartree    delta E
  POISSON|      1        0.1553E-06      0.3978E-05    1993.0211619619  0.30E-02
  POISSON|      2        0.1586E-18      0.1553E-06    1993.0211619619  0.00E+00
  POISSON| Poisson solver converged in 2 iterations.
    13 Broy./Diag. 0.30E+00   13.5     0.00195663     -5672.2293308468  3.07E-02
  POISSON|   iter        pres error      nabs error        E_hartree    delta E
  POISSON|      1        0.1922E-06      0.2058E-05    1993.0225400661  0.14E-02
  POISSON|      2        0.7124E-20      0.1922E-06    1993.0225400661  0.00E+00
  POISSON| Poisson solver converged in 2 iterations.
    14 Broy./Diag. 0.30E+00   13.5     0.00080818     -5672.2620246931 -3.27E-02
  POISSON|   iter        pres error      nabs error        E_hartree    delta E
  POISSON|      1        0.6168E-06      0.2564E-05    1993.0233461416  0.81E-03
  POISSON|      2        0.3462E-19      0.6168E-06    1993.0233461416  0.00E+00
  POISSON| Poisson solver converged in 2 iterations.
    15 Broy./Diag. 0.30E+00   13.5     0.00123827     -5672.2549083877  7.12E-03
  POISSON|   iter        pres error      nabs error        E_hartree    delta E
  POISSON|      1        0.6573E-06      0.2896E-05    1993.0230200636 -0.33E-03
  POISSON|      2        0.1937E-19      0.6573E-06    1993.0230200636  0.00E+00
  POISSON| Poisson solver converged in 2 iterations.
    16 Broy./Diag. 0.30E+00   13.5     0.00147552     -5672.2494472981  5.46E-03
  POISSON|   iter        pres error      nabs error        E_hartree    delta E
  POISSON|      1        0.2259E-06      0.2256E-05    1993.0229233160 -0.97E-04
  POISSON|      2        0.8796E-19      0.2259E-06    1993.0229233160  0.00E+00
  POISSON| Poisson solver converged in 2 iterations.
    17 Broy./Diag. 0.30E+00   13.5     0.00111623     -5672.2533169231 -3.87E-03
  POISSON|   iter        pres error      nabs error        E_hartree    delta E
  POISSON|      1        0.1752E-07      0.1456E-05    1993.0231294756  0.21E-03
  POISSON|      2        0.1601E-19      0.1752E-07    1993.0231294756  0.00E+00
  POISSON| Poisson solver converged in 2 iterations.
    18 Broy./Diag. 0.30E+00   13.5     0.00054062     -5672.2621021535 -8.79E-03
  POISSON|   iter        pres error      nabs error        E_hartree    delta E
  POISSON|      1        0.2452E-07      0.1373E-05    1993.0233308655  0.20E-03
  POISSON|      2        0.4216E-19      0.2452E-07    1993.0233308655  0.23E-12
  POISSON| Poisson solver converged in 2 iterations.
    19 Broy./Diag. 0.30E+00   13.5     0.00028087     -5672.2567847710  5.32E-03
  POISSON|   iter        pres error      nabs error        E_hartree    delta E
  POISSON|      1        0.2111E-07      0.1102E-05    1993.0236410092  0.31E-03
  POISSON|      2        0.3003E-19      0.2111E-07    1993.0236410092  0.23E-12
  POISSON| Poisson solver converged in 2 iterations.
    20 Broy./Diag. 0.30E+00   13.5     0.00017755     -5672.2599813275 -3.20E-03
  POISSON|   iter        pres error      nabs error        E_hartree    delta E
  POISSON|      1        0.1842E-07      0.8288E-06    1993.0239598939  0.32E-03
  POISSON|      2        0.2148E-19      0.1842E-07    1993.0239598939 -0.23E-12
  POISSON| Poisson solver converged in 2 iterations.
    21 Broy./Diag. 0.30E+00   13.5     0.00016835     -5672.2600070881 -2.58E-05
  POISSON|   iter        pres error      nabs error        E_hartree    delta E
  POISSON|      1        0.4122E-07      0.1451E-05    1993.0245053217  0.55E-03
  POISSON|      2        0.4554E-19      0.4122E-07    1993.0245053217 -0.23E-12
  POISSON| Poisson solver converged in 2 iterations.
    22 Broy./Diag. 0.30E+00   13.5     0.00016418     -5672.2593116808  6.95E-04
  POISSON|   iter        pres error      nabs error        E_hartree    delta E
  POISSON|      1        0.5043E-08      0.1003E-05    1993.0249353952  0.43E-03
  POISSON| Poisson solver converged in 1 iteration. 
    23 Broy./Diag. 0.30E+00   12.2     0.00014104     -5672.2598999188 -5.88E-04
  POISSON|   iter        pres error      nabs error        E_hartree    delta E
  POISSON|      1        0.3336E-07      0.9825E-06    1993.0251884416  0.25E-03
  POISSON|      2        0.3223E-19      0.3336E-07    1993.0251884416  0.00E+00
  POISSON| Poisson solver converged in 2 iterations.
    24 Broy./Diag. 0.30E+00   13.6     0.00009767     -5672.2588044759  1.10E-03
  POISSON|   iter        pres error      nabs error        E_hartree    delta E
  POISSON|      1        0.8207E-07      0.4662E-06    1993.0252627417  0.74E-04
  POISSON|      2        0.1946E-20      0.8207E-07    1993.0252627417 -0.45E-12
  POISSON| Poisson solver converged in 2 iterations.
    25 Broy./Diag. 0.30E+00   13.5     0.00019600     -5672.2602276829 -1.42E-03
  POISSON|   iter        pres error      nabs error        E_hartree    delta E
  POISSON|      1        0.1182E-06      0.7600E-06    1993.0254544317  0.19E-03
  POISSON|      2        0.2445E-19      0.1182E-06    1993.0254544317 -0.23E-12
  POISSON| Poisson solver converged in 2 iterations.
    26 Broy./Diag. 0.30E+00   13.5     0.00020500     -5672.2597309509  4.97E-04
  POISSON|   iter        pres error      nabs error        E_hartree    delta E
  POISSON|      1        0.3792E-07      0.8320E-06    1993.0255919906  0.14E-03
  POISSON|      2        0.2045E-19      0.3792E-07    1993.0255919906 -0.45E-12
  POISSON| Poisson solver converged in 2 iterations.
    27 Broy./Diag. 0.30E+00   13.5     0.00017958     -5672.2591103094  6.21E-04
  POISSON|   iter        pres error      nabs error        E_hartree    delta E
  POISSON|      1        0.2121E-07      0.5691E-06    1993.0255971234  0.51E-05
  POISSON|      2        0.2012E-19      0.2121E-07    1993.0255971234 -0.23E-12
  POISSON| Poisson solver converged in 2 iterations.
    28 Broy./Diag. 0.30E+00   13.5     0.00012630     -5672.2592809587 -1.71E-04
  POISSON|   iter        pres error      nabs error        E_hartree    delta E
  POISSON|      1        0.6141E-08      0.5561E-06    1993.0256666206  0.69E-04
  POISSON| Poisson solver converged in 1 iteration. 
    29 Broy./Diag. 0.30E+00   12.1     0.00006878     -5672.2606667241 -1.39E-03
  POISSON|   iter        pres error      nabs error        E_hartree    delta E
  POISSON|      1        0.2789E-08      0.4742E-06    1993.0256553596 -0.11E-04
  POISSON| Poisson solver converged in 1 iteration. 
    30 Broy./Diag. 0.30E+00   12.2     0.00004801     -5672.2597986134  8.68E-04
  POISSON|   iter        pres error      nabs error        E_hartree    delta E
  POISSON|      1        0.5854E-08      0.4616E-06    1993.0256505780 -0.48E-05
  POISSON| Poisson solver converged in 1 iteration. 
    31 Broy./Diag. 0.30E+00   12.2     0.00005502     -5672.2604112579 -6.13E-04
  POISSON|   iter        pres error      nabs error        E_hartree    delta E
  POISSON|      1        0.2605E-08      0.3528E-06    1993.0256181084 -0.32E-04
  POISSON| Poisson solver converged in 1 iteration. 
    32 Broy./Diag. 0.30E+00   12.1     0.00004057     -5672.2605043081 -9.31E-05
  POISSON|   iter        pres error      nabs error        E_hartree    delta E
  POISSON|      1        0.8055E-08      0.3606E-06    1993.0256030124 -0.15E-04
  POISSON| Poisson solver converged in 1 iteration. 
    33 Broy./Diag. 0.30E+00   12.1     0.00002986     -5672.2606259934 -1.22E-04
  POISSON|   iter        pres error      nabs error        E_hartree    delta E
  POISSON|      1        0.1839E-08      0.2222E-06    1993.0256182726  0.15E-04
  POISSON| Poisson solver converged in 1 iteration. 
    34 Broy./Diag. 0.30E+00   12.1     0.00002206     -5672.2607564208 -1.30E-04
  POISSON|   iter        pres error      nabs error        E_hartree    delta E
  POISSON|      1        0.1825E-07      0.1659E-06    1993.0256235074  0.52E-05
  POISSON|      2        0.7748E-20      0.1825E-07    1993.0256235074  0.00E+00
  POISSON| Poisson solver converged in 2 iterations.
    35 Broy./Diag. 0.30E+00   13.6     0.00004154     -5672.2605473221  2.09E-04
  POISSON|   iter        pres error      nabs error        E_hartree    delta E
  POISSON|      1        0.1931E-07      0.1150E-06    1993.0256339247  0.10E-04
  POISSON|      2        0.1585E-20      0.1931E-07    1993.0256339247  0.00E+00
  POISSON| Poisson solver converged in 2 iterations.
    36 Broy./Diag. 0.30E+00   13.6     0.00004429     -5672.2607396948 -1.92E-04
  POISSON|   iter        pres error      nabs error        E_hartree    delta E
  POISSON|      1        0.1444E-07      0.1826E-06    1993.0256758111  0.42E-04
  POISSON|      2        0.7835E-20      0.1444E-07    1993.0256758111  0.23E-12
  POISSON| Poisson solver converged in 2 iterations.
    37 Broy./Diag. 0.30E+00   13.6     0.00003676     -5672.2607240224  1.57E-05
  POISSON|   iter        pres error      nabs error        E_hartree    delta E
  POISSON|      1        0.3422E-08      0.1560E-06    1993.0257183462  0.43E-04
  POISSON| Poisson solver converged in 1 iteration. 
    38 Broy./Diag. 0.30E+00   12.1     0.00003209     -5672.2605683538  1.56E-04
  POISSON|   iter        pres error      nabs error        E_hartree    delta E
  POISSON|      1        0.1488E-08      0.1283E-06    1993.0257414764  0.23E-04
  POISSON| Poisson solver converged in 1 iteration. 
    39 Broy./Diag. 0.30E+00   12.1     0.00002210     -5672.2603780199  1.90E-04
  POISSON|   iter        pres error      nabs error        E_hartree    delta E
  POISSON|      1        0.2532E-08      0.1218E-06    1993.0257825306  0.41E-04
  POISSON| Poisson solver converged in 1 iteration. 
    40 Broy./Diag. 0.30E+00   12.1     0.00001806     -5672.2606375778 -2.60E-04
  POISSON|   iter        pres error      nabs error        E_hartree    delta E
  POISSON|      1        0.3541E-09      0.1047E-06    1993.0257975396  0.15E-04
  POISSON| Poisson solver converged in 1 iteration. 
    41 Broy./Diag. 0.30E+00   12.2     0.00001468     -5672.2603382314  2.99E-04
  POISSON|   iter        pres error      nabs error        E_hartree    delta E
  POISSON|      1        0.1194E-08      0.1052E-06    1993.0258097140  0.12E-04
  POISSON| Poisson solver converged in 1 iteration. 
    42 Broy./Diag. 0.30E+00   12.1     0.00001010     -5672.2604052092 -6.70E-05
  POISSON|   iter        pres error      nabs error        E_hartree    delta E
  POISSON|      1        0.5166E-09      0.9371E-07    1993.0258110300  0.13E-05
  POISSON| Poisson solver converged in 1 iteration. 
    43 Broy./Diag. 0.30E+00   12.2     0.00000915     -5672.2603772876  2.79E-05
  POISSON|   iter        pres error      nabs error        E_hartree    delta E
  POISSON|      1        0.2500E-08      0.8994E-07    1993.0258023889 -0.86E-05
  POISSON| Poisson solver converged in 1 iteration. 
    44 Broy./Diag. 0.30E+00   12.1     0.00000682     -5672.2603914407 -1.42E-05
  POISSON|   iter        pres error      nabs error        E_hartree    delta E
  POISSON|      1        0.3145E-08      0.6470E-07    1993.0257981813 -0.42E-05
  POISSON| Poisson solver converged in 1 iteration. 
    45 Broy./Diag. 0.30E+00   12.1     0.00001078     -5672.2604563724 -6.49E-05
  POISSON|   iter        pres error      nabs error        E_hartree    delta E
  POISSON|      1        0.5525E-08      0.2977E-07    1993.0257948296 -0.34E-05
  POISSON| Poisson solver converged in 1 iteration. 
    46 Broy./Diag. 0.30E+00   12.1     0.00001286     -5672.2604082429  4.81E-05
  POISSON|   iter        pres error      nabs error        E_hartree    delta E
  POISSON|      1        0.3432E-08      0.7909E-07    1993.0257810555 -0.14E-04
  POISSON| Poisson solver converged in 1 iteration. 
    47 Broy./Diag. 0.30E+00   12.1     0.00001194     -5672.2604268197 -1.86E-05
  POISSON|   iter        pres error      nabs error        E_hartree    delta E
  POISSON|      1        0.2374E-08      0.5128E-07    1993.0257732571 -0.78E-05
  POISSON| Poisson solver converged in 1 iteration. 
    48 Broy./Diag. 0.30E+00   12.2     0.00000986     -5672.2604771723 -5.04E-05
  POISSON|   iter        pres error      nabs error        E_hartree    delta E
  POISSON|      1        0.4822E-10      0.3841E-07    1993.0257692933 -0.40E-05
  POISSON| Poisson solver converged in 1 iteration. 
    49 Broy./Diag. 0.30E+00   12.1     0.00000799     -5672.2604996893 -2.25E-05
  POISSON|   iter        pres error      nabs error        E_hartree    delta E
  POISSON|      1        0.1131E-09      0.6102E-07    1993.0257631892 -0.61E-05
  POISSON| Poisson solver converged in 1 iteration. 
    50 Broy./Diag. 0.30E+00   12.3     0.00000558     -5672.2604101105  8.96E-05
  POISSON|   iter        pres error      nabs error        E_hartree    delta E
  POISSON|      1        0.6281E-09      0.3077E-07    1993.0257644406  0.13E-05
  POISSON| Poisson solver converged in 1 iteration. 
    51 Broy./Diag. 0.30E+00   12.1     0.00000513     -5672.2605083622 -9.83E-05
  POISSON|   iter        pres error      nabs error        E_hartree    delta E
  POISSON|      1        0.2670E-09      0.3869E-07    1993.0257674753  0.30E-05
  POISSON| Poisson solver converged in 1 iteration. 
    52 Broy./Diag. 0.30E+00   12.1     0.00000398     -5672.2604450099  6.34E-05
  POISSON|   iter        pres error      nabs error        E_hartree    delta E
  POISSON|      1        0.8365E-09      0.3550E-07    1993.0257749206  0.74E-05
  POISSON| Poisson solver converged in 1 iteration. 
    53 Broy./Diag. 0.30E+00   12.2     0.00000310     -5672.2604520611 -7.05E-06
  POISSON|   iter        pres error      nabs error        E_hartree    delta E
  POISSON|      1        0.1970E-09      0.3281E-07    1993.0257838989  0.90E-05
  POISSON| Poisson solver converged in 1 iteration. 
    54 Broy./Diag. 0.30E+00   12.1     0.00000238     -5672.2604384630  1.36E-05
  POISSON|   iter        pres error      nabs error        E_hartree    delta E
  POISSON|      1        0.1381E-08      0.2188E-07    1993.0257885686  0.47E-05
  POISSON| Poisson solver converged in 1 iteration. 
    55 Broy./Diag. 0.30E+00   12.2     0.00000348     -5672.2604122403  2.62E-05
  POISSON|   iter        pres error      nabs error        E_hartree    delta E
  POISSON|      1        0.1587E-08      0.1123E-07    1993.0257912249  0.27E-05
  POISSON| Poisson solver converged in 1 iteration. 
    56 Broy./Diag. 0.30E+00   12.1     0.00000423     -5672.2604342120 -2.20E-05
  POISSON|   iter        pres error      nabs error        E_hartree    delta E
  POISSON|      1        0.1493E-08      0.2802E-07    1993.0257969529  0.57E-05
  POISSON| Poisson solver converged in 1 iteration. 
    57 Broy./Diag. 0.30E+00   12.1     0.00000327     -5672.2604227810  1.14E-05
  POISSON|   iter        pres error      nabs error        E_hartree    delta E
  POISSON|      1        0.7675E-09      0.1267E-07    1993.0257993112  0.24E-05
  POISSON| Poisson solver converged in 1 iteration. 
    58 Broy./Diag. 0.30E+00   12.2     0.00000373     -5672.2604163140  6.47E-06
  POISSON|   iter        pres error      nabs error        E_hartree    delta E
  POISSON|      1        0.3502E-09      0.1633E-07    1993.0258003983  0.11E-05
  POISSON| Poisson solver converged in 1 iteration. 
    59 Broy./Diag. 0.30E+00   12.1     0.00000297     -5672.2604167214 -4.07E-07
  POISSON|   iter        pres error      nabs error        E_hartree    delta E
  POISSON|      1        0.2549E-09      0.1222E-07    1993.0258021739  0.18E-05
  POISSON| Poisson solver converged in 1 iteration. 
    60 Broy./Diag. 0.30E+00   12.1     0.00000165     -5672.2604486219 -3.19E-05
  POISSON|   iter        pres error      nabs error        E_hartree    delta E
  POISSON|      1        0.1064E-11      0.1430E-07    1993.0258012230 -0.95E-06
  POISSON| Poisson solver converged in 1 iteration. 
    61 Broy./Diag. 0.30E+00   12.1     0.00000135     -5672.2604203712  2.83E-05
  POISSON|   iter        pres error      nabs error        E_hartree    delta E
  POISSON|      1        0.1689E-09      0.1062E-07    1993.0258005139 -0.71E-06
  POISSON| Poisson solver converged in 1 iteration. 
    62 Broy./Diag. 0.30E+00   12.1     0.00000115     -5672.2604469076 -2.65E-05
  POISSON|   iter        pres error      nabs error        E_hartree    delta E
  POISSON|      1        0.2122E-10      0.1330E-07    1993.0257981698 -0.23E-05
  POISSON| Poisson solver converged in 1 iteration. 
    63 Broy./Diag. 0.30E+00   12.1     0.00000086     -5672.2604411083  5.80E-06

  *** SCF run converged in    63 steps ***


  Electronic density on regular grids:      -2159.9999999992        0.0000000008
  Core density on regular grids:             2159.9999999995       -0.0000000005
  Total charge density on r-space grids:        0.0000000003
  Total charge density g-space grids:           0.0000000003

  Overlap energy of the core charge distribution:               0.00003223329389
  Self energy of the core charge distribution:              -9891.63555570741482
  Core Hamiltonian energy:                                   3202.16143544698207
  Hartree energy:                                            1993.02579816978186
  Electric enthalpy:                                         1993.02579816978186
  Exchange-correlation energy:                               -971.08333916202162
  Dispersion energy:                                           -4.69618092278219
  Electronic entropic energy:                                  -0.03263115013533
  Fermi energy:                                                -0.20803028757356

  Total energy:                                             -5672.26044110826660

 The electron density is written in cube file format to the file:

 cp2k-ELECTRON_DENSITY-1_0.cube

 !-----------------------------------------------------------------------------!
                     Mulliken Population Analysis

 #  Atom  Element  Kind  Atomic population                           Net charge
       1     Pt       1         10.045863                             -0.045863
       2     Pt       1         10.062608                             -0.062608
       3     Pt       1         10.044703                             -0.044703
       4     Pt       1         10.021475                             -0.021475
       5     Pt       1         10.027475                             -0.027475
       6     Pt       1         10.055136                             -0.055136
       7     Pt       1         10.039743                             -0.039743
       8     Pt       1         10.058693                             -0.058693
       9     Pt       1         10.045744                             -0.045744
      10     Pt       1         10.032007                             -0.032007
      11     Pt       1         10.063075                             -0.063075
      12     Pt       1         10.046491                             -0.046491
      13     Pt       1         10.061380                             -0.061380
      14     Pt       1         10.046026                             -0.046026
      15     Pt       1         10.055629                             -0.055629
      16     Pt       1         10.058182                             -0.058182
      17     Pt       1         10.069084                             -0.069084
[...]
    191      1      Pt         -0.01371032    -0.00694173    -0.00873950
    192      1      Pt          0.00817937    -0.00795166     0.00838326
    193      1      Pt         -0.00468816     0.01168696     0.00639422
    194      1      Pt          0.00941607     0.02227656     0.00852244
    195      1      Pt          0.00819215     0.01942485    -0.00767727
    196      1      Pt         -0.00773924    -0.00338148     0.00243360
    197      1      Pt         -0.00340344    -0.00184786    -0.00314964
    198      1      Pt          0.01397757     0.00558948    -0.00188092
    199      1      Pt         -0.00738505    -0.01527989    -0.00524244
    200      1      Pt          0.00783659    -0.00288810    -0.01046793
    201      1      Pt         -0.01123569    -0.00713715    -0.00388820
    202      1      Pt         -0.00197042    -0.01143179     0.00447314
    203      1      Pt          0.01479875     0.01751839     0.00581999
    204      1      Pt         -0.01301561     0.00443757    -0.00485710
    205      1      Pt          0.01091151     0.00919283     0.00805348
    206      1      Pt          0.00585707    -0.00078514    -0.00588032
    207      1      Pt         -0.00603855     0.00757785     0.00054677
    208      1      Pt          0.00875287    -0.00391335    -0.00209639
    209      1      Pt          0.00704035    -0.00797816    -0.00097257
    210      1      Pt          0.00404751     0.00387069     0.01487745
    211      1      Pt          0.01208173    -0.00869693    -0.00873705
    212      1      Pt         -0.01773394     0.01456130    -0.00656798
    213      1      Pt         -0.02150264     0.00982220    -0.00830894
    214      1      Pt          0.00478485    -0.01081289     0.00667730
    215      1      Pt          0.00277360    -0.00004333     0.00158522
    216      1      Pt         -0.01709505     0.00515392    -0.00708812
 SUM OF ATOMIC FORCES          -0.00000256    -0.00002261     0.00004218     0.00004793

 -------------------------------------------------------------------------------
 -                                                                             -
 -                                DBCSR STATISTICS                             -
 -                                                                             -
 -------------------------------------------------------------------------------
 COUNTER                                    TOTAL       BLAS       SMM       ACC
 flops    20 x    12 x    20            447897600       0.0%    100.0%      0.0%
 flops    20 x    32 x    20          58525286400       0.0%    100.0%      0.0%
 flops    20 x    20 x   204         248609088000       0.0%    100.0%      0.0%
 flops    20 x    20 x   224         272982528000       0.0%    100.0%      0.0%
 flops    20 x    20 x   192        1403910144000       0.0%    100.0%      0.0%
 flops inhomo. stacks                           0       0.0%      0.0%      0.0%
 flops total                         1.984475E+12       0.0%    100.0%      0.0%
 flops max/rank                     63.687885E+09       0.0%    100.0%      0.0%
 matmuls inhomo. stacks                         0       0.0%      0.0%      0.0%
 matmuls total                           14519520       0.0%    100.0%      0.0%
 number of processed stacks                 19072       0.0%    100.0%      0.0%
 average stack size                                     0.0     761.3       0.0
 marketing flops                     2.825076E+12
 -------------------------------------------------------------------------------
 # multiplications                             66
 max memory usage/rank               1.807307E+09
 # max total images/rank                        2
 # max 3D layers                                1
 # MPI messages exchanged                   27456
 MPI messages size (bytes):
  total size                        36.702028E+09
  min size                         829.440000E+03
  max size                           4.665600E+06
  average size                       1.336758E+06
 MPI breakdown and total messages size (bytes):
             size <=      128                   0                        0
       128 < size <=     8192                   0                        0
      8192 < size <=    32768                   0                        0
     32768 < size <=   131072                   0                        0
    131072 < size <=  4194304               27232              35656934400
   4194304 < size <= 16777216                 224               1045094400
  16777216 < size                               0                        0
 -------------------------------------------------------------------------------

 *** WARNING in dbcsr_mm.F:290 :: Using a non-square number of MPI ranks ***
 *** might lead to poor performance. Used ranks: 32 Suggested: 36 64     ***

 -------------------------------------------------------------------------------
 -                                                                             -
 -                      DBCSR MESSAGE PASSING PERFORMANCE                      -
 -                                                                             -
 -------------------------------------------------------------------------------
 ROUTINE             CALLS      AVE VOLUME [Bytes]
 MP_Bcast                6                     12.
 MP_Allreduce          485                      9.
 MP_Alltoall          1829                1275340.
 MP_ISend             2112                 578495.
 MP_IRecv             2112                 561506.
 -------------------------------------------------------------------------------

 -------------------------------------------------------------------------------
 -                                                                             -
 -                                DBM STATISTICS                               -
 -                                                                             -
 -------------------------------------------------------------------------------
    M  x    N  x    K                                          COUNT     PERCENT
 -------------------------------------------------------------------------------

 -------------------------------------------------------------------------------
 -                                                                             -
 -                                GRID STATISTICS                              -
 -                                                                             -
 -------------------------------------------------------------------------------
 LP    KERNEL             BACKEND                              COUNT     PERCENT
 4     collocate general  REF                               21796928      49.97%
 4     integrate general  REF                               21456351      49.19%
 5     integrate general  REF                                 340577       0.78%
 0     collocate general  REF                                  13824       0.03%
 0     integrate general  REF                                   6912       0.02%
 1     integrate general  REF                                   6912       0.02%
 -------------------------------------------------------------------------------

 MEMORY| Estimated peak process memory [MiB]                                2156

 -------------------------------------------------------------------------------
 ----                             MULTIGRID INFO                            ----
 -------------------------------------------------------------------------------
 count for grid        1:          17577          cutoff [a.u.]          200.00
 count for grid        2:         177643          cutoff [a.u.]           66.67
 count for grid        3:         109824          cutoff [a.u.]           22.22
 count for grid        4:         155158          cutoff [a.u.]            7.41
 total gridlevel count  :         460202

 -------------------------------------------------------------------------------
 -                                                                             -
 -                         MESSAGE PASSING PERFORMANCE                         -
 -                                                                             -
 -------------------------------------------------------------------------------

 ROUTINE             CALLS      AVE VOLUME [Bytes]
 MP_Group                4
 MP_Bcast             1770                 164528.
 MP_Allreduce         1628                   1553.
 MP_Sync                69
 MP_Alltoall          3145               49404303.
 MP_SendRecv           124                  14958.
 MP_ISendRecv         7936                 214800.
 MP_Wait             19240
 MP_comm_split           1
 MP_ISend            10136                 715003.
 MP_IRecv            10136                 715003.
 MP_Recv               192                1105920.
 MP_Write_All            3                4213860.
 -------------------------------------------------------------------------------


 -------------------------------------------------------------------------------
 -                                                                             -
 -                           R E F E R E N C E S                               -
 -                                                                             -
 -------------------------------------------------------------------------------
 
 CP2K version 2022.1, the CP2K developers group (2022).
 CP2K is freely available from https://www.cp2k.org/ .

 Kuehne,Thomas D.; Iannuzzi,Marcella; Del Ben,Mauro;
 Rybkin,Vladimir V.; Seewald,Patrick; Stein,Frederick; Laino,Teodoro;
 Khaliullin,Rustam Z.; Schuett,Ole; Schiffmann,Florian; Golze,Dorothea;
 Wilhelm,Jan; Chulkov,Sergey; Bani-Hashemian,Mohammad Hossein;
 Weber,Valery; Borstnik,Urban; Taillefumier,Mathieu;
 Jakobovits,Alice Shoshana; Lazzaro,Alfio; Pabst,Hans; Mueller,Tiziano;
 Schade,Robert; Guidon,Manuel; Andermatt,Samuel; Holmberg,Nico;
 Schenter,Gregory K.; Hehn,Anna; Bussy,Augustin; Belleflamme,Fabian;
 Tabacchi,Gloria; Gloess,Andreas; Lass,Michael; Bethune,Iain;
 Mundy,Christopher J.; Plessl,Christian; Watkins,Matt;
 VandeVondele,Joost; Krack,Matthias; Hutter,Juerg. 
 The Journal of Chemical Physics, 152 (19), (2020). 
 CP2K: An electronic structure and molecular dynamics software package -
 Quickstep: Efficient and accurate electronic structure calculations.
 https://doi.org/10.1063/5.0007045

 Goerigk, Lars; Hansen, Andreas; Bauer, Christoph; Ehrlich, Stephan;
 Najibi, Asim; Grimme, Stefan. , 19 (48), (2017). 
 A look at the density functional theory zoo with the advanced GMTKN55 database
 for general main group thermochemistry, kinetics and noncovalent interactions.
 https://doi.org/10.1039/C7CP04913G

 Bani-Hashemian, MH; Bruck, S; Luisier, M; VandeVondele, J. 
 JOURNAL OF CHEMICAL PHYSICS, 144 (4), 044113 (2016). 
 A generalized Poisson solver for first-principles device simulations.
 https://doi.org/10.1063/1.4940796

 Schuett, Ole; Messmer, Peter; Hutter, Juerg; VandeVondele, Joost. 
 Electronic Structure Calculations on Graphics Processing Units, John
 Wiley & Sons, Ltd, 173-190 (2016). 
 GPU-Accelerated Sparse Matrix-Matrix Multiplication for
 Linear Scaling Density Functional Theory.
 https://doi.org/10.1002/9781118670712.ch8

 Heinecke, A; Henry, G; Hutchinson, M; Pabst, H. 
 Proceedings of Intl. Supercomputing Conference, 981-991 (2016). 
 LIBXSMM: Accelerating Small Matrix Multiplications
 by Runtime Code Generation.
 https://doi.org/10.1109/SC.2016.83

 Borstnik, U; VandeVondele, J; Weber, V; Hutter, J. 
 PARALLEL COMPUTING, 40 (5-6), 47-58 (2014). 
 Sparse matrix multiplication: The distributed block-compressed sparse
 row library.
 https://doi.org/10.1016/j.parco.2014.03.012

 Hutter, J; Iannuzzi, M; Schiffmann, F; VandeVondele, J. 
 WIREs Comput Mol Sci., 4 (1), 15-25 (2014). 
 CP2K: atomistic simulations of condensed matter systems.
 https://doi.org/10.1002/wcms.1159

 Marek, A; Blum, V; Johanni, R; Havu, V; Lang, B; Auckenthaler, T;
 Heinecke, A; Bungartz, H; Lederer, H. 
 Journal of Physics: Condensed Matter, 26 (21), (2014). 
 The ELPA library: scalable parallel eigenvalue solutions for
 electronic structure
 theory and computational science.
 https://doi.org/10.1088/0953-8984/26/21/213201

 Grimme, S; Ehrlich, S; Goerigk, L. 
 JOURNAL OF COMPUTATIONAL CHEMISTRY, 32, 1456 (2011). 
 Effect of the damping function in dispersion corrected density functional theory.
 https://doi.org/10.1002/jcc.21759

 Grimme, S; Antony, J; Ehrlich, S; Krieg, H. 
 JOURNAL OF CHEMICAL PHYSICS, 132 (15), 154104 (2010). 
 A consistent and accurate ab initio parametrization of density
 functional dispersion correction (DFT-D) for the 94 elements H-Pu.
 https://doi.org/10.1063/1.3382344

 VandeVondele, J; Hutter, J. 
 JOURNAL OF CHEMICAL PHYSICS, 127 (11), 114105 (2007). 
 Gaussian basis sets for accurate calculations on molecular systems in
 gas and condensed phases.
 https://doi.org/10.1063/1.2770708

 Krack, M. 
 THEORETICAL CHEMISTRY ACCOUNTS, 114 (1-3), 145-152 (2005). 
 Pseudopotentials for H to Kr optimized for gradient-corrected
 exchange-correlation functionals.
 https://doi.org/10.1007/s00214-005-0655-y

 VandeVondele, J; Krack, M; Mohamed, F; Parrinello, M; Chassaing, T;
 Hutter, J. COMPUTER PHYSICS COMMUNICATIONS, 167 (2), 103-128 (2005). 
 QUICKSTEP: Fast and accurate density functional calculations using a
 mixed Gaussian and plane waves approach.
 https://doi.org/10.1016/j.cpc.2004.12.014

 Frigo, M; Johnson, SG. 
 PROCEEDINGS OF THE IEEE, 93 (2), 216-231 (2005). 
 The design and implementation of FFTW3.
 https://doi.org/10.1109/JPROC.2004.840301

 Hartwigsen, C; Goedecker, S; Hutter, J. 
 PHYSICAL REVIEW B, 58 (7), 3641-3662 (1998). 
 Relativistic separable dual-space Gaussian pseudopotentials from H to Rn.
 https://doi.org/10.1103/PhysRevB.58.3641

 Lippert, G; Hutter, J; Parrinello, M. 
 MOLECULAR PHYSICS, 92 (3), 477-487 (1997). 
 A hybrid Gaussian and plane wave density functional scheme.
 https://doi.org/10.1080/002689797170220

 Perdew, JP; Burke, K; Ernzerhof, M. 
 PHYSICAL REVIEW LETTERS, 77 (18), 3865-3868 (1996). 
 Generalized gradient approximation made simple.
 https://doi.org/10.1103/PhysRevLett.77.3865

 Goedecker, S; Teter, M; Hutter, J. 
 PHYSICAL REVIEW B, 54 (3), 1703-1710 (1996). 
 Separable dual-space Gaussian pseudopotentials.
 https://doi.org/10.1103/PhysRevB.54.1703


 -------------------------------------------------------------------------------
 -                                                                             -
 -                                T I M I N G                                  -
 -                                                                             -
 -------------------------------------------------------------------------------
 SUBROUTINE                       CALLS  ASD         SELF TIME        TOTAL TIME
                                MAXIMUM       AVERAGE  MAXIMUM  AVERAGE  MAXIMUM
 CP2K                                 1  1.0    0.020    0.037  828.093  828.095
 qs_forces                            1  2.0    0.001    0.001  827.680  827.681
 qs_energies                          1  3.0    0.000    0.000  813.503  813.505
 scf_env_do_scf                       1  4.0    0.000    0.000  805.257  805.342
 scf_env_do_scf_inner_loop           63  5.0    0.003    0.006  805.255  805.340
 rebuild_ks_matrix                   64  7.0    0.000    0.000  514.899  514.928
 qs_ks_build_kohn_sham_matrix        64  8.0    0.009    0.011  514.898  514.928
 qs_ks_update_qs_env                 63  6.0    0.000    0.001  505.188  505.217
 pw_transfer                       3002 12.1    0.232    0.354  290.283  293.076
 fft_wrap_pw1pw2                   3002 13.1    0.032    0.042  290.051  292.721
 fft_wrap_pw1pw2_200               2618 14.4   24.546   27.837  287.054  289.463
 pw_poisson_solve                    64  9.0    0.019    0.029  248.660  248.744
 implicit_poisson_solver_mixed_      64 10.0    6.686    7.208  234.008  234.168
 fft3d_ps                          3002 15.1  123.110  132.562  216.143  219.863
 qs_rho_update_rho_low               64  6.0    0.001    0.001  193.309  193.325
 calculate_rho_elec                  64  7.0    0.350    0.387  193.309  193.325
 sum_up_and_integrate                64  9.0    0.995    1.076  181.932  181.982
 integrate_v_rspace                  64 10.0    0.002    0.002  180.937  181.071
 grid_collocate_task_list            64  8.0   85.892  166.658   85.892  166.658
 derive_fft                         318 12.1    0.023    0.026  164.615  165.827
 grid_integrate_task_list            64 11.0   79.637  155.192   79.637  155.192
 apply_P_operator                   254 11.2    2.375    2.697  134.035  134.917
 rs_pw_transfer                     516 10.5    0.006    0.006  106.475  133.607
 density_rs2pw                       64  8.0    0.004    0.005  105.657  132.530
 mp_waitany                       10136 12.4   88.468  115.603   88.468  115.603
 rs_pw_transfer_RS2PW_200            66 10.0    3.713    4.280   86.991  114.118
 mp_alltoall_d11v                   912 10.3   77.684  102.842   77.684  102.842
 rs_gather_matrices                  64 11.0    0.250    0.285   76.522  101.747
 qs_scf_new_mos                      63  6.0    0.006    0.009   79.200   79.328
 qs_vxc_create                       64  9.0    0.002    0.003   75.827   76.752
 xc_vxc_pw_create                    64 10.0    1.714    2.168   75.824   76.751
 eigensolver                         63  7.0    0.006    0.009   71.391   71.467
 x_to_yz                           1882 16.3   41.145   47.476   63.838   66.892
 mp_alltoall_z22v                  3002 17.1   40.183   63.089   40.183   63.089
 xc_pw_derive                       384 12.0    0.007    0.008   51.132   53.978
 apply_poisson_operator_fft          64 11.0    0.001    0.001   48.656   48.906
 cp_fm_diag_elpa                     64  8.0    0.001    0.001   45.295   45.423
 cp_fm_diag_elpa_base                64  9.0   44.319   44.431   45.186   45.255
 yz_to_x                           1120 15.8   11.632   12.278   29.123   41.660
 xc_rho_set_and_dset_create          64 11.0    0.735    0.906   39.433   40.313
 apply_inv_laplace_operator_fft     161 11.6    1.318    1.430   35.728   36.860
 pw_scatter_p                      1882 15.3   31.958   35.555   31.958   35.555
 xc_pw_divergence                    64 11.0    0.004    0.004   33.635   35.457
 ps_implicit_compute_veps            64 11.0    0.772    0.904   33.732   34.452
 gspace_mixing                       62  6.0    0.339    0.362   30.153   30.153
 pw_derive                         1338 13.1   25.424   26.360   25.424   26.360
 cp_fm_triangular_multiply          189  8.0   25.322   25.516   25.322   25.516
 ps_implicit_compute_error_fft       95 10.9    1.760    1.876   23.519   25.260
 potential_pw2rs                     64 11.0    0.051    0.059   24.765   24.885
 broyden_mixing                      62  7.0   22.014   22.398   22.519   22.614
 pw_gather_p                       1120 14.8   17.084   17.754   17.084   17.754
 -------------------------------------------------------------------------------

 The number of warnings for this run is : 1
 
 -------------------------------------------------------------------------------
  **** **** ******  **  PROGRAM ENDED AT                 2023-12-02 23:59:34.625
 ***** ** ***  *** **   PROGRAM RAN ON                                     cu042
 **    ****   ******    PROGRAM RAN BY                                     jxzhu
 ***** **    ** ** **   PROGRAM PROCESS ID                                 41327
  **** **  *******  **  PROGRAM STOPPED IN /public/home/jxzhu/tmp_calc/04c0855f9
                                           8753fac23fde4df51ba20f3741a9e9a/calc/
                                           task.001.000001
