 DBCSR| CPU Multiplication driver                                           XSMM
 DBCSR| Multrec recursion limit                                              512
 DBCSR| Multiplication stack size                                           1000
 DBCSR| Maximum elements for images                                    UNLIMITED
 DBCSR| Multiplicative factor virtual images                                   1
 DBCSR| Use multiplication densification                                       T
 DBCSR| Multiplication size stacks                                             3
 DBCSR| Use memory pool for CPU allocation                                     F
 DBCSR| Number of 3D layers                                               SINGLE
 DBCSR| Use MPI memory allocation                                              F
 DBCSR| Use RMA algorithm                                                      F
 DBCSR| Use Communication thread                                               T
 DBCSR| Communication thread load                                             87
 DBCSR| MPI: My node id                                                        0
 DBCSR| MPI: Number of nodes                                                 128
 DBCSR| OMP: Current number of threads                                         1
 DBCSR| OMP: Max number of threads                                             1
 DBCSR| Split modifier for TAS multiplication algorithm                  1.0E+00


  **** **** ******  **  PROGRAM STARTED AT               2023-12-01 21:11:43.455
 ***** ** ***  *** **   PROGRAM STARTED ON                                 cu112
 **    ****   ******    PROGRAM STARTED BY                                 jxzhu
 ***** **    ** ** **   PROGRAM PROCESS ID                                 40812
  **** **  *******  **  PROGRAM STARTED IN /public/home/jxzhu/tmp_calc/6f8603e24
                                           05436f436695d04f688f9c38b04d6d6/calc/
                                           000000.000/search_hi.000000

 CP2K| version string:                                       CP2K version 2022.1
 CP2K| source code revision number:                                  git:2caeb6f
 CP2K| cp2kflags: omp libint fftw3 libxc elpa parallel mpi3 scalapack cosma xsmm
 CP2K|             plumed2 spglib mkl sirius libvori libbqb
 CP2K| is freely available from                            https://www.cp2k.org/
 CP2K| Program compiled at                           Mon Jul 3 17:37:06 CST 2023
 CP2K| Program compiled on                                                 mu003
 CP2K| Program compiled for                                                local
 CP2K| Data directory path                             /public/home/jxzhu/basis/
 CP2K| Input file name                                                 input.inp
 
 GLOBAL| Force Environment number                                              1
 GLOBAL| Basis set file name                                        BASIS_MOLOPT
 GLOBAL| Potential file name                                      GTH_POTENTIALS
 GLOBAL| MM Potential file name                                     MM_POTENTIAL
 GLOBAL| Coordinate file name                                          coord.xyz
 GLOBAL| Method name                                                        CP2K
 GLOBAL| Project name                                                       cp2k
 GLOBAL| Run type                                                   ENERGY_FORCE
 GLOBAL| FFT library                                                       FFTW3
 GLOBAL| Diagonalization library                                            ELPA
 GLOBAL| Minimum number of eigenvectors for ELPA usage                        16
 GLOBAL| Orthonormality check for eigenvectors                          DISABLED
 GLOBAL| Matrix multiplication library                                     COSMA
 GLOBAL| All-to-all communication in single precision                          F
 GLOBAL| FFTs using library dependent lengths                                  T
 GLOBAL| Grid backend                                                       AUTO
 GLOBAL| Global print level                                               MEDIUM
 GLOBAL| MPI I/O enabled                                                       T
 GLOBAL| Total number of message passing processes                           128
 GLOBAL| Number of threads for this process                                    1
 GLOBAL| This output is from process                                           0
 GLOBAL| Stack size for threads created by OpenMP (OMP_STACKSIZE)        default
 GLOBAL| CPU model name                 Intel(R) Xeon(R) Gold 6338 CPU @ 2.00GHz
 GLOBAL| CPUID                                                              1003

 MEMORY| system memory details [Kb]
 MEMORY|                        rank 0           min           max       average
 MEMORY| MemTotal            263619172     263619172     263619172     263619172
 MEMORY| MemFree             224662372     224662372     225608948     225135729
 MEMORY| Buffers                    44            44          3320          1682
 MEMORY| Cached                 815732        815732       1006312        911022
 MEMORY| Slab                  1062588       1058832       1062588       1060710
 MEMORY| SReclaimable           217084        217084        239320        228202
 MEMORY| MemLikelyFree       225695232     225695232     226857900     226276635


 *** Fundamental physical constants (SI units) ***

 *** Literature: B. J. Mohr and B. N. Taylor,
 ***             CODATA recommended values of the fundamental physical
 ***             constants: 2006, Web Version 5.1
 ***             http://physics.nist.gov/constants

 Speed of light in vacuum [m/s]                             2.99792458000000E+08
 Magnetic constant or permeability of vacuum [N/A**2]       1.25663706143592E-06
 Electric constant or permittivity of vacuum [F/m]          8.85418781762039E-12
 Planck constant (h) [J*s]                                  6.62606896000000E-34
 Planck constant (h-bar) [J*s]                              1.05457162825177E-34
 Elementary charge [C]                                      1.60217648700000E-19
 Electron mass [kg]                                         9.10938215000000E-31
 Electron g factor [ ]                                     -2.00231930436220E+00
 Proton mass [kg]                                           1.67262163700000E-27
 Fine-structure constant                                    7.29735253760000E-03
 Rydberg constant [1/m]                                     1.09737315685270E+07
 Avogadro constant [1/mol]                                  6.02214179000000E+23
 Boltzmann constant [J/K]                                   1.38065040000000E-23
 Atomic mass unit [kg]                                      1.66053878200000E-27
 Bohr radius [m]                                            5.29177208590000E-11

 *** Conversion factors ***

 [u] -> [a.u.]                                              1.82288848426455E+03
 [Angstrom] -> [Bohr] = [a.u.]                              1.88972613288564E+00
 [a.u.] = [Bohr] -> [Angstrom]                              5.29177208590000E-01
 [a.u.] -> [s]                                              2.41888432650478E-17
 [a.u.] -> [fs]                                             2.41888432650478E-02
 [a.u.] -> [J]                                              4.35974393937059E-18
 [a.u.] -> [N]                                              8.23872205491840E-08
 [a.u.] -> [K]                                              3.15774647902944E+05
 [a.u.] -> [kJ/mol]                                         2.62549961709828E+03
 [a.u.] -> [kcal/mol]                                       6.27509468713739E+02
 [a.u.] -> [Pa]                                             2.94210107994716E+13
 [a.u.] -> [bar]                                            2.94210107994716E+08
 [a.u.] -> [atm]                                            2.90362800883016E+08
 [a.u.] -> [eV]                                             2.72113838565563E+01
 [a.u.] -> [Hz]                                             6.57968392072181E+15
 [a.u.] -> [1/cm] (wave numbers)                            2.19474631370540E+05
 [a.u./Bohr**2] -> [1/cm]                                   5.14048714338585E+03
 

 CELL_TOP| Volume [angstrom^3]:                                     17614.982639
 CELL_TOP| Vector a [angstrom    16.869     0.000     0.000   |a| =    16.869000
 CELL_TOP| Vector b [angstrom    -8.434    14.609     0.000   |b| =    16.869015
 CELL_TOP| Vector c [angstrom     0.000     0.000    71.478   |c| =    71.478000
 CELL_TOP| Angle (b,c), alpha [degree]:                                90.000000
 CELL_TOP| Angle (a,c), beta  [degree]:                                90.000000
 CELL_TOP| Angle (a,b), gamma [degree]:                               119.999970
 CELL_TOP| Numerically orthorhombic:                                          NO
 
 GENERATE|  Preliminary Number of Bonds generated:                             0
 GENERATE|  Achieved consistency in connectivity generation.

 CELL| Volume [angstrom^3]:                                         17614.982639
 CELL| Vector a [angstrom]:      16.869     0.000     0.000   |a| =    16.869000
 CELL| Vector b [angstrom]:      -8.434    14.609     0.000   |b| =    16.869015
 CELL| Vector c [angstrom]:       0.000     0.000    71.478   |c| =    71.478000
 CELL| Angle (b,c), alpha [degree]:                                    90.000000
 CELL| Angle (a,c), beta  [degree]:                                    90.000000
 CELL| Angle (a,b), gamma [degree]:                                   119.999970
 CELL| Numerically orthorhombic:                                              NO

 CELL_REF| Volume [angstrom^3]:                                     17614.982639
 CELL_REF| Vector a [angstrom    16.869     0.000     0.000   |a| =    16.869000
 CELL_REF| Vector b [angstrom    -8.434    14.609     0.000   |b| =    16.869015
 CELL_REF| Vector c [angstrom     0.000     0.000    71.478   |c| =    71.478000
 CELL_REF| Angle (b,c), alpha [degree]:                                90.000000
 CELL_REF| Angle (a,c), beta  [degree]:                                90.000000
 CELL_REF| Angle (a,b), gamma [degree]:                               119.999970
 CELL_REF| Numerically orthorhombic:                                          NO

 *******************************************************************************
 *******************************************************************************
 **                                                                           **
 **     #####                         ##              ##                      **
 **    ##   ##            ##          ##              ##                      **
 **   ##     ##                       ##            ######                    **
 **   ##     ##  ##   ##  ##   #####  ##  ##   ####   ##    #####    #####    **
 **   ##     ##  ##   ##  ##  ##      ## ##   ##      ##   ##   ##  ##   ##   **
 **   ##  ## ##  ##   ##  ##  ##      ####     ###    ##   ######   ######    **
 **    ##  ###   ##   ##  ##  ##      ## ##      ##   ##   ##       ##        **
 **     #######   #####   ##   #####  ##  ##  ####    ##    #####   ##        **
 **           ##                                                    ##        **
 **                                                                           **
 **                                                ... make the atoms dance   **
 **                                                                           **
 **            Copyright (C) by CP2K developers group (2000-2022)             **
 **                      J. Chem. Phys. 152, 194103 (2020)                    **
 **                                                                           **
 *******************************************************************************

 DFT| Spin restricted Kohn-Sham (RKS) calculation                            RKS
 DFT| Multiplicity                                                             1
 DFT| Number of spin states                                                    1
 DFT| Charge                                                                   0
 DFT| Self-interaction correction (SIC)                                       NO
 DFT| Cutoffs: density                                              1.000000E-10
 DFT|          gradient                                             1.000000E-10
 DFT|          tau                                                  1.000000E-10
 DFT|          cutoff_smoothing_range                               0.000000E+00
 DFT| XC density smoothing                                                  NONE
 DFT| XC derivatives                                                          PW

 FUNCTIONAL| PBE:
 FUNCTIONAL| J.P.Perdew, K.Burke, M.Ernzerhof, Phys. Rev. Letter, vol. 77, n 18,
 FUNCTIONAL|  pp. 3865-3868, (1996){spin unpolarized}                           

 vdW POTENTIAL|                                                   Pair Potential
 vdW POTENTIAL|          DFT-D3 (Version 3.1)
 vdW POTENTIAL|          Potential Form: S. Grimme et al, JCP 132: 154104 (2010)
 vdW POTENTIAL|          Zero Damping
 vdW POTENTIAL|          Cutoff Radius [Bohr]:                             20.00
 vdW POTENTIAL|          s6 Scaling Factor:                               1.0000
 vdW POTENTIAL|          sr6 Scaling Factor:                              1.2170
 vdW POTENTIAL|          s8 Scaling Factor:                               0.7220
 vdW POTENTIAL|          Cutoff for CN calculation:                   0.1000E-05

 QS| Method:                                                                 GPW
 QS| Density plane wave grid type                        NON-SPHERICAL FULLSPACE
 QS| Number of grid levels:                                                    4
 QS| Density cutoff [a.u.]:                                                200.0
 QS| Multi grid cutoff [a.u.]: 1) grid level                               200.0
 QS|                           2) grid level                                66.7
 QS|                           3) grid level                                22.2
 QS|                           4) grid level                                 7.4
 QS| Grid level progression factor:                                          3.0
 QS| Relative density cutoff [a.u.]:                                        20.0
 QS| Interaction thresholds: eps_pgf_orb:                                3.2E-07
 QS|                         eps_filter_matrix:                          0.0E+00
 QS|                         eps_core_charge:                            1.0E-15
 QS|                         eps_rho_gspace:                             1.0E-13
 QS|                         eps_rho_rspace:                             1.0E-13
 QS|                         eps_gvg_rspace:                             3.2E-07
 QS|                         eps_ppl:                                    1.0E-02
 QS|                         eps_ppnl:                                   3.2E-09


 ATOMIC KIND INFORMATION

  1. Atomic kind: O                                     Number of atoms:      98

     Orbital Basis Set                                        DZVP-MOLOPT-SR-GTH

       Number of orbital shell sets:                                           1
       Number of orbital shells:                                               5
       Number of primitive Cartesian functions:                                5
       Number of Cartesian basis functions:                                   14
       Number of spherical basis functions:                                   13
       Norm type:                                                              2

       Normalised Cartesian orbitals:

                        Set   Shell   Orbital            Exponent    Coefficient

                          1       1    2s               10.389228       0.396646
                                                         3.849621       0.208811
                                                         1.388401      -0.301641
                                                         0.496955      -0.274061
                                                         0.162492      -0.033677

                          1       2    3s               10.389228       0.303673
                                                         3.849621       0.240943
                                                         1.388401      -0.313066
                                                         0.496955      -0.043055
                                                         0.162492       0.213991

                          1       3    3px              10.389228      -1.530415
                                                         3.849621      -1.371928
                                                         1.388401      -0.761951
                                                         0.496955      -0.253695
                                                         0.162492      -0.035541
                          1       3    3py              10.389228      -1.530415
                                                         3.849621      -1.371928
                                                         1.388401      -0.761951
                                                         0.496955      -0.253695
                                                         0.162492      -0.035541
                          1       3    3pz              10.389228      -1.530415
                                                         3.849621      -1.371928
                                                         1.388401      -0.761951
                                                         0.496955      -0.253695
                                                         0.162492      -0.035541

                          1       4    4px              10.389228      -0.565392
                                                         3.849621      -0.038231
                                                         1.388401      -0.382373
                                                         0.496955       0.179070
                                                         0.162492       0.122714
                          1       4    4py              10.389228      -0.565392
                                                         3.849621      -0.038231
                                                         1.388401      -0.382373
                                                         0.496955       0.179070
                                                         0.162492       0.122714
                          1       4    4pz              10.389228      -0.565392
                                                         3.849621      -0.038231
                                                         1.388401      -0.382373
                                                         0.496955       0.179070
                                                         0.162492       0.122714

                          1       5    4dx2             10.389228       1.867377
                                                         3.849621       0.670994
                                                         1.388401       1.353441
                                                         0.496955       0.273538
                                                         0.162492       0.006620
                          1       5    4dxy             10.389228       3.234392
                                                         3.849621       1.162195
                                                         1.388401       2.344229
                                                         0.496955       0.473781
                                                         0.162492       0.011466
                          1       5    4dxz             10.389228       3.234392
                                                         3.849621       1.162195
                                                         1.388401       2.344229
                                                         0.496955       0.473781
                                                         0.162492       0.011466
                          1       5    4dy2             10.389228       1.867377
                                                         3.849621       0.670994
                                                         1.388401       1.353441
                                                         0.496955       0.273538
                                                         0.162492       0.006620
                          1       5    4dyz             10.389228       3.234392
                                                         3.849621       1.162195
                                                         1.388401       2.344229
                                                         0.496955       0.473781
                                                         0.162492       0.011466
                          1       5    4dz2             10.389228       1.867377
                                                         3.849621       0.670994
                                                         1.388401       1.353441
                                                         0.496955       0.273538
                                                         0.162492       0.006620

       Atomic covalent radius [Angstrom]:                                  0.730

       Atomic van der Waals radius [Angstrom]:                             1.520

     GTH Potential information for                                    GTH-PBE-q6

       Description:                       Goedecker-Teter-Hutter pseudopotential
                                           Goedecker et al., PRB 54, 1703 (1996)
                                          Hartwigsen et al., PRB 58, 3641 (1998)
                                                      Krack, TCA 114, 145 (2005)

       Gaussian exponent of the core charge distribution:               8.360253
       Electronic configuration (s p d ...):                               2   4

       Parameters of the local part of the GTH pseudopotential:

                          rloc        C1          C2          C3          C4
                        0.244554  -16.667215    2.487311

       Parameters of the non-local part of the GTH pseudopotential:

                   l      r(l)      h(i,j,l)

                   0    0.220956   18.337458
                   1    0.211332

  2. Atomic kind: H                                     Number of atoms:     196

     Orbital Basis Set                                        DZVP-MOLOPT-SR-GTH

       Number of orbital shell sets:                                           1
       Number of orbital shells:                                               3
       Number of primitive Cartesian functions:                                5
       Number of Cartesian basis functions:                                    5
       Number of spherical basis functions:                                    5
       Norm type:                                                              2

       Normalised Cartesian orbitals:

                        Set   Shell   Orbital            Exponent    Coefficient

                          1       1    2s               10.068468      -0.133023
                                                         2.680223      -0.177618
                                                         0.791502      -0.258419
                                                         0.239116      -0.107525
                                                         0.082193      -0.014019

                          1       2    3s               10.068468       0.344673
                                                         2.680223       1.819821
                                                         0.791502      -0.999069
                                                         0.239116       0.017430
                                                         0.082193       0.082660

                          1       3    3px              10.068468       0.155326
                                                         2.680223       0.367157
                                                         0.791502       0.311480
                                                         0.239116       0.080105
                                                         0.082193       0.033440
                          1       3    3py              10.068468       0.155326
                                                         2.680223       0.367157
                                                         0.791502       0.311480
                                                         0.239116       0.080105
                                                         0.082193       0.033440
                          1       3    3pz              10.068468       0.155326
                                                         2.680223       0.367157
                                                         0.791502       0.311480
                                                         0.239116       0.080105
                                                         0.082193       0.033440

       Atomic covalent radius [Angstrom]:                                  0.320

       Atomic van der Waals radius [Angstrom]:                             1.090

     GTH Potential information for                                    GTH-PBE-q1

       Description:                       Goedecker-Teter-Hutter pseudopotential
                                           Goedecker et al., PRB 54, 1703 (1996)
                                          Hartwigsen et al., PRB 58, 3641 (1998)
                                                      Krack, TCA 114, 145 (2005)

       Gaussian exponent of the core charge distribution:              12.500000
       Electronic configuration (s p d ...):                                   1

       Parameters of the local part of the GTH pseudopotential:

                          rloc        C1          C2          C3          C4
                        0.200000   -4.178900    0.724463

  3. Atomic kind: Pt                                    Number of atoms:     216

     Orbital Basis Set                      DZVP-A5-Q10-323-MOL-T1-DERIVED_SET-1

       Number of orbital shell sets:                                           1
       Number of orbital shells:                                               6
       Number of primitive Cartesian functions:                                5
       Number of Cartesian basis functions:                                   23
       Number of spherical basis functions:                                   20
       Norm type:                                                              2

       Normalised Cartesian orbitals:

                        Set   Shell   Orbital            Exponent    Coefficient

                          1       1    2s                2.521825       0.177473
                                                         1.453920      -0.063399
                                                         0.614053      -0.407089
                                                         0.232656       0.262254
                                                         0.074788       0.047371

                          1       2    3s                2.521825      -0.049056
                                                         1.453920       0.044904
                                                         0.614053      -0.009756
                                                         0.232656      -0.144709
                                                         0.074788       0.144085

                          1       3    3px               2.521825      -0.317572
                                                         1.453920       0.534826
                                                         0.614053      -0.489458
                                                         0.232656       0.245631
                                                         0.074788       0.018221
                          1       3    3py               2.521825      -0.317572
                                                         1.453920       0.534826
                                                         0.614053      -0.489458
                                                         0.232656       0.245631
                                                         0.074788       0.018221
                          1       3    3pz               2.521825      -0.317572
                                                         1.453920       0.534826
                                                         0.614053      -0.489458
                                                         0.232656       0.245631
                                                         0.074788       0.018221

                          1       4    4dx2              2.521825       3.008522
                                                         1.453920      -1.224251
                                                         0.614053       0.225691
                                                         0.232656       0.125144
                                                         0.074788      -0.015348
                          1       4    4dxy              2.521825       5.210912
                                                         1.453920      -2.120465
                                                         0.614053       0.390909
                                                         0.232656       0.216756
                                                         0.074788      -0.026584
                          1       4    4dxz              2.521825       5.210912
                                                         1.453920      -2.120465
                                                         0.614053       0.390909
                                                         0.232656       0.216756
                                                         0.074788      -0.026584
                          1       4    4dy2              2.521825       3.008522
                                                         1.453920      -1.224251
                                                         0.614053       0.225691
                                                         0.232656       0.125144
                                                         0.074788      -0.015348
                          1       4    4dyz              2.521825       5.210912
                                                         1.453920      -2.120465
                                                         0.614053       0.390909
                                                         0.232656       0.216756
                                                         0.074788      -0.026584
                          1       4    4dz2              2.521825       3.008522
                                                         1.453920      -1.224251
                                                         0.614053       0.225691
                                                         0.232656       0.125144
                                                         0.074788      -0.015348

                          1       5    5dx2              2.521825       0.698026
                                                         1.453920      -1.511486
                                                         0.614053      -0.335394
                                                         0.232656      -0.025564
                                                         0.074788      -0.002699
                          1       5    5dxy              2.521825       1.209017
                                                         1.453920      -2.617970
                                                         0.614053      -0.580920
                                                         0.232656      -0.044277
                                                         0.074788      -0.004674
                          1       5    5dxz              2.521825       1.209017
                                                         1.453920      -2.617970
                                                         0.614053      -0.580920
                                                         0.232656      -0.044277
                                                         0.074788      -0.004674
                          1       5    5dy2              2.521825       0.698026
                                                         1.453920      -1.511486
                                                         0.614053      -0.335394
                                                         0.232656      -0.025564
                                                         0.074788      -0.002699
                          1       5    5dyz              2.521825       1.209017
                                                         1.453920      -2.617970
                                                         0.614053      -0.580920
                                                         0.232656      -0.044277
                                                         0.074788      -0.004674
                          1       5    5dz2              2.521825       0.698026
                                                         1.453920      -1.511486
                                                         0.614053      -0.335394
                                                         0.232656      -0.025564
                                                         0.074788      -0.002699

                          1       6    6dx2              2.521825       0.831079
                                                         1.453920      -0.709226
                                                         0.614053      -0.137351
                                                         0.232656       0.068642
                                                         0.074788       0.011745
                          1       6    6dxy              2.521825       1.439472
                                                         1.453920      -1.228415
                                                         0.614053      -0.237899
                                                         0.232656       0.118891
                                                         0.074788       0.020343
                          1       6    6dxz              2.521825       1.439472
                                                         1.453920      -1.228415
                                                         0.614053      -0.237899
                                                         0.232656       0.118891
                                                         0.074788       0.020343
                          1       6    6dy2              2.521825       0.831079
                                                         1.453920      -0.709226
                                                         0.614053      -0.137351
                                                         0.232656       0.068642
                                                         0.074788       0.011745
                          1       6    6dyz              2.521825       1.439472
                                                         1.453920      -1.228415
                                                         0.614053      -0.237899
                                                         0.232656       0.118891
                                                         0.074788       0.020343
                          1       6    6dz2              2.521825       0.831079
                                                         1.453920      -0.709226
                                                         0.614053      -0.137351
                                                         0.232656       0.068642
                                                         0.074788       0.011745

       Atomic covalent radius [Angstrom]:                                  1.300

       Atomic van der Waals radius [Angstrom]:                             1.750

     GTH Potential information for                                   GTH-PBE-q10

       Description:                       Goedecker-Teter-Hutter pseudopotential
                                           Goedecker et al., PRB 54, 1703 (1996)
                                          Hartwigsen et al., PRB 58, 3641 (1998)
                                                      Krack, TCA 114, 145 (2005)

       Gaussian exponent of the core charge distribution:               1.317676
       Electronic configuration (s p d ...):                           1   0   9

       Parameters of the local part of the GTH pseudopotential:

                          rloc        C1          C2          C3          C4
                        0.616000   11.313635

       Parameters of the non-local part of the GTH pseudopotential:

                   l      r(l)      h(i,j,l)

                   0    0.550904    4.733491   -1.784594
                                   -1.784594    2.303901
                   1    0.674138    2.534798   -1.778066
                                   -1.778066    2.103836
                   2    0.457392   -7.264011    2.558665
                                    2.558665   -2.901253


 MOLECULE KIND INFORMATION


 All atoms are their own molecule, skipping detailed information


 TOTAL NUMBERS AND MAXIMUM NUMBERS

  Total number of            - Atomic kinds:                                   3
                             - Atoms:                                        510
                             - Shell sets:                                   510
                             - Shells:                                      2374
                             - Primitive Cartesian functions:               2550
                             - Cartesian basis functions:                   7320
                             - Spherical basis functions:                   6574

  Maximum angular momentum of- Orbital basis functions:                        2
                             - Local part of the GTH pseudopotential:          2
                             - Non-local part of the GTH pseudopotential:      4


 MODULE QUICKSTEP:  ATOMIC COORDINATES IN angstrom

 Atom  Kind  Element       X           Y           Z          Z(eff)       Mass
    1   1 O    8       1.090000    4.700000   32.807997       6.0000     15.9994
    2   2 H    1       2.030000    5.080000   32.757998       1.0000      1.0079
    3   2 H    1       0.640000    5.040000   31.967999       1.0000      1.0079
    4   1 O    8      13.690001    2.730000   37.797999       6.0000     15.9994
    5   2 H    1      12.950001    2.420000   38.338000       1.0000      1.0079
    6   2 H    1      14.560001    2.540000   38.227999       1.0000      1.0079
    7   1 O    8      12.200001    5.010000   32.817999       6.0000     15.9994
    8   2 H    1      11.560000    4.860000   32.137999       1.0000      1.0079
    9   2 H    1      11.800001    5.810000   33.347998       1.0000      1.0079
   10   1 O    8       8.640000    9.860001   36.558001       6.0000     15.9994
   11   2 H    1       8.050001    9.920000   37.317999       1.0000      1.0079
   12   2 H    1       8.690001    8.910000   36.458000       1.0000      1.0079
   13   1 O    8      12.370001    5.110001   36.437998       6.0000     15.9994
   14   2 H    1      12.750001    5.810000   35.877999       1.0000      1.0079
   15   2 H    1      13.110001    4.770000   36.967999       1.0000      1.0079
   16   1 O    8      -0.350000    4.150000   35.027998       6.0000     15.9994
   17   2 H    1       0.090000    3.540000   35.768000       1.0000      1.0079
   18   2 H    1       0.370000    4.320000   34.307999       1.0000      1.0079
   19   1 O    8       5.080000    3.900000   34.047999       6.0000     15.9994
   20   2 H    1       5.220000    3.810000   35.057999       1.0000      1.0079
   21   2 H    1       5.190001    3.070000   33.497998       1.0000      1.0079
   22   1 O    8      -4.020000    8.830000   34.727999       6.0000     15.9994
   23   2 H    1      -3.520000    8.480000   33.917998       1.0000      1.0079
   24   2 H    1      -3.990000    9.810000   34.607998       1.0000      1.0079
   25   1 O    8       8.420001    9.540001   31.637999       6.0000     15.9994
   26   2 H    1       8.570001    9.950001   32.557999       1.0000      1.0079
   27   2 H    1       9.310000    9.150001   31.467999       1.0000      1.0079
   28   1 O    8      -6.870000   13.260001   36.817997       6.0000     15.9994
   29   2 H    1      -6.910000   12.380000   37.127999       1.0000      1.0079
   30   2 H    1       9.010000   13.430000   36.668000       1.0000      1.0079
   31   1 O    8      -6.100000   12.750001   30.588000       6.0000     15.9994
   32   2 H    1      -6.060000   12.730000   31.617998       1.0000      1.0079
   33   2 H    1      -6.460000   13.710001   30.327998       1.0000      1.0079
   34   1 O    8       4.580000    1.650000   29.947996       6.0000     15.9994
   35   2 H    1       5.340000    1.940000   29.338000       1.0000      1.0079
   36   2 H    1       4.350000    0.760000   29.527998       1.0000      1.0079
   37   1 O    8       1.230000    0.550000   30.227999       6.0000     15.9994
   38   2 H    1       1.320000    1.310000   30.907999       1.0000      1.0079
   39   2 H    1       1.290000    0.970000   29.307997       1.0000      1.0079
   40   1 O    8       2.110000    7.170000   36.437998       6.0000     15.9994
   41   2 H    1       1.250000    6.830000   36.137999       1.0000      1.0079
   42   2 H    1       1.850000    7.990000   36.967999       1.0000      1.0079
   43   1 O    8       3.130000    0.690000   33.807999       6.0000     15.9994
   44   2 H    1      -5.470000   14.390000   33.587998       1.0000      1.0079
   45   2 H    1       2.360000    1.190000   33.397997       1.0000      1.0079
   46   1 O    8       2.560000    8.180000   33.377999       6.0000     15.9994
   47   2 H    1       3.080000    7.290000   33.297999       1.0000      1.0079
   48   2 H    1       1.630000    7.980001   33.598000       1.0000      1.0079
   49   1 O    8       8.360001    6.890000   36.807999       6.0000     15.9994
   50   2 H    1       9.150001    6.720000   37.378001       1.0000      1.0079
   51   2 H    1       7.550001    6.580000   37.207999       1.0000      1.0079
   52   1 O    8       6.340000    8.550000   34.147997       6.0000     15.9994
   53   2 H    1       6.220000    9.370001   33.608000       1.0000      1.0079
   54   2 H    1       7.060000    8.000000   33.687998       1.0000      1.0079
   55   1 O    8      13.320000    0.490000   29.517996       6.0000     15.9994
   56   2 H    1      14.260001    0.110000   29.367998       1.0000      1.0079
   57   2 H    1      13.510000    1.430000   29.807997       1.0000      1.0079
   58   1 O    8       8.190001    6.690001   34.037999       6.0000     15.9994
   59   2 H    1       8.230000    5.810000   33.577999       1.0000      1.0079
   60   2 H    1       7.890000    6.590000   35.037999       1.0000      1.0079
   61   1 O    8      -5.970000   10.740000   38.417998       6.0000     15.9994
   62   2 H    1      10.800000    9.820001   38.097998       1.0000      1.0079
   63   2 H    1      10.650001   10.680000   39.397999       1.0000      1.0079
   64   1 O    8      10.200001    3.200000   36.067999       6.0000     15.9994
   65   2 H    1       9.990001    3.110000   35.117998       1.0000      1.0079
   66   2 H    1      11.070000    3.710000   36.027998       1.0000      1.0079
   67   1 O    8       8.450001    2.910000   29.317999       6.0000     15.9994
   68   2 H    1       7.960001    3.620000   29.807997       1.0000      1.0079
   69   2 H    1       8.150001    2.000000   29.547999       1.0000      1.0079
   70   1 O    8      10.730000    8.270000   31.168000       6.0000     15.9994
   71   2 H    1      10.170001    7.530000   30.767998       1.0000      1.0079
   72   2 H    1      11.250000    7.840000   31.877999       1.0000      1.0079
   73   1 O    8      -0.010000    5.810000   30.407996       6.0000     15.9994
   74   2 H    1      -0.980000    5.910000   30.487997       1.0000      1.0079
   75   2 H    1       0.420000    6.740000   30.487997       1.0000      1.0079
   76   1 O    8       2.990000   10.780001   39.527998       6.0000     15.9994
   77   2 H    1       2.460000   11.600000   39.707999       1.0000      1.0079
   78   2 H    1       3.800000   11.000000   39.037999       1.0000      1.0079
   79   1 O    8       2.790000   14.220000   31.777998       6.0000     15.9994
   80   2 H    1       3.670000   14.120001   32.358000       1.0000      1.0079
   81   2 H    1       2.080000   13.770000   32.347998       1.0000      1.0079
   82   1 O    8      -2.840000    6.460000   30.127997       6.0000     15.9994
   83   2 H    1      13.260001    5.820000   30.307997       1.0000      1.0079
   84   2 H    1      -2.900000    6.560000   29.178000       1.0000      1.0079
   85   1 O    8       5.470000   12.750001   37.987999       6.0000     15.9994
   86   2 H    1       4.850000   13.220000   37.407997       1.0000      1.0079
   87   2 H    1       5.560000   11.790000   37.767998       1.0000      1.0079
   88   1 O    8       9.530001    6.200000   30.067999       6.0000     15.9994
   89   2 H    1      10.310000    5.680000   29.727999       1.0000      1.0079
   90   2 H    1       9.140000    6.720000   29.328001       1.0000      1.0079
   91   1 O    8      16.130001    0.280000   33.928000       6.0000     15.9994
   92   2 H    1       7.860000   14.240000   34.627999       1.0000      1.0079
   93   2 H    1      15.450001    0.870000   34.338000       1.0000      1.0079
   94   1 O    8      -3.930000   11.510000   34.277998       6.0000     15.9994
   95   2 H    1      -3.410000   11.810001   35.067999       1.0000      1.0079
   96   2 H    1      -3.250000   11.750001   33.447998       1.0000      1.0079
   97   1 O    8      -3.370000   13.090000   30.127997       6.0000     15.9994
   98   2 H    1      -3.240000   12.620001   29.277998       1.0000      1.0079
   99   2 H    1      -4.380000   13.000001   30.247999       1.0000      1.0079
  100   1 O    8      11.400002    1.910000   39.407999       6.0000     15.9994
  101   2 H    1      11.790000    1.270000   39.997999       1.0000      1.0079
  102   2 H    1      11.310000    2.810000   39.837998       1.0000      1.0079
  103   1 O    8      -6.300001   12.470001   33.277998       6.0000     15.9994
  104   2 H    1       9.900001   11.890000   33.707999       1.0000      1.0079
  105   2 H    1      -5.460000   12.030001   33.598000       1.0000      1.0079
  106   1 O    8      10.880001    6.930000   34.437998       6.0000     15.9994
  107   2 H    1      11.130000    7.870001   34.737997       1.0000      1.0079
  108   2 H    1       9.940001    6.700000   34.417998       1.0000      1.0079
  109   1 O    8       3.180000    8.220000   29.167998       6.0000     15.9994
  110   2 H    1       3.770000    9.030001   29.317999       1.0000      1.0079
  111   2 H    1       3.780000    7.430000   29.237997       1.0000      1.0079
  112   1 O    8       7.480001    0.330000   36.547999       6.0000     15.9994
  113   2 H    1       6.730001    0.860000   37.037999       1.0000      1.0079
  114   2 H    1       7.610001    0.570000   35.577999       1.0000      1.0079
  115   1 O    8       9.900001    0.180000   37.727999       6.0000     15.9994
  116   2 H    1      10.150002    1.000000   38.217999       1.0000      1.0079
  117   2 H    1       8.990001    0.240000   37.348000       1.0000      1.0079
  118   1 O    8       5.870000   11.600000   33.617998       6.0000     15.9994
  119   2 H    1       5.790000   12.550001   33.257998       1.0000      1.0079
  120   2 H    1       5.010000   11.170001   33.387999       1.0000      1.0079
  121   1 O    8       7.110000   13.980001   29.657999       6.0000     15.9994
  122   2 H    1       7.940001   14.400001   30.117998       1.0000      1.0079
  123   2 H    1       7.010000   13.030001   29.737997       1.0000      1.0079
  124   1 O    8       3.600000    5.830000   32.487999       6.0000     15.9994
  125   2 H    1       3.850000    5.910000   31.507998       1.0000      1.0079
  126   2 H    1       4.290000    5.250000   32.918000       1.0000      1.0079
  127   1 O    8       4.230000    5.960000   29.777998       6.0000     15.9994
  128   2 H    1       3.780000    5.120000   29.517996       1.0000      1.0079
  129   2 H    1       5.200000    5.870000   29.788000       1.0000      1.0079
  130   1 O    8      10.620001    6.290000   38.447998       6.0000     15.9994
  131   2 H    1      11.400002    6.800000   38.277998       1.0000      1.0079
  132   2 H    1      10.850000    5.420001   38.008000       1.0000      1.0079
  133   1 O    8       3.160000   12.840000   29.347998       6.0000     15.9994
  134   2 H    1       3.870000   12.130001   29.477999       1.0000      1.0079
  135   2 H    1       3.580000   13.740001   29.628001       1.0000      1.0079
  136   1 O    8       6.800000    5.020000   30.387999       6.0000     15.9994
  137   2 H    1       7.200000    4.840000   31.268000       1.0000      1.0079
  138   2 H    1       7.100000    5.920000   30.097998       1.0000      1.0079
  139   1 O    8       1.060000    9.440001   37.797999       6.0000     15.9994
  140   2 H    1       1.630000   10.110001   38.277998       1.0000      1.0079
  141   2 H    1       0.490000    8.990001   38.447998       1.0000      1.0079
  142   1 O    8       5.670000   10.250001   37.957999       6.0000     15.9994
  143   2 H    1       5.090000    9.630001   37.507998       1.0000      1.0079
  144   2 H    1       5.960000    9.880000   38.797999       1.0000      1.0079
  145   1 O    8       7.150001    7.740001   29.987997       6.0000     15.9994
  146   2 H    1       6.880000    8.230000   29.137999       1.0000      1.0079
  147   2 H    1       7.630000    8.350000   30.588000       1.0000      1.0079
  148   1 O    8      -0.310000    8.100000   39.887999       6.0000     15.9994
  149   2 H    1      -0.860000    8.870000   40.227999       1.0000      1.0079
  150   2 H    1      -0.920000    7.470000   39.367998       1.0000      1.0079
  151   1 O    8       7.570000   14.080001   36.647997       6.0000     15.9994
  152   2 H    1      16.000000    0.290000   37.118000       1.0000      1.0079
  153   2 H    1       6.920000   13.490001   37.167998       1.0000      1.0079
  154   1 O    8      -3.240000    9.980000   29.877997       6.0000     15.9994
  155   2 H    1      -3.810000    9.320001   29.358000       1.0000      1.0079
  156   2 H    1      -2.340000    9.690001   29.678000       1.0000      1.0079
  157   1 O    8      -3.280000   10.870000   38.057999       6.0000     15.9994
  158   2 H    1      -2.830000   11.470001   37.397999       1.0000      1.0079
  159   2 H    1      -4.170000   11.210001   38.277998       1.0000      1.0079
  160   1 O    8       3.630000   13.890000   35.868000       6.0000     15.9994
  161   2 H    1       2.790000   14.000001   36.338000       1.0000      1.0079
  162   2 H    1      12.340001    0.220000   35.627999       1.0000      1.0079
  163   1 O    8      -0.600000    8.540000   34.098000       6.0000     15.9994
  164   2 H    1      -0.710000    7.700000   34.647997       1.0000      1.0079
  165   2 H    1      -1.150000    8.530001   33.257998       1.0000      1.0079
  166   1 O    8      -3.160000   14.540001   39.987999       6.0000     15.9994
  167   2 H    1      -4.050000   14.180001   40.057999       1.0000      1.0079
  168   2 H    1       5.180000    0.540000   39.207999       1.0000      1.0079
  169   1 O    8      -2.170000    6.590000   38.357998       6.0000     15.9994
  170   2 H    1      -2.980000    7.120000   38.018000       1.0000      1.0079
  171   2 H    1      -2.510000    5.960000   39.168000       1.0000      1.0079
  172   1 O    8       3.580000   10.520000   32.837998       6.0000     15.9994
  173   2 H    1       3.130000    9.650001   33.167998       1.0000      1.0079
  174   2 H    1       3.090000   11.250000   33.287999       1.0000      1.0079
  175   1 O    8      13.510000    1.530000   35.448000       6.0000     15.9994
  176   2 H    1      13.560000    2.000000   36.297999       1.0000      1.0079
  177   2 H    1      13.570002    2.210000   34.707999       1.0000      1.0079
  178   1 O    8      14.310001    3.420000   33.237999       6.0000     15.9994
  179   2 H    1      13.570002    4.160000   33.237999       1.0000      1.0079
  180   2 H    1      -1.860000    3.640000   33.997999       1.0000      1.0079
  181   1 O    8       2.580000    4.740000   37.507998       6.0000     15.9994
  182   2 H    1       2.280000    5.650000   37.088000       1.0000      1.0079
  183   2 H    1       1.860000    4.010000   37.487999       1.0000      1.0079
  184   1 O    8       0.070000   10.870000   35.717999       6.0000     15.9994
  185   2 H    1       0.430000   10.410000   36.537999       1.0000      1.0079
  186   2 H    1      -0.190000   10.130000   35.018000       1.0000      1.0079
  187   1 O    8       4.640000    8.340000   36.237999       6.0000     15.9994
  188   2 H    1       5.200000    8.260000   35.427998       1.0000      1.0079
  189   2 H    1       3.710000    8.200001   35.857998       1.0000      1.0079
  190   1 O    8       7.660000    0.660000   33.827999       6.0000     15.9994
  191   2 H    1      -0.680000   14.310001   33.647999       1.0000      1.0079
  192   2 H    1       6.760001    0.990000   33.417998       1.0000      1.0079
  193   1 O    8       7.330000    0.230000   29.907999       6.0000     15.9994
  194   2 H    1      -0.450000   14.170000   29.647997       1.0000      1.0079
  195   2 H    1      -2.000000   14.400001   29.947996       1.0000      1.0079
  196   1 O    8      12.040001    4.300000   29.987997       6.0000     15.9994
  197   2 H    1      11.530000    3.470000   30.337996       1.0000      1.0079
  198   2 H    1      12.080001    4.200000   28.998000       1.0000      1.0079
  199   1 O    8      -2.380000   12.010001   32.218001       6.0000     15.9994
  200   2 H    1      -2.680000   12.230001   31.297999       1.0000      1.0079
  201   2 H    1      -1.570000   12.550001   32.437998       1.0000      1.0079
  202   1 O    8       4.440001   10.680000   30.127997       6.0000     15.9994
  203   2 H    1       5.460000   10.860001   30.157999       1.0000      1.0079
  204   2 H    1       4.000000   10.610001   30.997998       1.0000      1.0079
  205   1 O    8      -0.510000    9.740001   29.807997       6.0000     15.9994
  206   2 H    1      -0.030000    9.220000   30.448000       1.0000      1.0079
  207   2 H    1      -0.220000    9.650001   28.907999       1.0000      1.0079
  208   1 O    8       2.990000    0.970000   36.567999       6.0000     15.9994
  209   2 H    1       2.630000    0.000000   36.858000       1.0000      1.0079
  210   2 H    1       3.130000    0.820000   35.567997       1.0000      1.0079
  211   1 O    8       0.260000    3.240000   29.517996       6.0000     15.9994
  212   2 H    1      -0.610000    2.810000   29.747999       1.0000      1.0079
  213   2 H    1       0.160000    4.230000   29.628001       1.0000      1.0079
  214   1 O    8       0.730000   12.520000   30.397997       6.0000     15.9994
  215   2 H    1       1.670000   12.740001   30.077998       1.0000      1.0079
  216   2 H    1       0.470000   11.590000   30.277998       1.0000      1.0079
  217   1 O    8       1.180000    8.120001   30.947998       6.0000     15.9994
  218   2 H    1       1.670000    8.140000   31.827999       1.0000      1.0079
  219   2 H    1       1.960000    8.240001   30.297999       1.0000      1.0079
  220   1 O    8      14.630001    2.960000   30.588000       6.0000     15.9994
  221   2 H    1      14.600000    3.020000   31.587998       1.0000      1.0079
  222   2 H    1      13.910000    3.530000   30.197996       1.0000      1.0079
  223   1 O    8       5.040000    3.960000   36.838000       6.0000     15.9994
  224   2 H    1       5.430000    4.790000   37.247999       1.0000      1.0079
  225   2 H    1       4.070000    4.150000   36.897999       1.0000      1.0079
  226   1 O    8       7.060000   11.270000   29.987997       6.0000     15.9994
  227   2 H    1       7.730001   10.900001   30.627999       1.0000      1.0079
  228   2 H    1       7.260000   10.730000   29.157996       1.0000      1.0079
  229   1 O    8       5.400000    1.550000   32.678000       6.0000     15.9994
  230   2 H    1       4.610000    1.100000   33.097998       1.0000      1.0079
  231   2 H    1       5.180000    1.660000   31.727999       1.0000      1.0079
  232   1 O    8      -1.860000   12.490001   36.168000       6.0000     15.9994
  233   2 H    1      -1.470000   13.360001   36.338000       1.0000      1.0079
  234   2 H    1      -1.080000   11.960001   35.877999       1.0000      1.0079
  235   1 O    8       1.500000   12.840000   39.527998       6.0000     15.9994
  236   2 H    1       0.520000   12.870001   39.737997       1.0000      1.0079
  237   2 H    1       1.710000   13.520001   38.737999       1.0000      1.0079
  238   1 O    8      -3.010000    8.130000   32.288000       6.0000     15.9994
  239   2 H    1      -3.080000    7.450001   31.517998       1.0000      1.0079
  240   2 H    1      -2.920000    8.970000   31.717997       1.0000      1.0079
  241   1 O    8       7.700000    4.410000   32.817999       6.0000     15.9994
  242   2 H    1       8.350000    3.730000   33.167998       1.0000      1.0079
  243   2 H    1       6.920000    4.430000   33.368000       1.0000      1.0079
  244   1 O    8      -0.570000    6.520000   36.147999       6.0000     15.9994
  245   2 H    1      -0.600000    5.700001   35.637999       1.0000      1.0079
  246   2 H    1      -1.310000    6.350000   36.928000       1.0000      1.0079
  247   1 O    8       5.840001    6.240000   37.697998       6.0000     15.9994
  248   2 H    1       5.160000    6.820001   37.348000       1.0000      1.0079
  249   2 H    1       5.640000    6.290000   38.678000       1.0000      1.0079
  250   1 O    8       8.460000   11.060000   33.967999       6.0000     15.9994
  251   2 H    1       7.510000   11.260000   33.977999       1.0000      1.0079
  252   2 H    1       8.540000   10.470000   34.727999       1.0000      1.0079
  253   1 O    8      -0.610000    2.230000   39.227999       6.0000     15.9994
  254   2 H    1      -0.660000    2.910000   39.918000       1.0000      1.0079
  255   2 H    1      -0.240000    1.440000   39.697998       1.0000      1.0079
  256   1 O    8       2.120000   12.030001   34.497999       6.0000     15.9994
  257   2 H    1       2.770000   12.660000   34.997999       1.0000      1.0079
  258   2 H    1       1.720000   11.330000   35.088000       1.0000      1.0079
  259   1 O    8      -4.160000    8.160001   37.317999       6.0000     15.9994
  260   2 H    1      -4.270000    8.340000   36.297999       1.0000      1.0079
  261   2 H    1      -3.980000    9.060000   37.708000       1.0000      1.0079
  262   1 O    8       0.200000   12.830001   32.878001       6.0000     15.9994
  263   2 H    1       0.850000   12.380000   33.468001       1.0000      1.0079
  264   2 H    1       0.460000   12.780001   31.928000       1.0000      1.0079
  265   1 O    8       8.000000    3.750000   37.288000       6.0000     15.9994
  266   2 H    1       7.500000    2.960000   37.267998       1.0000      1.0079
  267   2 H    1       8.940001    3.560000   36.877999       1.0000      1.0079
  268   1 O    8       2.950000    3.450000   29.338000       6.0000     15.9994
  269   2 H    1       2.010000    3.260000   29.507998       1.0000      1.0079
  270   2 H    1       3.520000    2.680000   29.527998       1.0000      1.0079
  271   1 O    8       1.120000    1.820000   32.607998       6.0000     15.9994
  272   2 H    1       1.100000    2.810000   32.667998       1.0000      1.0079
  273   2 H    1       0.360000    1.520000   33.157999       1.0000      1.0079
  274   1 O    8       5.360000   14.170000   32.418000       6.0000     15.9994
  275   2 H    1       6.140000   14.510001   32.907999       1.0000      1.0079
  276   2 H    1       5.440001   14.480001   31.497999       1.0000      1.0079
  277   1 O    8       0.910000    2.750000   37.018000       6.0000     15.9994
  278   2 H    1       0.350000    2.500000   37.767998       1.0000      1.0079
  279   2 H    1       1.700000    2.150000   36.797999       1.0000      1.0079
  280   1 O    8      10.080000   10.610001   29.317999       6.0000     15.9994
  281   2 H    1      -6.520000   11.550001   29.717997       1.0000      1.0079
  282   2 H    1      10.630001    9.940001   29.698000       1.0000      1.0079
  283   1 O    8       8.030001    4.540000   39.817999       6.0000     15.9994
  284   2 H    1       7.730001    4.310000   38.847998       1.0000      1.0079
  285   2 H    1       7.400000    5.110001   40.257998       1.0000      1.0079
  286   1 O    8      10.630001    2.240000   31.008000       6.0000     15.9994
  287   2 H    1      10.680000    1.190000   31.178000       1.0000      1.0079
  288   2 H    1       9.810000    2.400000   30.477999       1.0000      1.0079
  289   1 O    8       9.500000    2.580000   33.477999       6.0000     15.9994
  290   2 H    1       9.880000    2.490000   32.577998       1.0000      1.0079
  291   2 H    1       8.870000    1.770000   33.497998       1.0000      1.0079
  292   1 O    8       5.300000    1.380000   37.657999       6.0000     15.9994
  293   2 H    1       5.210000    2.370000   37.507998       1.0000      1.0079
  294   2 H    1       4.440001    1.070000   37.188000       1.0000      1.0079
  295   3 Pt  78       1.580000    0.650000   27.017996      10.0000    195.0840
  296   3 Pt  78       4.430000    0.680000   26.947996      10.0000    195.0840
  297   3 Pt  78       7.180000    0.540000   27.047999      10.0000    195.0840
  298   3 Pt  78      10.030001    0.630000   26.887999      10.0000    195.0840
  299   3 Pt  78      12.860001    0.560000   26.957999      10.0000    195.0840
  300   3 Pt  78      15.810001    0.690000   27.058001      10.0000    195.0840
  301   3 Pt  78       3.080000    3.150000   27.007998      10.0000    195.0840
  302   3 Pt  78       5.740000    3.040000   26.857996      10.0000    195.0840
  303   3 Pt  78       8.590000    3.130000   26.997999      10.0000    195.0840
  304   3 Pt  78      11.470001    3.020000   26.867998      10.0000    195.0840
  305   3 Pt  78      14.260001    3.090000   26.807997      10.0000    195.0840
  306   3 Pt  78       0.300000    3.070000   27.117998      10.0000    195.0840
  307   3 Pt  78       4.390000    5.680000   27.007998      10.0000    195.0840
  308   3 Pt  78       7.250000    5.400000   26.838000      10.0000    195.0840
  309   3 Pt  78      10.140000    5.500000   26.797999      10.0000    195.0840
  310   3 Pt  78      13.000001    5.590000   26.917998      10.0000    195.0840
  311   3 Pt  78      -1.190000    5.590000   26.947996      10.0000    195.0840
  312   3 Pt  78       1.610000    5.520000   27.027998      10.0000    195.0840
  313   3 Pt  78       5.920000    7.940001   26.968001      10.0000    195.0840
  314   3 Pt  78       8.720000    7.870001   26.977999      10.0000    195.0840
  315   3 Pt  78      11.480000    7.880001   26.877997      10.0000    195.0840
  316   3 Pt  78      -2.510000    8.020000   26.898001      10.0000    195.0840
  317   3 Pt  78       0.130000    8.020000   26.937998      10.0000    195.0840
  318   3 Pt  78       2.860000    8.000000   26.968001      10.0000    195.0840
  319   3 Pt  78       7.340000   10.400001   26.947996      10.0000    195.0840
  320   3 Pt  78      10.270000   10.340000   27.198000      10.0000    195.0840
  321   3 Pt  78      -3.950000   10.400001   27.007998      10.0000    195.0840
  322   3 Pt  78      -1.150000   10.630001   26.997999      10.0000    195.0840
  323   3 Pt  78       1.600000   10.430001   26.917998      10.0000    195.0840
  324   3 Pt  78       4.540000   10.450001   26.777998      10.0000    195.0840
  325   3 Pt  78       8.650001   12.740001   26.917998      10.0000    195.0840
  326   3 Pt  78      -5.380001   12.880001   26.887999      10.0000    195.0840
  327   3 Pt  78      -2.560000   12.800001   27.027998      10.0000    195.0840
  328   3 Pt  78       0.270000   12.820001   26.898001      10.0000    195.0840
  329   3 Pt  78       3.160000   12.840000   26.877997      10.0000    195.0840
  330   3 Pt  78       5.890000   12.830001   26.847998      10.0000    195.0840
  331   3 Pt  78       0.320000    1.570000   24.617998      10.0000    195.0840
  332   3 Pt  78       3.100000    1.420000   24.667998      10.0000    195.0840
  333   3 Pt  78       5.880000    1.450000   24.527998      10.0000    195.0840
  334   3 Pt  78       8.640000    1.450000   24.617998      10.0000    195.0840
  335   3 Pt  78      11.450001    1.400000   24.507998      10.0000    195.0840
  336   3 Pt  78      14.270000    1.610000   24.577998      10.0000    195.0840
  337   3 Pt  78       1.600000    4.000000   24.687998      10.0000    195.0840
  338   3 Pt  78       4.470000    3.900000   24.727999      10.0000    195.0840
  339   3 Pt  78       7.260000    3.790000   24.577998      10.0000    195.0840
  340   3 Pt  78       9.930000    3.810000   24.477999      10.0000    195.0840
  341   3 Pt  78      12.820001    3.940000   24.558001      10.0000    195.0840
  342   3 Pt  78      -1.190000    3.850000   24.628001      10.0000    195.0840
  343   3 Pt  78       3.060000    6.370000   24.707999      10.0000    195.0840
  344   3 Pt  78       5.830000    6.370000   24.608000      10.0000    195.0840
  345   3 Pt  78       8.660001    6.330000   24.567999      10.0000    195.0840
  346   3 Pt  78      11.420001    6.330000   24.567999      10.0000    195.0840
  347   3 Pt  78      -2.640000    6.490001   24.547999      10.0000    195.0840
  348   3 Pt  78       0.230000    6.290000   24.608000      10.0000    195.0840
  349   3 Pt  78       4.460000    8.790001   24.538000      10.0000    195.0840
  350   3 Pt  78       7.130001    8.770000   24.587996      10.0000    195.0840
  351   3 Pt  78      10.060000    8.790001   24.657999      10.0000    195.0840
  352   3 Pt  78      -3.940000    8.820001   24.628001      10.0000    195.0840
  353   3 Pt  78      -1.040000    8.830000   24.527998      10.0000    195.0840
  354   3 Pt  78       1.640000    8.870000   24.597998      10.0000    195.0840
  355   3 Pt  78       5.860000   11.300000   24.507998      10.0000    195.0840
  356   3 Pt  78       8.580000   11.190001   24.637999      10.0000    195.0840
  357   3 Pt  78      -5.400000   11.170001   24.587996      10.0000    195.0840
  358   3 Pt  78      -2.680000   11.330000   24.637999      10.0000    195.0840
  359   3 Pt  78       0.290000   11.260000   24.577998      10.0000    195.0840
  360   3 Pt  78       3.030000   11.260000   24.477999      10.0000    195.0840
  361   3 Pt  78       7.280001   13.920001   24.567999      10.0000    195.0840
  362   3 Pt  78      -6.910000   13.610001   24.657999      10.0000    195.0840
  363   3 Pt  78      -4.060000   13.650000   24.608000      10.0000    195.0840
  364   3 Pt  78      -1.170000   13.630000   24.527998      10.0000    195.0840
  365   3 Pt  78       1.610000   13.550000   24.577998      10.0000    195.0840
  366   3 Pt  78       4.440001   13.720001   24.577998      10.0000    195.0840
  367   3 Pt  78      -8.260000   14.500000   22.327998      10.0000    195.0840
  368   3 Pt  78      -5.430000   14.530001   22.417998      10.0000    195.0840
  369   3 Pt  78      -2.580000   14.440001   22.288000      10.0000    195.0840
  370   3 Pt  78       0.150000   14.380001   22.248000      10.0000    195.0840
  371   3 Pt  78       2.990000   14.470000   22.257998      10.0000    195.0840
  372   3 Pt  78       5.810000   14.560001   22.148001      10.0000    195.0840
  373   3 Pt  78       1.560000    2.450000   22.337996      10.0000    195.0840
  374   3 Pt  78       4.430000    2.430000   22.257998      10.0000    195.0840
  375   3 Pt  78       7.260000    2.350000   22.157999      10.0000    195.0840
  376   3 Pt  78      10.010000    2.160000   22.237997      10.0000    195.0840
  377   3 Pt  78      12.920000    2.300000   22.167998      10.0000    195.0840
  378   3 Pt  78      -1.230000    2.310000   22.267996      10.0000    195.0840
  379   3 Pt  78       3.110000    4.840000   22.317999      10.0000    195.0840
  380   3 Pt  78       5.840001    4.810000   22.288000      10.0000    195.0840
  381   3 Pt  78       8.740000    4.780000   22.187998      10.0000    195.0840
  382   3 Pt  78      11.390000    4.760000   22.218001      10.0000    195.0840
  383   3 Pt  78      -2.650000    4.730000   22.277998      10.0000    195.0840
  384   3 Pt  78       0.240000    4.740000   22.288000      10.0000    195.0840
  385   3 Pt  78       4.440001    7.280001   22.257998      10.0000    195.0840
  386   3 Pt  78       7.200000    7.160000   22.257998      10.0000    195.0840
  387   3 Pt  78      10.000000    7.350000   22.317999      10.0000    195.0840
  388   3 Pt  78      -4.140000    7.200000   22.267996      10.0000    195.0840
  389   3 Pt  78      -1.140000    7.180000   22.197996      10.0000    195.0840
  390   3 Pt  78       1.630000    7.180000   22.307997      10.0000    195.0840
  391   3 Pt  78       5.810000    9.730001   22.257998      10.0000    195.0840
  392   3 Pt  78       8.640000    9.650001   22.377997      10.0000    195.0840
  393   3 Pt  78      -5.370000    9.680000   22.397997      10.0000    195.0840
  394   3 Pt  78      -2.610000    9.560000   22.347998      10.0000    195.0840
  395   3 Pt  78       0.330000    9.570000   22.257998      10.0000    195.0840
  396   3 Pt  78       3.030000    9.680000   22.207999      10.0000    195.0840
  397   3 Pt  78       7.200000   12.120000   22.237997      10.0000    195.0840
  398   3 Pt  78      -6.920000   12.110001   22.397997      10.0000    195.0840
  399   3 Pt  78      -4.020000   12.070000   22.267996      10.0000    195.0840
  400   3 Pt  78      -1.230000   11.990000   22.297999      10.0000    195.0840
  401   3 Pt  78       1.550000   12.110001   22.197996      10.0000    195.0840
  402   3 Pt  78       4.330000   12.160001   22.248000      10.0000    195.0840
  403   3 Pt  78       1.600000    0.730000   20.090000      10.0000    195.0840
  404   3 Pt  78       4.460000    0.610000   20.120000      10.0000    195.0840
  405   3 Pt  78       7.200000    0.690000   19.960000      10.0000    195.0840
  406   3 Pt  78       9.910001    0.680000   19.880000      10.0000    195.0840
  407   3 Pt  78      12.790001    0.630000   19.870000      10.0000    195.0840
  408   3 Pt  78      15.520000    0.690000   19.930000      10.0000    195.0840
  409   3 Pt  78       3.050000    3.060000   19.990000      10.0000    195.0840
  410   3 Pt  78       5.730000    3.170000   19.890000      10.0000    195.0840
  411   3 Pt  78       8.520000    3.210000   19.930000      10.0000    195.0840
  412   3 Pt  78      11.340000    3.070000   19.920000      10.0000    195.0840
  413   3 Pt  78      14.190001    3.070000   19.860000      10.0000    195.0840
  414   3 Pt  78       0.160000    3.060000   19.910000      10.0000    195.0840
  415   3 Pt  78       4.330000    5.600000   19.970000      10.0000    195.0840
  416   3 Pt  78       7.140000    5.700001   19.970000      10.0000    195.0840
  417   3 Pt  78       9.910001    5.640000   19.910000      10.0000    195.0840
  418   3 Pt  78      12.680000    5.510000   19.990000      10.0000    195.0840
  419   3 Pt  78      -1.220000    5.520000   19.990000      10.0000    195.0840
  420   3 Pt  78       1.680000    5.460000   20.020000      10.0000    195.0840
  421   3 Pt  78       5.780000    8.070001   19.940000      10.0000    195.0840
  422   3 Pt  78       8.610001    8.070001   19.950000      10.0000    195.0840
  423   3 Pt  78      11.420001    8.020000   19.970000      10.0000    195.0840
  424   3 Pt  78      -2.690000    7.930000   19.960000      10.0000    195.0840
  425   3 Pt  78       0.190000    7.890000   19.940000      10.0000    195.0840
  426   3 Pt  78       3.010000    8.020000   19.950000      10.0000    195.0840
  427   3 Pt  78       7.180000   10.540000   20.030000      10.0000    195.0840
  428   3 Pt  78       9.980000   10.460000   20.110000      10.0000    195.0840
  429   3 Pt  78      -4.000000   10.440001   20.070000      10.0000    195.0840
  430   3 Pt  78      -1.240000   10.350000   19.900000      10.0000    195.0840
  431   3 Pt  78       1.470000   10.500001   19.830000      10.0000    195.0840
  432   3 Pt  78       4.340000   10.430001   19.990000      10.0000    195.0840
  433   3 Pt  78       8.560000   12.940001   19.950000      10.0000    195.0840
  434   3 Pt  78      -5.540000   12.780001   20.240000      10.0000    195.0840
  435   3 Pt  78      -2.640000   12.790001   19.930000      10.0000    195.0840
  436   3 Pt  78       0.050000   12.770000   19.900000      10.0000    195.0840
  437   3 Pt  78       2.850000   12.910000   19.790000      10.0000    195.0840
  438   3 Pt  78       5.720000   12.930001   19.880000      10.0000    195.0840
  439   3 Pt  78       0.110000    1.420000   17.620000      10.0000    195.0840
  440   3 Pt  78       2.920000    1.460000   17.820000      10.0000    195.0840
  441   3 Pt  78       5.750000    1.480000   17.720000      10.0000    195.0840
  442   3 Pt  78       8.620001    1.500000   17.680000      10.0000    195.0840
  443   3 Pt  78      11.280001    1.440000   17.490000      10.0000    195.0840
  444   3 Pt  78      14.090000    1.420000   17.550000      10.0000    195.0840
  445   3 Pt  78       1.480000    3.930000   17.630000      10.0000    195.0840
  446   3 Pt  78       4.300000    3.880000   17.780000      10.0000    195.0840
  447   3 Pt  78       7.150001    4.030000   17.650000      10.0000    195.0840
  448   3 Pt  78       9.950001    3.940000   17.650000      10.0000    195.0840
  449   3 Pt  78      12.830001    3.870000   17.690000      10.0000    195.0840
  450   3 Pt  78      -1.210000    3.980000   17.690000      10.0000    195.0840
  451   3 Pt  78       3.010000    6.410000   17.660000      10.0000    195.0840
  452   3 Pt  78       5.680000    6.390000   17.630000      10.0000    195.0840
  453   3 Pt  78       8.560000    6.440001   17.620000      10.0000    195.0840
  454   3 Pt  78      11.430000    6.390000   17.600000      10.0000    195.0840
  455   3 Pt  78      -2.580000    6.300001   17.670000      10.0000    195.0840
  456   3 Pt  78       0.290000    6.340000   17.590000      10.0000    195.0840
  457   3 Pt  78       4.360000    8.820001   17.720000      10.0000    195.0840
  458   3 Pt  78       7.200000    8.870000   17.620000      10.0000    195.0840
  459   3 Pt  78       9.960001    8.750001   17.740000      10.0000    195.0840
  460   3 Pt  78      -4.030000    8.740000   17.650000      10.0000    195.0840
  461   3 Pt  78      -1.230000    8.640000   17.690000      10.0000    195.0840
  462   3 Pt  78       1.530000    8.740000   17.700000      10.0000    195.0840
  463   3 Pt  78       5.850000   11.230000   17.600000      10.0000    195.0840
  464   3 Pt  78       8.730000   11.190001   17.580000      10.0000    195.0840
  465   3 Pt  78      -5.460000   11.200000   17.760000      10.0000    195.0840
  466   3 Pt  78      -2.700000   11.230000   17.690000      10.0000    195.0840
  467   3 Pt  78      -0.020000   11.140001   17.540000      10.0000    195.0840
  468   3 Pt  78       2.930000   11.240001   17.620000      10.0000    195.0840
  469   3 Pt  78       7.270000   13.630000   17.530000      10.0000    195.0840
  470   3 Pt  78      -6.840000   13.620001   17.810000      10.0000    195.0840
  471   3 Pt  78      -4.100000   13.770000   17.610000      10.0000    195.0840
  472   3 Pt  78      -1.300000   13.620001   17.550000      10.0000    195.0840
  473   3 Pt  78       1.540000   13.600000   17.590000      10.0000    195.0840
  474   3 Pt  78       4.370000   13.570002   17.470000      10.0000    195.0840
  475   3 Pt  78      -8.250000   14.480001   15.289999      10.0000    195.0840
  476   3 Pt  78      -5.480001   14.530001   15.440000      10.0000    195.0840
  477   3 Pt  78      -2.500000   14.570000   15.360000      10.0000    195.0840
  478   3 Pt  78       0.280000   14.550000   15.330000      10.0000    195.0840
  479   3 Pt  78       2.970000   14.430000   15.070000      10.0000    195.0840
  480   3 Pt  78       5.710001   14.470000   15.230000      10.0000    195.0840
  481   3 Pt  78       1.640000    2.270000   15.380000      10.0000    195.0840
  482   3 Pt  78       4.490000    2.350000   15.370000      10.0000    195.0840
  483   3 Pt  78       7.340000    2.220000   15.310000      10.0000    195.0840
  484   3 Pt  78      10.100000    2.450000   15.250000      10.0000    195.0840
  485   3 Pt  78      12.880001    2.350000   15.180000      10.0000    195.0840
  486   3 Pt  78      -1.270000    2.290000   15.429999      10.0000    195.0840
  487   3 Pt  78       3.040000    4.730000   15.490000      10.0000    195.0840
  488   3 Pt  78       5.850000    4.800000   15.380000      10.0000    195.0840
  489   3 Pt  78       8.660001    4.750000   15.330000      10.0000    195.0840
  490   3 Pt  78      11.510000    4.880000   15.270000      10.0000    195.0840
  491   3 Pt  78      -2.630000    4.810000   15.450000      10.0000    195.0840
  492   3 Pt  78       0.170000    4.690000   15.200000      10.0000    195.0840
  493   3 Pt  78       4.190001    7.090001   15.320000      10.0000    195.0840
  494   3 Pt  78       7.110000    7.210000   15.289999      10.0000    195.0840
  495   3 Pt  78       9.970000    7.290000   15.240000      10.0000    195.0840
  496   3 Pt  78      -4.040000    7.120000   15.380000      10.0000    195.0840
  497   3 Pt  78      -1.210000    7.070000   15.330000      10.0000    195.0840
  498   3 Pt  78       1.580000    7.180000   15.000000      10.0000    195.0840
  499   3 Pt  78       5.600000    9.550000   15.520000      10.0000    195.0840
  500   3 Pt  78       8.500000    9.590000   15.380000      10.0000    195.0840
  501   3 Pt  78      -5.440001    9.630001   15.480000      10.0000    195.0840
  502   3 Pt  78      -2.740000    9.600000   15.380000      10.0000    195.0840
  503   3 Pt  78       0.250000    9.440001   15.380000      10.0000    195.0840
  504   3 Pt  78       2.900000    9.560000   15.170000      10.0000    195.0840
  505   3 Pt  78       7.180000   12.080001   15.210000      10.0000    195.0840
[...]
 -                                                                             -
 -                                DBCSR STATISTICS                             -
 -                                                                             -
 -------------------------------------------------------------------------------
 COUNTER                                    TOTAL       BLAS       SMM       ACC
 flops     5 x     5 x   116           5597580000       0.0%    100.0%      0.0%
 flops    13 x     5 x   116           7128316000       0.0%    100.0%      0.0%
 flops     5 x    13 x   116           7146412000       0.0%    100.0%      0.0%
 flops    13 x    13 x   116           8547344000       0.0%    100.0%      0.0%
 flops     5 x     5 x    96           9264960000       0.0%    100.0%      0.0%
 flops    13 x     5 x    96          11798592000       0.0%    100.0%      0.0%
 flops     5 x    13 x    96          11828544000       0.0%    100.0%      0.0%
 flops    13 x    20 x   116          12624976000       0.0%    100.0%      0.0%
 flops    20 x    13 x   116          12649104000       0.0%    100.0%      0.0%
 flops     5 x    20 x   116          13391040000       0.0%    100.0%      0.0%
 flops    20 x     5 x   116          13427000000       0.0%    100.0%      0.0%
 flops    13 x    13 x    96          14147328000       0.0%    100.0%      0.0%
 flops    13 x    20 x    96          20896512000       0.0%    100.0%      0.0%
 flops    20 x    13 x    96          20936448000       0.0%    100.0%      0.0%
 flops     5 x    20 x    96          22164480000       0.0%    100.0%      0.0%
 flops    20 x     5 x    96          22224000000       0.0%    100.0%      0.0%
 flops     5 x     5 x   128          80296320000       0.0%    100.0%      0.0%
 flops    13 x     5 x   128         102254464000       0.0%    100.0%      0.0%
 flops     5 x    13 x   128         102514048000       0.0%    100.0%      0.0%
 flops    20 x    20 x   116         108743040000       0.0%    100.0%      0.0%
 flops    13 x    13 x   128         122610176000       0.0%    100.0%      0.0%
 flops    20 x    20 x    96         179988480000       0.0%    100.0%      0.0%
 flops    13 x    20 x   128         181103104000       0.0%    100.0%      0.0%
 flops    20 x    13 x   128         181449216000       0.0%    100.0%      0.0%
 flops     5 x    20 x   128         192092160000       0.0%    100.0%      0.0%
 flops    20 x     5 x   128         192608000000       0.0%    100.0%      0.0%
 flops    20 x    20 x   128        1559900160000       0.0%    100.0%      0.0%
 flops inhomo. stacks                           0       0.0%      0.0%      0.0%
 flops total                         3.217332E+12       0.0%    100.0%      0.0%
 flops max/rank                     28.219714E+09       0.0%    100.0%      0.0%
 matmuls inhomo. stacks                         0       0.0%      0.0%      0.0%
 matmuls total                           78023200       0.0%    100.0%      0.0%
 number of processed stacks                919200       0.0%    100.0%      0.0%
 average stack size                                     0.0      84.9       0.0
 marketing flops                     6.626018E+12
 -------------------------------------------------------------------------------
 # multiplications                             50
 max memory usage/rank               1.625723E+09
 # max total images/rank                        2
 # max 3D layers                                1
 # MPI messages exchanged                  185600
 MPI messages size (bytes):
  total size                       114.082562E+09
  min size                         314.880000E+03
  max size                         843.776000E+03
  average size                     614.669000E+03
 MPI breakdown and total messages size (bytes):
             size <=      128                   0                        0
       128 < size <=     8192                   0                        0
      8192 < size <=    32768                   0                        0
     32768 < size <=   131072                   0                        0
    131072 < size <=  4194304              185600             114082566400
   4194304 < size <= 16777216                   0                        0
  16777216 < size                               0                        0
 -------------------------------------------------------------------------------

 *** WARNING in dbcsr_mm.F:290 :: Using a non-square number of MPI ranks ***
 *** might lead to poor performance. Used ranks: 128 Suggested: 121 256  ***

 -------------------------------------------------------------------------------
 -                                                                             -
 -                      DBCSR MESSAGE PASSING PERFORMANCE                      -
 -                                                                             -
 -------------------------------------------------------------------------------
 ROUTINE             CALLS      AVE VOLUME [Bytes]
 MP_Bcast               28                     12.
 MP_Allreduce          424                     11.
 MP_Alltoall          1412                 610286.
 MP_ISend             3200                 292036.
 MP_IRecv             3200                 285487.
 -------------------------------------------------------------------------------

 -------------------------------------------------------------------------------
 -                                                                             -
 -                                DBM STATISTICS                               -
 -                                                                             -
 -------------------------------------------------------------------------------
    M  x    N  x    K                                          COUNT     PERCENT
 -------------------------------------------------------------------------------

 -------------------------------------------------------------------------------
 -                                                                             -
 -                                GRID STATISTICS                              -
 -                                                                             -
 -------------------------------------------------------------------------------
 LP    KERNEL             BACKEND                              COUNT     PERCENT
 4     collocate general  REF                               20276800      22.38%
 4     integrate general  REF                               20150245      22.24%
 3     collocate general  REF                               13949050      15.40%
 3     integrate general  REF                               13889007      15.33%
 2     collocate general  REF                               10946900      12.08%
 2     integrate general  REF                               10727962      11.84%
 5     integrate general  REF                                 405536       0.45%
 0     collocate general  REF                                 130560       0.14%
 0     integrate general  REF                                  65280       0.07%
 1     integrate general  REF                                  65280       0.07%
 -------------------------------------------------------------------------------

 MEMORY| Estimated peak process memory [MiB]                                1816

 -------------------------------------------------------------------------------
 ----                             MULTIGRID INFO                            ----
 -------------------------------------------------------------------------------
 count for grid        1:        1094754          cutoff [a.u.]          200.00
 count for grid        2:        1090105          cutoff [a.u.]           66.67
 count for grid        3:         712884          cutoff [a.u.]           22.22
 count for grid        4:         551044          cutoff [a.u.]            7.41
 total gridlevel count  :        3448787

 -------------------------------------------------------------------------------
 -                                                                             -
 -                         MESSAGE PASSING PERFORMANCE                         -
 -                                                                             -
 -------------------------------------------------------------------------------

 ROUTINE             CALLS      AVE VOLUME [Bytes]
 MP_Group                4
 MP_Bcast              253                2253830.
 MP_Allreduce         3686                  29122.
 MP_Sync               104
 MP_Alltoall          3022               15936915.
 MP_SendRecv           508                   5874.
 MP_ISendRecv        25400                  61740.
 MP_Wait             44864
 MP_comm_split          50
 MP_ISend            18344                 256260.
 MP_IRecv            18344                 256260.
 MP_Recv               183                1682944.
 MP_Write_All            3                1797408.
 -------------------------------------------------------------------------------


 -------------------------------------------------------------------------------
 -                                                                             -
 -                           R E F E R E N C E S                               -
 -                                                                             -
 -------------------------------------------------------------------------------
 
 CP2K version 2022.1, the CP2K developers group (2022).
 CP2K is freely available from https://www.cp2k.org/ .

 Kuehne,Thomas D.; Iannuzzi,Marcella; Del Ben,Mauro;
 Rybkin,Vladimir V.; Seewald,Patrick; Stein,Frederick; Laino,Teodoro;
 Khaliullin,Rustam Z.; Schuett,Ole; Schiffmann,Florian; Golze,Dorothea;
 Wilhelm,Jan; Chulkov,Sergey; Bani-Hashemian,Mohammad Hossein;
 Weber,Valery; Borstnik,Urban; Taillefumier,Mathieu;
 Jakobovits,Alice Shoshana; Lazzaro,Alfio; Pabst,Hans; Mueller,Tiziano;
 Schade,Robert; Guidon,Manuel; Andermatt,Samuel; Holmberg,Nico;
 Schenter,Gregory K.; Hehn,Anna; Bussy,Augustin; Belleflamme,Fabian;
 Tabacchi,Gloria; Gloess,Andreas; Lass,Michael; Bethune,Iain;
 Mundy,Christopher J.; Plessl,Christian; Watkins,Matt;
 VandeVondele,Joost; Krack,Matthias; Hutter,Juerg. 
 The Journal of Chemical Physics, 152 (19), (2020). 
 CP2K: An electronic structure and molecular dynamics software package -
 Quickstep: Efficient and accurate electronic structure calculations.
 https://doi.org/10.1063/5.0007045

 Goerigk, Lars; Hansen, Andreas; Bauer, Christoph; Ehrlich, Stephan;
 Najibi, Asim; Grimme, Stefan. , 19 (48), (2017). 
 A look at the density functional theory zoo with the advanced GMTKN55 database
 for general main group thermochemistry, kinetics and noncovalent interactions.
 https://doi.org/10.1039/C7CP04913G

 Bani-Hashemian, MH; Bruck, S; Luisier, M; VandeVondele, J. 
 JOURNAL OF CHEMICAL PHYSICS, 144 (4), 044113 (2016). 
 A generalized Poisson solver for first-principles device simulations.
 https://doi.org/10.1063/1.4940796

 Schuett, Ole; Messmer, Peter; Hutter, Juerg; VandeVondele, Joost. 
 Electronic Structure Calculations on Graphics Processing Units, John
 Wiley & Sons, Ltd, 173-190 (2016). 
 GPU-Accelerated Sparse Matrix-Matrix Multiplication for
 Linear Scaling Density Functional Theory.
 https://doi.org/10.1002/9781118670712.ch8

 Heinecke, A; Henry, G; Hutchinson, M; Pabst, H. 
 Proceedings of Intl. Supercomputing Conference, 981-991 (2016). 
 LIBXSMM: Accelerating Small Matrix Multiplications
 by Runtime Code Generation.
 https://doi.org/10.1109/SC.2016.83

 Borstnik, U; VandeVondele, J; Weber, V; Hutter, J. 
 PARALLEL COMPUTING, 40 (5-6), 47-58 (2014). 
 Sparse matrix multiplication: The distributed block-compressed sparse
 row library.
 https://doi.org/10.1016/j.parco.2014.03.012

 Hutter, J; Iannuzzi, M; Schiffmann, F; VandeVondele, J. 
 WIREs Comput Mol Sci., 4 (1), 15-25 (2014). 
 CP2K: atomistic simulations of condensed matter systems.
 https://doi.org/10.1002/wcms.1159

 Marek, A; Blum, V; Johanni, R; Havu, V; Lang, B; Auckenthaler, T;
 Heinecke, A; Bungartz, H; Lederer, H. 
 Journal of Physics: Condensed Matter, 26 (21), (2014). 
 The ELPA library: scalable parallel eigenvalue solutions for
 electronic structure
 theory and computational science.
 https://doi.org/10.1088/0953-8984/26/21/213201

 Grimme, S; Ehrlich, S; Goerigk, L. 
 JOURNAL OF COMPUTATIONAL CHEMISTRY, 32, 1456 (2011). 
 Effect of the damping function in dispersion corrected density functional theory.
 https://doi.org/10.1002/jcc.21759

 Grimme, S; Antony, J; Ehrlich, S; Krieg, H. 
 JOURNAL OF CHEMICAL PHYSICS, 132 (15), 154104 (2010). 
 A consistent and accurate ab initio parametrization of density
 functional dispersion correction (DFT-D) for the 94 elements H-Pu.
 https://doi.org/10.1063/1.3382344

 VandeVondele, J; Hutter, J. 
 JOURNAL OF CHEMICAL PHYSICS, 127 (11), 114105 (2007). 
 Gaussian basis sets for accurate calculations on molecular systems in
 gas and condensed phases.
 https://doi.org/10.1063/1.2770708

 Krack, M. 
 THEORETICAL CHEMISTRY ACCOUNTS, 114 (1-3), 145-152 (2005). 
 Pseudopotentials for H to Kr optimized for gradient-corrected
 exchange-correlation functionals.
 https://doi.org/10.1007/s00214-005-0655-y

 VandeVondele, J; Krack, M; Mohamed, F; Parrinello, M; Chassaing, T;
 Hutter, J. COMPUTER PHYSICS COMMUNICATIONS, 167 (2), 103-128 (2005). 
 QUICKSTEP: Fast and accurate density functional calculations using a
 mixed Gaussian and plane waves approach.
 https://doi.org/10.1016/j.cpc.2004.12.014

 Frigo, M; Johnson, SG. 
 PROCEEDINGS OF THE IEEE, 93 (2), 216-231 (2005). 
 The design and implementation of FFTW3.
 https://doi.org/10.1109/JPROC.2004.840301

 Hartwigsen, C; Goedecker, S; Hutter, J. 
 PHYSICAL REVIEW B, 58 (7), 3641-3662 (1998). 
 Relativistic separable dual-space Gaussian pseudopotentials from H to Rn.
 https://doi.org/10.1103/PhysRevB.58.3641

 Lippert, G; Hutter, J; Parrinello, M. 
 MOLECULAR PHYSICS, 92 (3), 477-487 (1997). 
 A hybrid Gaussian and plane wave density functional scheme.
 https://doi.org/10.1080/002689797170220

 Perdew, JP; Burke, K; Ernzerhof, M. 
 PHYSICAL REVIEW LETTERS, 77 (18), 3865-3868 (1996). 
 Generalized gradient approximation made simple.
 https://doi.org/10.1103/PhysRevLett.77.3865

 Goedecker, S; Teter, M; Hutter, J. 
 PHYSICAL REVIEW B, 54 (3), 1703-1710 (1996). 
 Separable dual-space Gaussian pseudopotentials.
 https://doi.org/10.1103/PhysRevB.54.1703


 -------------------------------------------------------------------------------
 -                                                                             -
 -                                T I M I N G                                  -
 -                                                                             -
 -------------------------------------------------------------------------------
 SUBROUTINE                       CALLS  ASD         SELF TIME        TOTAL TIME
                                MAXIMUM       AVERAGE  MAXIMUM  AVERAGE  MAXIMUM
 CP2K                                 1  1.0    0.028    0.044  345.509  345.511
 qs_forces                            1  2.0    0.002    0.002  344.995  344.997
 qs_energies                          1  3.0    0.000    0.000  338.918  338.923
 scf_env_do_scf                       1  4.0    0.000    0.000  330.578  330.718
 scf_env_do_scf_inner_loop           49  5.0    0.003    0.007  330.578  330.718
 rebuild_ks_matrix                   50  6.9    0.000    0.000  178.242  178.294
 qs_ks_build_kohn_sham_matrix        50  7.9    0.008    0.009  178.242  178.294
 qs_ks_update_qs_env                 49  6.0    0.000    0.000  174.304  174.356
 pw_transfer                       2604 12.2    0.189    0.235  113.135  115.374
 fft_wrap_pw1pw2                   2604 13.2    0.026    0.033  112.946  115.153
 fft_wrap_pw1pw2_200               2304 14.4    7.679    9.117  111.441  113.564
 pw_poisson_solve                    50  8.9    0.005    0.013   97.565   97.623
 qs_scf_new_mos                      49  6.0    0.003    0.008   94.386   94.564
 fft3d_ps                          2604 15.2   32.746   36.521   90.624   93.859
 implicit_poisson_solver_mixed_      50  9.9    2.070    2.531   92.380   92.444
 eigensolver                         49  7.0    0.004    0.006   88.991   89.270
 derive_fft                         300 12.1    0.019    0.024   64.731   64.931
 cp_fm_diag_elpa                     50  8.0    0.001    0.001   62.454   62.614
 cp_fm_redistribute_end              50  9.0    8.184   61.894    8.282   61.957
 cp_fm_diag_elpa_base                50  9.0   52.846   60.504   53.363   61.131
 mp_alltoall_z22v                  2604 17.2   48.368   59.631   48.368   59.631
 apply_P_operator                   250 11.1    1.328    1.480   55.386   55.565
 qs_rho_update_rho_low               50  6.0    0.000    0.000   54.156   54.167
 calculate_rho_elec                  50  7.0    0.097    0.123   54.155   54.167
 sum_up_and_integrate                50  8.9    0.271    0.329   53.101   53.166
 integrate_v_rspace                  50  9.9    0.002    0.002   52.829   52.955
 grid_collocate_task_list            50  8.0   36.037   42.121   36.037   42.121
 x_to_yz                           1501 16.4    6.357    8.128   36.452   38.200
 grid_integrate_task_list            50 10.9   33.420   38.152   33.420   38.152
 cp_fm_triangular_multiply          147  8.0   27.700   28.062   27.700   28.062
 yz_to_x                            803 16.4    2.189    2.545   20.270   27.563
 rs_pw_transfer                     404 10.4    0.005    0.006   22.829   26.943
 qs_vxc_create                       50  8.9    0.001    0.002   24.716   25.013
 xc_vxc_pw_create                    50  9.9    0.427    0.529   24.715   25.012
 density_rs2pw                       50  8.0    0.003    0.004   16.857   21.133
 xc_pw_derive                       300 11.9    0.005    0.006   17.408   19.343
 apply_poisson_operator_fft          50 10.9    0.001    0.001   16.268   16.545
 apply_inv_laplace_operator_fft     152 11.6    0.378    0.449   14.844   15.374
 potential_pw2rs                     50 10.9    0.015    0.017   14.184   14.301
 rs_pw_transfer_RS2PW_200            52  9.9    3.365    3.715    9.322   13.442
 xc_pw_divergence                    50 10.9    0.003    0.003   11.781   13.194
 mp_waitany                       18344 12.4    9.239   13.085    9.239   13.085
 xc_rho_set_and_dset_create          50 10.9    0.248    0.312   12.037   12.786
 ps_implicit_compute_error_fft      100 10.9    0.630    0.794   10.941   11.706
 ps_implicit_compute_veps            50 10.9    0.289    0.355   10.966   11.151
 pw_scatter_p                      1651 15.4    9.296   11.002    9.296   11.002
 mp_alltoall_d11v                   707 10.2    6.787   10.342    6.787   10.342
 rs_gather_matrices                  50 10.9    0.060    0.075    5.213    8.695
 gspace_mixing                       48  6.0    0.092    0.112    8.432    8.432
 rs_pw_transfer_PW2RS_200            52 12.8    3.920    4.095    8.178    8.395
 pw_derive                         1200 13.1    7.611    8.030    7.611    8.030
 -------------------------------------------------------------------------------

 The number of warnings for this run is : 1
 
 -------------------------------------------------------------------------------
  **** **** ******  **  PROGRAM ENDED AT                 2023-12-01 21:17:34.322
 ***** ** ***  *** **   PROGRAM RAN ON                                     cu112
 **    ****   ******    PROGRAM RAN BY                                     jxzhu
 ***** **    ** ** **   PROGRAM PROCESS ID                                 40812
  **** **  *******  **  PROGRAM STOPPED IN /public/home/jxzhu/tmp_calc/6f8603e24
                                           05436f436695d04f688f9c38b04d6d6/calc/
                                           000000.000/search_hi.000000
