 DBCSR| CPU Multiplication driver                                           XSMM
 DBCSR| Multrec recursion limit                                              512
 DBCSR| Multiplication stack size                                           1000
 DBCSR| Maximum elements for images                                    UNLIMITED
 DBCSR| Multiplicative factor virtual images                                   1
 DBCSR| Use multiplication densification                                       T
 DBCSR| Multiplication size stacks                                             3
 DBCSR| Use memory pool for CPU allocation                                     F
 DBCSR| Number of 3D layers                                               SINGLE
 DBCSR| Use MPI memory allocation                                              F
 DBCSR| Use RMA algorithm                                                      F
 DBCSR| Use Communication thread                                               T
 DBCSR| Communication thread load                                             87
 DBCSR| MPI: My node id                                                        0
 DBCSR| MPI: Number of nodes                                                 128
 DBCSR| OMP: Current number of threads                                         1
 DBCSR| OMP: Max number of threads                                             1
 DBCSR| Split modifier for TAS multiplication algorithm                  1.0E+00


  **** **** ******  **  PROGRAM STARTED AT               2023-12-03 08:16:26.934
 ***** ** ***  *** **   PROGRAM STARTED ON                                 cu001
 **    ****   ******    PROGRAM STARTED BY                                 jxzhu
 ***** **    ** ** **   PROGRAM PROCESS ID                                  7152
  **** **  *******  **  PROGRAM STARTED IN /public/home/jxzhu/tmp_calc/b6f19961a
                                           01c666744b235d1688ee18ed06575ac/calc/
                                           003100.000/search_lo.000000

 CP2K| version string:                                       CP2K version 2022.1
 CP2K| source code revision number:                                  git:2caeb6f
 CP2K| cp2kflags: omp libint fftw3 libxc elpa parallel mpi3 scalapack cosma xsmm
 CP2K|             plumed2 spglib mkl sirius libvori libbqb
 CP2K| is freely available from                            https://www.cp2k.org/
 CP2K| Program compiled at                           Mon Jul 3 17:37:06 CST 2023
 CP2K| Program compiled on                                                 mu003
 CP2K| Program compiled for                                                local
 CP2K| Data directory path                             /public/home/jxzhu/basis/
 CP2K| Input file name                                                 input.inp
 
 GLOBAL| Force Environment number                                              1
 GLOBAL| Basis set file name                                        BASIS_MOLOPT
 GLOBAL| Potential file name                                      GTH_POTENTIALS
 GLOBAL| MM Potential file name                                     MM_POTENTIAL
 GLOBAL| Coordinate file name                                          coord.xyz
 GLOBAL| Method name                                                        CP2K
 GLOBAL| Project name                                                       cp2k
 GLOBAL| Run type                                                   ENERGY_FORCE
 GLOBAL| FFT library                                                       FFTW3
 GLOBAL| Diagonalization library                                            ELPA
 GLOBAL| Minimum number of eigenvectors for ELPA usage                        16
 GLOBAL| Orthonormality check for eigenvectors                          DISABLED
 GLOBAL| Matrix multiplication library                                     COSMA
 GLOBAL| All-to-all communication in single precision                          F
 GLOBAL| FFTs using library dependent lengths                                  T
 GLOBAL| Grid backend                                                       AUTO
 GLOBAL| Global print level                                               MEDIUM
 GLOBAL| MPI I/O enabled                                                       T
 GLOBAL| Total number of message passing processes                           128
 GLOBAL| Number of threads for this process                                    1
 GLOBAL| This output is from process                                           0
 GLOBAL| Stack size for threads created by OpenMP (OMP_STACKSIZE)        default
 GLOBAL| CPU model name                 Intel(R) Xeon(R) Gold 6338 CPU @ 2.00GHz
 GLOBAL| CPUID                                                              1003

 MEMORY| system memory details [Kb]
 MEMORY|                        rank 0           min           max       average
 MEMORY| MemTotal            263619172     263619172     263619172     263619172
 MEMORY| MemFree             218121656     215616940     218121656     216869471
 MEMORY| Buffers                    20            20            36            28
 MEMORY| Cached                1841256        710884       1841264       1276070
 MEMORY| Slab                  1456824       1431376       1456840       1444100
 MEMORY| SReclaimable           245208        230648        245208        237928
 MEMORY| MemLikelyFree       220208140     216558508     220208140     218383497


 *** Fundamental physical constants (SI units) ***

 *** Literature: B. J. Mohr and B. N. Taylor,
 ***             CODATA recommended values of the fundamental physical
 ***             constants: 2006, Web Version 5.1
 ***             http://physics.nist.gov/constants

 Speed of light in vacuum [m/s]                             2.99792458000000E+08
 Magnetic constant or permeability of vacuum [N/A**2]       1.25663706143592E-06
 Electric constant or permittivity of vacuum [F/m]          8.85418781762039E-12
 Planck constant (h) [J*s]                                  6.62606896000000E-34
 Planck constant (h-bar) [J*s]                              1.05457162825177E-34
 Elementary charge [C]                                      1.60217648700000E-19
 Electron mass [kg]                                         9.10938215000000E-31
 Electron g factor [ ]                                     -2.00231930436220E+00
 Proton mass [kg]                                           1.67262163700000E-27
 Fine-structure constant                                    7.29735253760000E-03
 Rydberg constant [1/m]                                     1.09737315685270E+07
 Avogadro constant [1/mol]                                  6.02214179000000E+23
 Boltzmann constant [J/K]                                   1.38065040000000E-23
 Atomic mass unit [kg]                                      1.66053878200000E-27
 Bohr radius [m]                                            5.29177208590000E-11

 *** Conversion factors ***

 [u] -> [a.u.]                                              1.82288848426455E+03
 [Angstrom] -> [Bohr] = [a.u.]                              1.88972613288564E+00
 [a.u.] = [Bohr] -> [Angstrom]                              5.29177208590000E-01
 [a.u.] -> [s]                                              2.41888432650478E-17
 [a.u.] -> [fs]                                             2.41888432650478E-02
 [a.u.] -> [J]                                              4.35974393937059E-18
 [a.u.] -> [N]                                              8.23872205491840E-08
 [a.u.] -> [K]                                              3.15774647902944E+05
 [a.u.] -> [kJ/mol]                                         2.62549961709828E+03
 [a.u.] -> [kcal/mol]                                       6.27509468713739E+02
 [a.u.] -> [Pa]                                             2.94210107994716E+13
 [a.u.] -> [bar]                                            2.94210107994716E+08
 [a.u.] -> [atm]                                            2.90362800883016E+08
 [a.u.] -> [eV]                                             2.72113838565563E+01
 [a.u.] -> [Hz]                                             6.57968392072181E+15
 [a.u.] -> [1/cm] (wave numbers)                            2.19474631370540E+05
 [a.u./Bohr**2] -> [1/cm]                                   5.14048714338585E+03
 

 CELL_TOP| Volume [angstrom^3]:                                     17614.982639
 CELL_TOP| Vector a [angstrom    16.869     0.000     0.000   |a| =    16.869000
 CELL_TOP| Vector b [angstrom    -8.434    14.609     0.000   |b| =    16.869015
 CELL_TOP| Vector c [angstrom     0.000     0.000    71.478   |c| =    71.478000
 CELL_TOP| Angle (b,c), alpha [degree]:                                90.000000
 CELL_TOP| Angle (a,c), beta  [degree]:                                90.000000
 CELL_TOP| Angle (a,b), gamma [degree]:                               119.999970
 CELL_TOP| Numerically orthorhombic:                                          NO
 
 GENERATE|  Preliminary Number of Bonds generated:                             0
 GENERATE|  Achieved consistency in connectivity generation.

 CELL| Volume [angstrom^3]:                                         17614.982639
 CELL| Vector a [angstrom]:      16.869     0.000     0.000   |a| =    16.869000
 CELL| Vector b [angstrom]:      -8.434    14.609     0.000   |b| =    16.869015
 CELL| Vector c [angstrom]:       0.000     0.000    71.478   |c| =    71.478000
 CELL| Angle (b,c), alpha [degree]:                                    90.000000
 CELL| Angle (a,c), beta  [degree]:                                    90.000000
 CELL| Angle (a,b), gamma [degree]:                                   119.999970
 CELL| Numerically orthorhombic:                                              NO

 CELL_REF| Volume [angstrom^3]:                                     17614.982639
 CELL_REF| Vector a [angstrom    16.869     0.000     0.000   |a| =    16.869000
 CELL_REF| Vector b [angstrom    -8.434    14.609     0.000   |b| =    16.869015
 CELL_REF| Vector c [angstrom     0.000     0.000    71.478   |c| =    71.478000
 CELL_REF| Angle (b,c), alpha [degree]:                                90.000000
 CELL_REF| Angle (a,c), beta  [degree]:                                90.000000
 CELL_REF| Angle (a,b), gamma [degree]:                               119.999970
 CELL_REF| Numerically orthorhombic:                                          NO

 *******************************************************************************
 *******************************************************************************
 **                                                                           **
 **     #####                         ##              ##                      **
 **    ##   ##            ##          ##              ##                      **
 **   ##     ##                       ##            ######                    **
 **   ##     ##  ##   ##  ##   #####  ##  ##   ####   ##    #####    #####    **
 **   ##     ##  ##   ##  ##  ##      ## ##   ##      ##   ##   ##  ##   ##   **
 **   ##  ## ##  ##   ##  ##  ##      ####     ###    ##   ######   ######    **
 **    ##  ###   ##   ##  ##  ##      ## ##      ##   ##   ##       ##        **
 **     #######   #####   ##   #####  ##  ##  ####    ##    #####   ##        **
 **           ##                                                    ##        **
 **                                                                           **
 **                                                ... make the atoms dance   **
 **                                                                           **
 **            Copyright (C) by CP2K developers group (2000-2022)             **
 **                      J. Chem. Phys. 152, 194103 (2020)                    **
 **                                                                           **
 *******************************************************************************

 DFT| Spin restricted Kohn-Sham (RKS) calculation                            RKS
 DFT| Multiplicity                                                             1
 DFT| Number of spin states                                                    1
 DFT| Charge                                                                   0
 DFT| Self-interaction correction (SIC)                                       NO
 DFT| Cutoffs: density                                              1.000000E-10
 DFT|          gradient                                             1.000000E-10
 DFT|          tau                                                  1.000000E-10
 DFT|          cutoff_smoothing_range                               0.000000E+00
 DFT| XC density smoothing                                                  NONE
 DFT| XC derivatives                                                          PW

 FUNCTIONAL| PBE:
 FUNCTIONAL| J.P.Perdew, K.Burke, M.Ernzerhof, Phys. Rev. Letter, vol. 77, n 18,
 FUNCTIONAL|  pp. 3865-3868, (1996){spin unpolarized}                           

 vdW POTENTIAL|                                                   Pair Potential
 vdW POTENTIAL|          DFT-D3 (Version 3.1)
 vdW POTENTIAL|          Potential Form: S. Grimme et al, JCP 132: 154104 (2010)
 vdW POTENTIAL|          Zero Damping
 vdW POTENTIAL|          Cutoff Radius [Bohr]:                             20.00
 vdW POTENTIAL|          s6 Scaling Factor:                               1.0000
 vdW POTENTIAL|          sr6 Scaling Factor:                              1.2170
 vdW POTENTIAL|          s8 Scaling Factor:                               0.7220
 vdW POTENTIAL|          Cutoff for CN calculation:                   0.1000E-05

 QS| Method:                                                                 GPW
 QS| Density plane wave grid type                        NON-SPHERICAL FULLSPACE
 QS| Number of grid levels:                                                    4
 QS| Density cutoff [a.u.]:                                                200.0
 QS| Multi grid cutoff [a.u.]: 1) grid level                               200.0
 QS|                           2) grid level                                66.7
 QS|                           3) grid level                                22.2
 QS|                           4) grid level                                 7.4
 QS| Grid level progression factor:                                          3.0
 QS| Relative density cutoff [a.u.]:                                        20.0
 QS| Interaction thresholds: eps_pgf_orb:                                3.2E-07
 QS|                         eps_filter_matrix:                          0.0E+00
 QS|                         eps_core_charge:                            1.0E-15
 QS|                         eps_rho_gspace:                             1.0E-13
 QS|                         eps_rho_rspace:                             1.0E-13
 QS|                         eps_gvg_rspace:                             3.2E-07
 QS|                         eps_ppl:                                    1.0E-02
 QS|                         eps_ppnl:                                   3.2E-09


 ATOMIC KIND INFORMATION

  1. Atomic kind: O                                     Number of atoms:      99

     Orbital Basis Set                                        DZVP-MOLOPT-SR-GTH

       Number of orbital shell sets:                                           1
       Number of orbital shells:                                               5
       Number of primitive Cartesian functions:                                5
       Number of Cartesian basis functions:                                   14
       Number of spherical basis functions:                                   13
       Norm type:                                                              2

       Normalised Cartesian orbitals:

                        Set   Shell   Orbital            Exponent    Coefficient

                          1       1    2s               10.389228       0.396646
                                                         3.849621       0.208811
                                                         1.388401      -0.301641
                                                         0.496955      -0.274061
                                                         0.162492      -0.033677

                          1       2    3s               10.389228       0.303673
                                                         3.849621       0.240943
                                                         1.388401      -0.313066
                                                         0.496955      -0.043055
                                                         0.162492       0.213991

                          1       3    3px              10.389228      -1.530415
                                                         3.849621      -1.371928
                                                         1.388401      -0.761951
                                                         0.496955      -0.253695
                                                         0.162492      -0.035541
                          1       3    3py              10.389228      -1.530415
                                                         3.849621      -1.371928
                                                         1.388401      -0.761951
                                                         0.496955      -0.253695
                                                         0.162492      -0.035541
                          1       3    3pz              10.389228      -1.530415
                                                         3.849621      -1.371928
                                                         1.388401      -0.761951
                                                         0.496955      -0.253695
                                                         0.162492      -0.035541

                          1       4    4px              10.389228      -0.565392
                                                         3.849621      -0.038231
                                                         1.388401      -0.382373
                                                         0.496955       0.179070
                                                         0.162492       0.122714
                          1       4    4py              10.389228      -0.565392
                                                         3.849621      -0.038231
                                                         1.388401      -0.382373
                                                         0.496955       0.179070
                                                         0.162492       0.122714
                          1       4    4pz              10.389228      -0.565392
                                                         3.849621      -0.038231
                                                         1.388401      -0.382373
                                                         0.496955       0.179070
                                                         0.162492       0.122714

                          1       5    4dx2             10.389228       1.867377
                                                         3.849621       0.670994
                                                         1.388401       1.353441
                                                         0.496955       0.273538
                                                         0.162492       0.006620
                          1       5    4dxy             10.389228       3.234392
                                                         3.849621       1.162195
                                                         1.388401       2.344229
                                                         0.496955       0.473781
                                                         0.162492       0.011466
                          1       5    4dxz             10.389228       3.234392
                                                         3.849621       1.162195
                                                         1.388401       2.344229
                                                         0.496955       0.473781
                                                         0.162492       0.011466
                          1       5    4dy2             10.389228       1.867377
                                                         3.849621       0.670994
                                                         1.388401       1.353441
                                                         0.496955       0.273538
                                                         0.162492       0.006620
                          1       5    4dyz             10.389228       3.234392
                                                         3.849621       1.162195
                                                         1.388401       2.344229
                                                         0.496955       0.473781
                                                         0.162492       0.011466
                          1       5    4dz2             10.389228       1.867377
                                                         3.849621       0.670994
                                                         1.388401       1.353441
                                                         0.496955       0.273538
                                                         0.162492       0.006620

       Atomic covalent radius [Angstrom]:                                  0.730

       Atomic van der Waals radius [Angstrom]:                             1.520

     GTH Potential information for                                    GTH-PBE-q6

       Description:                       Goedecker-Teter-Hutter pseudopotential
                                           Goedecker et al., PRB 54, 1703 (1996)
                                          Hartwigsen et al., PRB 58, 3641 (1998)
                                                      Krack, TCA 114, 145 (2005)

       Gaussian exponent of the core charge distribution:               8.360253
       Electronic configuration (s p d ...):                               2   4

       Parameters of the local part of the GTH pseudopotential:

                          rloc        C1          C2          C3          C4
                        0.244554  -16.667215    2.487311

       Parameters of the non-local part of the GTH pseudopotential:

                   l      r(l)      h(i,j,l)

                   0    0.220956   18.337458
                   1    0.211332

  2. Atomic kind: H                                     Number of atoms:     198

     Orbital Basis Set                                        DZVP-MOLOPT-SR-GTH

       Number of orbital shell sets:                                           1
       Number of orbital shells:                                               3
       Number of primitive Cartesian functions:                                5
       Number of Cartesian basis functions:                                    5
       Number of spherical basis functions:                                    5
       Norm type:                                                              2

       Normalised Cartesian orbitals:

                        Set   Shell   Orbital            Exponent    Coefficient

                          1       1    2s               10.068468      -0.133023
                                                         2.680223      -0.177618
                                                         0.791502      -0.258419
                                                         0.239116      -0.107525
                                                         0.082193      -0.014019

                          1       2    3s               10.068468       0.344673
                                                         2.680223       1.819821
                                                         0.791502      -0.999069
                                                         0.239116       0.017430
                                                         0.082193       0.082660

                          1       3    3px              10.068468       0.155326
                                                         2.680223       0.367157
                                                         0.791502       0.311480
                                                         0.239116       0.080105
                                                         0.082193       0.033440
                          1       3    3py              10.068468       0.155326
                                                         2.680223       0.367157
                                                         0.791502       0.311480
                                                         0.239116       0.080105
                                                         0.082193       0.033440
                          1       3    3pz              10.068468       0.155326
                                                         2.680223       0.367157
                                                         0.791502       0.311480
                                                         0.239116       0.080105
                                                         0.082193       0.033440

       Atomic covalent radius [Angstrom]:                                  0.320

       Atomic van der Waals radius [Angstrom]:                             1.090

     GTH Potential information for                                    GTH-PBE-q1

       Description:                       Goedecker-Teter-Hutter pseudopotential
                                           Goedecker et al., PRB 54, 1703 (1996)
                                          Hartwigsen et al., PRB 58, 3641 (1998)
                                                      Krack, TCA 114, 145 (2005)

       Gaussian exponent of the core charge distribution:              12.500000
       Electronic configuration (s p d ...):                                   1

       Parameters of the local part of the GTH pseudopotential:

                          rloc        C1          C2          C3          C4
                        0.200000   -4.178900    0.724463

  3. Atomic kind: Pt                                    Number of atoms:     216

     Orbital Basis Set                      DZVP-A5-Q10-323-MOL-T1-DERIVED_SET-1

       Number of orbital shell sets:                                           1
       Number of orbital shells:                                               6
       Number of primitive Cartesian functions:                                5
       Number of Cartesian basis functions:                                   23
       Number of spherical basis functions:                                   20
       Norm type:                                                              2

       Normalised Cartesian orbitals:

                        Set   Shell   Orbital            Exponent    Coefficient

                          1       1    2s                2.521825       0.177473
                                                         1.453920      -0.063399
                                                         0.614053      -0.407089
                                                         0.232656       0.262254
                                                         0.074788       0.047371

                          1       2    3s                2.521825      -0.049056
                                                         1.453920       0.044904
                                                         0.614053      -0.009756
                                                         0.232656      -0.144709
                                                         0.074788       0.144085

                          1       3    3px               2.521825      -0.317572
                                                         1.453920       0.534826
                                                         0.614053      -0.489458
                                                         0.232656       0.245631
                                                         0.074788       0.018221
                          1       3    3py               2.521825      -0.317572
                                                         1.453920       0.534826
                                                         0.614053      -0.489458
                                                         0.232656       0.245631
                                                         0.074788       0.018221
                          1       3    3pz               2.521825      -0.317572
                                                         1.453920       0.534826
                                                         0.614053      -0.489458
                                                         0.232656       0.245631
                                                         0.074788       0.018221

                          1       4    4dx2              2.521825       3.008522
                                                         1.453920      -1.224251
                                                         0.614053       0.225691
                                                         0.232656       0.125144
                                                         0.074788      -0.015348
                          1       4    4dxy              2.521825       5.210912
                                                         1.453920      -2.120465
                                                         0.614053       0.390909
                                                         0.232656       0.216756
                                                         0.074788      -0.026584
                          1       4    4dxz              2.521825       5.210912
                                                         1.453920      -2.120465
                                                         0.614053       0.390909
                                                         0.232656       0.216756
                                                         0.074788      -0.026584
                          1       4    4dy2              2.521825       3.008522
                                                         1.453920      -1.224251
                                                         0.614053       0.225691
                                                         0.232656       0.125144
                                                         0.074788      -0.015348
                          1       4    4dyz              2.521825       5.210912
                                                         1.453920      -2.120465
                                                         0.614053       0.390909
                                                         0.232656       0.216756
                                                         0.074788      -0.026584
                          1       4    4dz2              2.521825       3.008522
                                                         1.453920      -1.224251
                                                         0.614053       0.225691
                                                         0.232656       0.125144
                                                         0.074788      -0.015348

                          1       5    5dx2              2.521825       0.698026
                                                         1.453920      -1.511486
                                                         0.614053      -0.335394
                                                         0.232656      -0.025564
                                                         0.074788      -0.002699
                          1       5    5dxy              2.521825       1.209017
                                                         1.453920      -2.617970
                                                         0.614053      -0.580920
                                                         0.232656      -0.044277
                                                         0.074788      -0.004674
                          1       5    5dxz              2.521825       1.209017
                                                         1.453920      -2.617970
                                                         0.614053      -0.580920
                                                         0.232656      -0.044277
                                                         0.074788      -0.004674
                          1       5    5dy2              2.521825       0.698026
                                                         1.453920      -1.511486
                                                         0.614053      -0.335394
                                                         0.232656      -0.025564
                                                         0.074788      -0.002699
                          1       5    5dyz              2.521825       1.209017
                                                         1.453920      -2.617970
                                                         0.614053      -0.580920
                                                         0.232656      -0.044277
                                                         0.074788      -0.004674
                          1       5    5dz2              2.521825       0.698026
                                                         1.453920      -1.511486
                                                         0.614053      -0.335394
                                                         0.232656      -0.025564
                                                         0.074788      -0.002699

                          1       6    6dx2              2.521825       0.831079
                                                         1.453920      -0.709226
                                                         0.614053      -0.137351
                                                         0.232656       0.068642
                                                         0.074788       0.011745
                          1       6    6dxy              2.521825       1.439472
                                                         1.453920      -1.228415
                                                         0.614053      -0.237899
                                                         0.232656       0.118891
                                                         0.074788       0.020343
                          1       6    6dxz              2.521825       1.439472
                                                         1.453920      -1.228415
                                                         0.614053      -0.237899
                                                         0.232656       0.118891
                                                         0.074788       0.020343
                          1       6    6dy2              2.521825       0.831079
                                                         1.453920      -0.709226
                                                         0.614053      -0.137351
                                                         0.232656       0.068642
                                                         0.074788       0.011745
                          1       6    6dyz              2.521825       1.439472
                                                         1.453920      -1.228415
                                                         0.614053      -0.237899
                                                         0.232656       0.118891
                                                         0.074788       0.020343
                          1       6    6dz2              2.521825       0.831079
                                                         1.453920      -0.709226
                                                         0.614053      -0.137351
                                                         0.232656       0.068642
                                                         0.074788       0.011745

       Atomic covalent radius [Angstrom]:                                  1.300

       Atomic van der Waals radius [Angstrom]:                             1.750

     GTH Potential information for                                   GTH-PBE-q10

       Description:                       Goedecker-Teter-Hutter pseudopotential
                                           Goedecker et al., PRB 54, 1703 (1996)
                                          Hartwigsen et al., PRB 58, 3641 (1998)
                                                      Krack, TCA 114, 145 (2005)

       Gaussian exponent of the core charge distribution:               1.317676
       Electronic configuration (s p d ...):                           1   0   9

       Parameters of the local part of the GTH pseudopotential:

                          rloc        C1          C2          C3          C4
                        0.616000   11.313635

       Parameters of the non-local part of the GTH pseudopotential:

                   l      r(l)      h(i,j,l)

                   0    0.550904    4.733491   -1.784594
                                   -1.784594    2.303901
                   1    0.674138    2.534798   -1.778066
                                   -1.778066    2.103836
                   2    0.457392   -7.264011    2.558665
                                    2.558665   -2.901253


 MOLECULE KIND INFORMATION


 All atoms are their own molecule, skipping detailed information


 TOTAL NUMBERS AND MAXIMUM NUMBERS

  Total number of            - Atomic kinds:                                   3
                             - Atoms:                                        513
                             - Shell sets:                                   513
                             - Shells:                                      2385
                             - Primitive Cartesian functions:               2565
                             - Cartesian basis functions:                   7344
                             - Spherical basis functions:                   6597

  Maximum angular momentum of- Orbital basis functions:                        2
                             - Local part of the GTH pseudopotential:          2
                             - Non-local part of the GTH pseudopotential:      4


 MODULE QUICKSTEP:  ATOMIC COORDINATES IN angstrom

 Atom  Kind  Element       X           Y           Z          Z(eff)       Mass
    1   1 O    8      19.370001    7.370000   37.988000       6.0000     15.9994
    2   2 H    1      18.890001    7.860000   38.687999       1.0000      1.0079
    3   2 H    1      18.680000    7.370000   37.248000       1.0000      1.0079
    4   1 O    8      -9.500000  -29.070000   29.877999       6.0000     15.9994
    5   2 H    1     -10.070001  -28.450001   29.377999       1.0000      1.0079
    6   2 H    1      -9.990001  -29.430000   30.708000       1.0000      1.0079
    7   1 O    8      21.370001   21.510000   32.087999       6.0000     15.9994
    8   2 H    1      21.180000   20.550001   32.347999       1.0000      1.0079
    9   2 H    1      29.260002    7.420001   32.708000       1.0000      1.0079
   10   1 O    8      26.480003   17.420002   38.107999       6.0000     15.9994
   11   2 H    1      27.170002   17.530001   38.878000       1.0000      1.0079
   12   2 H    1      26.020002   16.570000   38.187999       1.0000      1.0079
   13   1 O    8       6.810000  -60.920006   35.747999       6.0000     15.9994
   14   2 H    1       6.270000  -60.830002   36.577999       1.0000      1.0079
   15   2 H    1       6.460000  -60.150002   35.218000       1.0000      1.0079
   16   1 O    8      25.820000   -0.080000   32.767999       6.0000     15.9994
   17   2 H    1      25.070002   -0.660000   32.688000       1.0000      1.0079
   18   2 H    1      25.490000    0.810000   32.937999       1.0000      1.0079
   19   1 O    8      29.060001  -25.670002   29.937999       6.0000     15.9994
   20   2 H    1      28.320000  -25.040001   30.157999       1.0000      1.0079
   21   2 H    1      45.890003  -25.810001   28.907999       1.0000      1.0079
   22   1 O    8      21.760002  -30.340002   38.257999       6.0000     15.9994
   23   2 H    1      21.100002  -30.430002   37.548000       1.0000      1.0079
   24   2 H    1      22.369999  -29.640003   37.988000       1.0000      1.0079
   25   1 O    8       8.890000   -7.490000   36.167999       6.0000     15.9994
   26   2 H    1      -8.810000   -7.060000   35.848000       1.0000      1.0079
   27   2 H    1       8.560000   -8.290001   36.657999       1.0000      1.0079
   28   1 O    8      -2.010000  -12.740001   34.947999       6.0000     15.9994
   29   2 H    1      -1.460000  -12.550001   35.767999       1.0000      1.0079
   30   2 H    1      -1.520000  -12.380000   34.147999       1.0000      1.0079
   31   1 O    8      15.880001   52.220001   30.067999       6.0000     15.9994
   32   2 H    1      15.600000   51.310001   30.497999       1.0000      1.0079
   33   2 H    1      15.860001   52.040005   29.047999       1.0000      1.0079
   34   1 O    8      39.720001   19.650002   30.097999       6.0000     15.9994
   35   2 H    1      39.780003   19.730000   31.077999       1.0000      1.0079
   36   2 H    1      21.940001   19.200001   30.057999       1.0000      1.0079
   37   1 O    8     -11.180000   14.050001   29.157999       6.0000     15.9994
   38   2 H    1     -11.830001   14.700001   29.677999       1.0000      1.0079
   39   2 H    1     -10.280000   14.140000   29.547999       1.0000      1.0079
   40   1 O    8      43.390003    4.290000   33.558000       6.0000     15.9994
   41   2 H    1      43.640003    3.760000   34.307999       1.0000      1.0079
   42   2 H    1      44.220005    4.260000   32.968000       1.0000      1.0079
   43   1 O    8     -34.110001    4.890000   37.228000       6.0000     15.9994
   44   2 H    1     -34.810001    4.500000   36.668000       1.0000      1.0079
   45   2 H    1     -33.410000    4.160000   37.398000       1.0000      1.0079
   46   1 O    8      26.540001   25.570002   30.277999       6.0000     15.9994
   47   2 H    1      25.610001   25.480001   30.357999       1.0000      1.0079
   48   2 H    1      26.830002   26.480003   30.397999       1.0000      1.0079
   49   1 O    8       4.640000    9.190001   37.757999       6.0000     15.9994
   50   2 H    1       4.160000    9.900001   37.228000       1.0000      1.0079
   51   2 H    1       3.900000    8.530001   37.857999       1.0000      1.0079
   52   1 O    8     -15.080000   14.110001   35.388000       6.0000     15.9994
   53   2 H    1     -23.830002   28.610001   34.478000       1.0000      1.0079
   54   2 H    1     -14.880000   15.060000   35.338000       1.0000      1.0079
   55   1 O    8      -3.920000   -4.440001   33.678000       6.0000     15.9994
   56   2 H    1      -4.260000   -5.350000   33.507999       1.0000      1.0079
   57   2 H    1     -11.400002    9.980000   33.798000       1.0000      1.0079
   58   1 O    8      -9.600000   20.650002   39.587999       6.0000     15.9994
   59   2 H    1     -10.430001   20.850000   39.917999       1.0000      1.0079
   60   2 H    1      -9.700001   19.950001   38.847999       1.0000      1.0079
   61   1 O    8       4.010000   18.820002   33.057999       6.0000     15.9994
   62   2 H    1       4.550000   17.980001   33.018000       1.0000      1.0079
   63   2 H    1       4.050000   19.040001   34.018000       1.0000      1.0079
   64   1 O    8      12.920000    3.870000   35.837999       6.0000     15.9994
   65   2 H    1      12.440001    4.430000   36.497999       1.0000      1.0079
   66   2 H    1      13.480000    3.330000   36.468000       1.0000      1.0079
   67   1 O    8     -28.640001   -6.600000   29.737999       6.0000     15.9994
   68   2 H    1     -28.470001   -7.370000   29.177999       1.0000      1.0079
   69   2 H    1     -28.930000   -7.090001   30.527999       1.0000      1.0079
   70   1 O    8      27.130001   -9.820001   32.797999       6.0000     15.9994
   71   2 H    1      26.110001   -9.870001   32.567999       1.0000      1.0079
   72   2 H    1      27.240002   -8.890000   32.958000       1.0000      1.0079
   73   1 O    8      -3.990000   -8.770000   30.347999       6.0000     15.9994
   74   2 H    1      -4.250000   -8.350000   29.507999       1.0000      1.0079
   75   2 H    1      -4.530000   -9.570000   30.297999       1.0000      1.0079
   76   1 O    8      55.070004   -2.350000   29.967999       6.0000     15.9994
   77   2 H    1      54.490005   -1.560000   29.807999       1.0000      1.0079
   78   2 H    1      54.520000   -3.130000   29.697999       1.0000      1.0079
   79   1 O    8      23.520000   -1.110000   32.117999       6.0000     15.9994
   80   2 H    1      22.970001   -0.900000   32.878000       1.0000      1.0079
   81   2 H    1      23.390003   -2.060000   31.947999       1.0000      1.0079
   82   1 O    8      21.720001  -33.709999   34.088000       6.0000     15.9994
   83   2 H    1      21.860001  -32.920002   34.607999       1.0000      1.0079
   84   2 H    1      22.260000  -33.520004   33.278000       1.0000      1.0079
   85   1 O    8      38.810001   21.940001   37.728000       6.0000     15.9994
   86   2 H    1      38.090004   21.330002   37.507999       1.0000      1.0079
   87   2 H    1      38.690002   22.290001   38.658000       1.0000      1.0079
   88   1 O    8      24.930000  -16.540001   34.468000       6.0000     15.9994
   89   2 H    1      24.400002  -16.430000   35.238000       1.0000      1.0079
   90   2 H    1      24.570000  -17.390001   34.008000       1.0000      1.0079
   91   1 O    8     -22.330000   43.600002   29.877999       6.0000     15.9994
   92   2 H    1     -22.350002   44.090004   30.757999       1.0000      1.0079
   93   2 H    1     -22.160000   44.150005   29.058000       1.0000      1.0079
   94   1 O    8      25.550001   25.480001   33.798000       6.0000     15.9994
   95   2 H    1      25.710001   24.530001   34.018000       1.0000      1.0079
   96   2 H    1      25.020000   25.830002   34.567999       1.0000      1.0079
   97   1 O    8      27.490002    5.960000   29.967999       6.0000     15.9994
   98   2 H    1      27.930002    6.170001   29.117999       1.0000      1.0079
   99   2 H    1      26.660002    5.520000   29.677999       1.0000      1.0079
  100   1 O    8      25.190001   14.910001   32.997999       6.0000     15.9994
  101   2 H    1      16.810001   28.710001   33.647999       1.0000      1.0079
  102   2 H    1      24.640003   15.550001   33.527999       1.0000      1.0079
  103   1 O    8     -24.610003    2.250000   30.077999       6.0000     15.9994
  104   2 H    1     -24.040001    1.930000   29.357999       1.0000      1.0079
  105   2 H    1     -25.220001    1.460000   30.247999       1.0000      1.0079
  106   1 O    8     -51.530003   33.460003   32.797999       6.0000     15.9994
  107   2 H    1     -51.730003   34.280003   33.257999       1.0000      1.0079
  108   2 H    1     -52.330002   32.910000   32.638000       1.0000      1.0079
  109   1 O    8      20.070002   53.670002   28.957999       6.0000     15.9994
  110   2 H    1      19.360001   53.230003   29.498000       1.0000      1.0079
  111   2 H    1      37.670002   52.950001   29.067999       1.0000      1.0079
  112   1 O    8      15.970001   22.060001   37.527999       6.0000     15.9994
  113   2 H    1       7.070000   36.980003   36.718000       1.0000      1.0079
  114   2 H    1      16.970001   21.970001   37.237998       1.0000      1.0079
  115   1 O    8       8.380001    4.760000   29.137999       6.0000     15.9994
  116   2 H    1       7.780001    5.220000   29.777999       1.0000      1.0079
  117   2 H    1       8.520000    3.830000   29.367999       1.0000      1.0079
  118   1 O    8      25.070002  -14.910001   30.287999       6.0000     15.9994
  119   2 H    1      24.960001  -14.740001   31.298000       1.0000      1.0079
  120   2 H    1      25.530003  -14.070001   29.977999       1.0000      1.0079
  121   1 O    8      22.240002  -14.540001   33.817999       6.0000     15.9994
  122   2 H    1      21.950001  -15.250001   33.307999       1.0000      1.0079
  123   2 H    1      22.110003  -14.670001   34.767999       1.0000      1.0079
  124   1 O    8     -17.060001   24.630001   38.347999       6.0000     15.9994
  125   2 H    1     -17.790001   24.240000   37.857999       1.0000      1.0079
  126   2 H    1     -16.340000   24.510002   37.668001       1.0000      1.0079
  127   1 O    8       7.830000   17.150000   34.837999       6.0000     15.9994
  128   2 H    1       8.800000   17.020000   35.048000       1.0000      1.0079
  129   2 H    1       7.790000   17.740000   34.058000       1.0000      1.0079
  130   1 O    8      34.250000    0.120000   37.798000       6.0000     15.9994
  131   2 H    1      34.850002    0.260000   36.987999       1.0000      1.0079
  132   2 H    1      42.200005   13.880000   37.798000       1.0000      1.0079
  133   1 O    8      -2.240000   -3.930000   30.327999       6.0000     15.9994
  134   2 H    1      -2.020000   -4.870000   30.077999       1.0000      1.0079
  135   2 H    1      -1.700000   -3.480000   29.637999       1.0000      1.0079
  136   1 O    8       9.480001   11.900001   30.137999       6.0000     15.9994
  137   2 H    1      -7.770000   12.790001   30.177999       1.0000      1.0079
  138   2 H    1       9.740001   11.810001   29.168000       1.0000      1.0079
  139   1 O    8     -17.030001    4.590000   29.037999       6.0000     15.9994
  140   2 H    1     -16.610001    5.340000   29.607999       1.0000      1.0079
  141   2 H    1     -17.970001    4.520000   29.257999       1.0000      1.0079
  142   1 O    8      20.210001   11.910001   39.828000       6.0000     15.9994
  143   2 H    1      19.270000   11.800001   39.468000       1.0000      1.0079
  144   2 H    1      20.490000   10.980000   40.077998       1.0000      1.0079
  145   1 O    8     -17.630001   17.000000   32.777999       6.0000     15.9994
  146   2 H    1     -17.020000   17.740000   32.808000       1.0000      1.0079
  147   2 H    1     -18.100000   17.210001   31.927999       1.0000      1.0079
  148   1 O    8     -18.630001   10.790000   32.057999       6.0000     15.9994
  149   2 H    1     -18.390001   10.630001   31.117999       1.0000      1.0079
  150   2 H    1     -17.740000   10.740000   32.597999       1.0000      1.0079
  151   1 O    8      -1.300000   -3.910000   33.007999       6.0000     15.9994
  152   2 H    1      -1.530000   -3.860000   32.027999       1.0000      1.0079
  153   2 H    1      -0.610000   -4.630000   33.037999       1.0000      1.0079
  154   1 O    8      45.250000  -23.970001   37.607999       6.0000     15.9994
  155   2 H    1      44.599998  -23.270000   37.478000       1.0000      1.0079
  156   2 H    1      44.830002  -24.700001   38.178001       1.0000      1.0079
  157   1 O    8      28.260002   15.070001   32.567999       6.0000     15.9994
  158   2 H    1      28.430002   15.920001   32.947999       1.0000      1.0079
  159   2 H    1      27.380001   14.820002   32.847999       1.0000      1.0079
  160   1 O    8      22.850000    8.170000   35.518000       6.0000     15.9994
  161   2 H    1      22.430000    7.430000   35.017999       1.0000      1.0079
  162   2 H    1      22.120001    8.540000   36.108000       1.0000      1.0079
  163   1 O    8      15.470000    7.190001   33.497999       6.0000     15.9994
  164   2 H    1      14.570000    7.070000   33.027999       1.0000      1.0079
  165   2 H    1      15.160000    7.380000   34.478000       1.0000      1.0079
  166   1 O    8      28.220001    7.940001   34.117999       6.0000     15.9994
  167   2 H    1      28.720001    8.820001   34.248000       1.0000      1.0079
  168   2 H    1      27.250002    8.240001   33.917999       1.0000      1.0079
  169   1 O    8     -30.170002    7.850000   32.688000       6.0000     15.9994
  170   2 H    1     -31.130001    7.910000   32.947999       1.0000      1.0079
  171   2 H    1     -30.200003    8.020000   31.718000       1.0000      1.0079
  172   1 O    8       3.940000   11.640000   29.257999       6.0000     15.9994
  173   2 H    1       4.270000   12.490001   29.708000       1.0000      1.0079
  174   2 H    1       4.630000   10.890001   29.647999       1.0000      1.0079
  175   1 O    8     -18.320002   20.570002   30.827999       6.0000     15.9994
  176   2 H    1     -19.310001   20.470001   30.657999       1.0000      1.0079
  177   2 H    1     -18.040001   20.580002   31.797999       1.0000      1.0079
  178   1 O    8       0.810000  -22.640001   30.407999       6.0000     15.9994
  179   2 H    1       0.100000  -21.920002   30.397999       1.0000      1.0079
  180   2 H    1       1.560000  -22.040001   30.418000       1.0000      1.0079
  181   1 O    8       7.440000   12.520000   37.647998       6.0000     15.9994
  182   2 H    1       6.710000   12.700001   38.228000       1.0000      1.0079
  183   2 H    1       7.790000   11.650001   37.947999       1.0000      1.0079
  184   1 O    8       2.480000   28.700001   39.767999       6.0000     15.9994
  185   2 H    1       1.960000   29.110003   38.998000       1.0000      1.0079
  186   2 H    1       3.410000   28.580000   39.337999       1.0000      1.0079
  187   1 O    8      20.260000   40.020004   35.857999       6.0000     15.9994
  188   2 H    1      27.720001   25.410002   35.837999       1.0000      1.0079
  189   2 H    1      20.620001   39.880001   34.887999       1.0000      1.0079
  190   1 O    8      19.550001   -3.050000   32.257999       6.0000     15.9994
  191   2 H    1      18.870001   -3.200000   31.567998       1.0000      1.0079
  192   2 H    1      20.320000   -2.780000   31.647999       1.0000      1.0079
  193   1 O    8      24.540003   23.580000   30.117999       6.0000     15.9994
  194   2 H    1      24.799999   23.670002   29.177999       1.0000      1.0079
  195   2 H    1      23.660002   23.180000   30.267999       1.0000      1.0079
  196   1 O    8      34.680000    1.920000   29.827999       6.0000     15.9994
  197   2 H    1      34.040001    2.640000   29.567999       1.0000      1.0079
  198   2 H    1      34.940002    1.560000   28.967999       1.0000      1.0079
  199   1 O    8       8.980000  -20.540001   33.157999       6.0000     15.9994
  200   2 H    1       8.670000  -21.510000   33.307999       1.0000      1.0079
  201   2 H    1       9.370001  -20.600002   32.228000       1.0000      1.0079
  202   1 O    8      14.490002   17.450001   30.507999       6.0000     15.9994
  203   2 H    1      13.490001   17.490002   30.617999       1.0000      1.0079
  204   2 H    1      14.620000   17.840000   29.617999       1.0000      1.0079
  205   1 O    8      -9.870001    4.830000   38.347999       6.0000     15.9994
  206   2 H    1      -9.940001    5.700001   37.937999       1.0000      1.0079
  207   2 H    1      -9.310000    4.980001   39.177999       1.0000      1.0079
  208   1 O    8       9.120001   -1.740000   38.408000       6.0000     15.9994
  209   2 H    1       9.520000   -2.010000   37.607999       1.0000      1.0079
  210   2 H    1      25.560001   -2.540000   38.718000       1.0000      1.0079
  211   1 O    8      -8.030001  -33.170002   36.888000       6.0000     15.9994
  212   2 H    1      -8.650001  -32.520000   36.537999       1.0000      1.0079
  213   2 H    1      -8.600000  -33.970001   37.017999       1.0000      1.0079
  214   1 O    8      22.460001   -0.570000   34.517999       6.0000     15.9994
  215   2 H    1      22.660000    0.450000   34.628000       1.0000      1.0079
  216   2 H    1      21.470001   -0.520000   34.517999       1.0000      1.0079
  217   1 O    8      21.260002    4.060000   37.787999       6.0000     15.9994
  218   2 H    1      20.840000    3.540000   38.468000       1.0000      1.0079
  219   2 H    1      22.210003    4.150000   38.037999       1.0000      1.0079
  220   1 O    8      18.760000   47.020000   39.088001       6.0000     15.9994
  221   2 H    1      18.090002   46.330002   38.818000       1.0000      1.0079
  222   2 H    1      19.520000   46.610001   39.728000       1.0000      1.0079
  223   1 O    8      27.299999   31.610003   35.498000       6.0000     15.9994
  224   2 H    1      28.110001   32.080002   35.747999       1.0000      1.0079
  225   2 H    1      26.780003   31.530001   36.327999       1.0000      1.0079
  226   1 O    8      -3.150000   20.680000   33.997999       6.0000     15.9994
  227   2 H    1      -3.740000   21.220001   33.447999       1.0000      1.0079
  228   2 H    1      -3.580000   19.790001   34.287999       1.0000      1.0079
  229   1 O    8     -22.150002   14.150001   35.568000       6.0000     15.9994
  230   2 H    1     -22.660000   13.410001   35.318000       1.0000      1.0079
  231   2 H    1     -22.790001   14.920001   35.557999       1.0000      1.0079
  232   1 O    8      27.320002  -12.380000   35.648000       6.0000     15.9994
  233   2 H    1      27.170002  -12.000000   36.597999       1.0000      1.0079
  234   2 H    1      28.010002  -11.790000   35.138000       1.0000      1.0079
  235   1 O    8      20.750000   12.680000   32.237999       6.0000     15.9994
  236   2 H    1      20.910000   11.770000   32.478000       1.0000      1.0079
  237   2 H    1      19.970001   12.970000   32.747999       1.0000      1.0079
  238   1 O    8       6.860001   -2.340000   29.077999       6.0000     15.9994
  239   2 H    1       5.930000   -2.300000   29.248000       1.0000      1.0079
  240   2 H    1       7.320001   -1.360000   29.107999       1.0000      1.0079
  241   1 O    8       2.550000    8.610001   30.077999       6.0000     15.9994
  242   2 H    1       2.750000    8.480000   29.157999       1.0000      1.0079
  243   2 H    1       2.250000    9.610001   30.117999       1.0000      1.0079
  244   1 O    8     -27.900002   16.770000   32.287999       6.0000     15.9994
  245   2 H    1     -28.430002   16.460001   31.567998       1.0000      1.0079
  246   2 H    1     -27.880001   15.970001   32.878000       1.0000      1.0079
  247   1 O    8       0.980000    8.220000   33.687999       6.0000     15.9994
  248   2 H    1       0.190000    7.870001   33.117999       1.0000      1.0079
  249   2 H    1       1.020000    7.630000   34.528000       1.0000      1.0079
  250   1 O    8      -1.050000   44.050003   38.617999       6.0000     15.9994
  251   2 H    1      -0.240000   43.470001   38.558000       1.0000      1.0079
  252   2 H    1      -1.050000   44.410000   39.527999       1.0000      1.0079
  253   1 O    8      27.520000   11.750001   34.747999       6.0000     15.9994
  254   2 H    1      27.680000   11.500001   33.747999       1.0000      1.0079
  255   2 H    1      26.540001   11.950001   34.808000       1.0000      1.0079
  256   1 O    8      46.450005   -1.330000   36.117999       6.0000     15.9994
  257   2 H    1      45.580002   -0.840000   35.857999       1.0000      1.0079
  258   2 H    1      46.170002   -2.300000   36.027999       1.0000      1.0079
  259   1 O    8      -6.780000    8.640000   30.617999       6.0000     15.9994
  260   2 H    1      -6.540000    7.660000   30.497999       1.0000      1.0079
  261   2 H    1      -7.730001    8.650001   30.467999       1.0000      1.0079
  262   1 O    8     -22.100000   17.990002   30.467999       6.0000     15.9994
  263   2 H    1     -22.450001   18.380001   31.347999       1.0000      1.0079
  264   2 H    1     -22.870003   17.440001   30.107999       1.0000      1.0079
  265   1 O    8      14.790001  -20.670002   35.807999       6.0000     15.9994
  266   2 H    1      14.260001  -21.070002   36.558000       1.0000      1.0079
  267   2 H    1      14.370001  -19.990002   35.197999       1.0000      1.0079
  268   1 O    8      27.740002   10.040001   37.507999       6.0000     15.9994
  269   2 H    1      28.290003   10.570001   38.178001       1.0000      1.0079
  270   2 H    1      28.140001   10.370001   36.648000       1.0000      1.0079
  271   1 O    8      -0.650000   17.100000   37.197999       6.0000     15.9994
  272   2 H    1      -0.810000   17.920000   37.777999       1.0000      1.0079
  273   2 H    1      -0.910000   16.370001   37.697999       1.0000      1.0079
  274   1 O    8      21.270000    3.560000   34.988000       6.0000     15.9994
  275   2 H    1      22.020000    2.880000   34.978000       1.0000      1.0079
  276   2 H    1      21.200001    3.770000   35.947999       1.0000      1.0079
  277   1 O    8      -6.810000   28.470001   30.227999       6.0000     15.9994
  278   2 H    1       9.480001   28.570002   29.458000       1.0000      1.0079
  279   2 H    1       9.610001   28.810001   31.087999       1.0000      1.0079
  280   1 O    8       4.100000   14.990001   38.157998       6.0000     15.9994
  281   2 H    1       3.250000   14.870001   38.578000       1.0000      1.0079
  282   2 H    1       4.220000   14.240000   37.568000       1.0000      1.0079
  283   1 O    8      48.160004    2.180000   37.617999       6.0000     15.9994
  284   2 H    1      48.480000    1.700000   36.848000       1.0000      1.0079
  285   2 H    1      47.500000    1.510000   37.918001       1.0000      1.0079
  286   1 O    8      18.910000   22.040001   36.617999       6.0000     15.9994
  287   2 H    1      19.020000   22.920000   36.987999       1.0000      1.0079
  288   2 H    1      19.370001   22.190001   35.737999       1.0000      1.0079
  289   1 O    8     -17.340000  -37.700001   33.267999       6.0000     15.9994
  290   2 H    1     -18.180000  -37.780003   33.808000       1.0000      1.0079
  291   2 H    1     -16.750000  -38.510002   33.507999       1.0000      1.0079
  292   1 O    8      -4.550000   30.020000   30.237999       6.0000     15.9994
  293   2 H    1      -5.320000   29.390001   30.327999       1.0000      1.0079
  294   2 H    1      -4.740000   30.840000   29.708000       1.0000      1.0079
  295   1 O    8     -16.460001  -20.760002   39.738000       6.0000     15.9994
  296   2 H    1     -17.040001  -20.010002   39.508001       1.0000      1.0079
  297   2 H    1      -0.290000  -21.470001   39.608001       1.0000      1.0079
  298   3 Pt  78       1.660000    0.660000   15.369999      10.0000    195.0840
  299   3 Pt  78       4.540000    0.590000   15.239998      10.0000    195.0840
  300   3 Pt  78       7.320001    0.560000   15.180000      10.0000    195.0840
  301   3 Pt  78      10.050000    0.810000   15.150002      10.0000    195.0840
  302   3 Pt  78      12.920000    0.770000   15.350002      10.0000    195.0840
  303   3 Pt  78      15.640001    0.640000   15.350002      10.0000    195.0840
  304   3 Pt  78       3.150000    3.120000   15.120003      10.0000    195.0840
  305   3 Pt  78       5.810000    2.960000   15.220001      10.0000    195.0840
  306   3 Pt  78       8.620001    3.080000   15.299999      10.0000    195.0840
  307   3 Pt  78      11.560000    3.180000   15.200001      10.0000    195.0840
  308   3 Pt  78      14.330001    3.120000   15.190002      10.0000    195.0840
  309   3 Pt  78       0.270000    3.100000   15.180000      10.0000    195.0840
  310   3 Pt  78       4.540000    5.600000   15.090000      10.0000    195.0840
  311   3 Pt  78       7.180000    5.440001   15.169998      10.0000    195.0840
  312   3 Pt  78      10.130000    5.510000   15.029999      10.0000    195.0840
  313   3 Pt  78      12.950001    5.620000   15.200001      10.0000    195.0840
  314   3 Pt  78      -1.200000    5.530000   15.369999      10.0000    195.0840
  315   3 Pt  78       1.840000    5.560000   15.000000      10.0000    195.0840
  316   3 Pt  78       5.920000    7.930000   15.169998      10.0000    195.0840
  317   3 Pt  78       8.680000    7.930000   15.120003      10.0000    195.0840
  318   3 Pt  78      11.560000    7.990000   15.299999      10.0000    195.0840
  319   3 Pt  78      -2.500000    7.970000   15.309998      10.0000    195.0840
  320   3 Pt  78       0.290000    7.850000   15.239998      10.0000    195.0840
  321   3 Pt  78       3.080000    7.960001   15.009998      10.0000    195.0840
  322   3 Pt  78       7.160000   10.410000   15.250000      10.0000    195.0840
  323   3 Pt  78      10.110001   10.370001   15.090000      10.0000    195.0840
  324   3 Pt  78      -3.910000   10.490000   15.040001      10.0000    195.0840
  325   3 Pt  78      -1.000000   10.420000   15.130001      10.0000    195.0840
  326   3 Pt  78       1.750000   10.490000   15.239998      10.0000    195.0840
  327   3 Pt  78       4.410000   10.370001   15.239998      10.0000    195.0840
  328   3 Pt  78       8.710001   12.770000   15.160000      10.0000    195.0840
  329   3 Pt  78      -5.570001   12.940001   15.250000      10.0000    195.0840
  330   3 Pt  78      -2.440000   12.690001   15.209999      10.0000    195.0840
  331   3 Pt  78       0.340000   12.810000   15.220001      10.0000    195.0840
  332   3 Pt  78       3.130000   12.950001   15.180000      10.0000    195.0840
  333   3 Pt  78       5.780000   12.860001   15.260002      10.0000    195.0840
  334   3 Pt  78       0.140000    1.540000   17.630001      10.0000    195.0840
  335   3 Pt  78       2.970000    1.560000   17.610001      10.0000    195.0840
  336   3 Pt  78       5.810000    1.510000   17.610001      10.0000    195.0840
  337   3 Pt  78       8.690001    1.530000   17.660000      10.0000    195.0840
  338   3 Pt  78      11.510000    1.510000   17.529999      10.0000    195.0840
  339   3 Pt  78      14.280001    1.370000   17.590000      10.0000    195.0840
  340   3 Pt  78       1.710000    3.890000   17.430000      10.0000    195.0840
  341   3 Pt  78       4.600000    4.080000   17.470001      10.0000    195.0840
  342   3 Pt  78       7.370000    4.040000   17.690002      10.0000    195.0840
  343   3 Pt  78      10.030001    3.910000   17.450001      10.0000    195.0840
  344   3 Pt  78      12.860001    3.950000   17.599998      10.0000    195.0840
  345   3 Pt  78      -1.200000    3.930000   17.529999      10.0000    195.0840
  346   3 Pt  78       3.000000    6.380000   17.470001      10.0000    195.0840
  347   3 Pt  78       5.780000    6.420000   17.680000      10.0000    195.0840
  348   3 Pt  78       8.670000    6.410000   17.420002      10.0000    195.0840
  349   3 Pt  78      11.470001    6.330000   17.550003      10.0000    195.0840
  350   3 Pt  78      -2.590000    6.380000   17.610001      10.0000    195.0840
  351   3 Pt  78       0.270000    6.240000   17.550003      10.0000    195.0840
  352   3 Pt  78       4.440001    8.910000   17.599998      10.0000    195.0840
  353   3 Pt  78       7.220001    8.830000   17.579998      10.0000    195.0840
  354   3 Pt  78      10.040001    8.820001   17.360001      10.0000    195.0840
  355   3 Pt  78      -3.920000    8.810000   17.590000      10.0000    195.0840
  356   3 Pt  78      -1.110000    8.740000   17.690002      10.0000    195.0840
  357   3 Pt  78       1.670000    8.800000   17.470001      10.0000    195.0840
  358   3 Pt  78       5.860000   11.330000   17.610001      10.0000    195.0840
  359   3 Pt  78       8.670000   11.260000   17.439999      10.0000    195.0840
  360   3 Pt  78      -5.180000   11.240001   17.380001      10.0000    195.0840
  361   3 Pt  78      -2.490000   11.120001   17.490002      10.0000    195.0840
  362   3 Pt  78       0.160000   11.150000   17.579998      10.0000    195.0840
  363   3 Pt  78       2.980000   11.380000   17.509998      10.0000    195.0840
  364   3 Pt  78       7.180000   13.610001   17.599998      10.0000    195.0840
  365   3 Pt  78      -6.820001   13.720001   17.570000      10.0000    195.0840
  366   3 Pt  78      -3.970000   13.670001   17.470001      10.0000    195.0840
  367   3 Pt  78      -1.190000   13.670001   17.639999      10.0000    195.0840
  368   3 Pt  78       1.530000   13.730000   17.599998      10.0000    195.0840
  369   3 Pt  78       4.440001   13.740001   17.660000      10.0000    195.0840
  370   3 Pt  78      -8.280001   14.610001   19.860001      10.0000    195.0840
  371   3 Pt  78      -5.410000   14.500000   19.740002      10.0000    195.0840
  372   3 Pt  78      -2.560000   14.490002   19.849998      10.0000    195.0840
  373   3 Pt  78       0.130000   14.440001   19.930000      10.0000    195.0840
  374   3 Pt  78       2.990000   14.480001   19.880001      10.0000    195.0840
  375   3 Pt  78       5.820000   14.540001   20.000004      10.0000    195.0840
  376   3 Pt  78       1.560000    2.430000   19.800003      10.0000    195.0840
  377   3 Pt  78       4.480000    2.430000   19.840000      10.0000    195.0840
  378   3 Pt  78       7.240000    2.380000   19.919998      10.0000    195.0840
  379   3 Pt  78       9.990001    2.270000   19.919998      10.0000    195.0840
  380   3 Pt  78      12.970000    2.350000   19.930000      10.0000    195.0840
  381   3 Pt  78      -1.270000    2.320000   19.889999      10.0000    195.0840
  382   3 Pt  78       3.090000    4.890000   19.790001      10.0000    195.0840
  383   3 Pt  78       5.830000    4.840000   19.910000      10.0000    195.0840
  384   3 Pt  78       8.710001    4.790000   19.950001      10.0000    195.0840
  385   3 Pt  78      11.400002    4.720000   19.930000      10.0000    195.0840
  386   3 Pt  78      -2.660000    4.740000   19.849998      10.0000    195.0840
  387   3 Pt  78       0.210000    4.750000   19.849998      10.0000    195.0840
  388   3 Pt  78       4.410000    7.230001   19.840000      10.0000    195.0840
  389   3 Pt  78       7.160000    7.170000   19.820000      10.0000    195.0840
  390   3 Pt  78       9.990001    7.310000   19.740002      10.0000    195.0840
  391   3 Pt  78      -4.190001    7.140000   19.830002      10.0000    195.0840
  392   3 Pt  78      -1.140000    7.100000   19.930000      10.0000    195.0840
  393   3 Pt  78       1.600000    7.150001   19.779999      10.0000    195.0840
  394   3 Pt  78       5.820000    9.730001   19.870003      10.0000    195.0840
  395   3 Pt  78       8.640000    9.640000   19.750000      10.0000    195.0840
  396   3 Pt  78      -5.390000    9.660000   19.730000      10.0000    195.0840
  397   3 Pt  78      -2.580000    9.610001   19.790001      10.0000    195.0840
  398   3 Pt  78       0.270000    9.590000   19.860001      10.0000    195.0840
  399   3 Pt  78       3.040000    9.650001   19.919998      10.0000    195.0840
  400   3 Pt  78       7.170000   12.150001   19.970001      10.0000    195.0840
  401   3 Pt  78      -6.930000   12.100000   19.709999      10.0000    195.0840
  402   3 Pt  78      -4.080000   12.000000   19.790001      10.0000    195.0840
  403   3 Pt  78      -1.240000   11.970000   19.900002      10.0000    195.0840
  404   3 Pt  78       1.580000   12.060001   19.940002      10.0000    195.0840
  405   3 Pt  78       4.410000   12.140001   19.830002      10.0000    195.0840
  406   3 Pt  78       1.570000    0.740000   22.077999      10.0000    195.0840
  407   3 Pt  78       4.430000    0.610000   22.047999      10.0000    195.0840
  408   3 Pt  78       7.200000    0.660000   22.167999      10.0000    195.0840
  409   3 Pt  78       9.960001    0.680000   22.207999      10.0000    195.0840
  410   3 Pt  78      12.800001    0.730000   22.277999      10.0000    195.0840
  411   3 Pt  78      15.610001    0.670000   22.267999      10.0000    195.0840
  412   3 Pt  78       3.050000    3.110000   22.147999      10.0000    195.0840
  413   3 Pt  78       5.700001    3.180000   22.247999      10.0000    195.0840
  414   3 Pt  78       8.510000    3.160000   22.247999      10.0000    195.0840
  415   3 Pt  78      11.300000    3.080000   22.197999      10.0000    195.0840
  416   3 Pt  78      14.190001    3.070000   22.247999      10.0000    195.0840
  417   3 Pt  78       0.210000    3.070000   22.267999      10.0000    195.0840
  418   3 Pt  78       4.370000    5.620000   22.137999      10.0000    195.0840
  419   3 Pt  78       7.120000    5.730000   22.157999      10.0000    195.0840
  420   3 Pt  78       9.970000    5.610001   22.237999      10.0000    195.0840
  421   3 Pt  78      12.760000    5.470000   22.157999      10.0000    195.0840
  422   3 Pt  78      -1.230000    5.480001   22.187999      10.0000    195.0840
  423   3 Pt  78       1.670000    5.510000   22.147999      10.0000    195.0840
  424   3 Pt  78       5.880000    8.090000   22.207999      10.0000    195.0840
  425   3 Pt  78       8.610001    8.100000   22.117999      10.0000    195.0840
  426   3 Pt  78      11.420001    8.030001   22.187999      10.0000    195.0840
  427   3 Pt  78      -2.660000    7.950000   22.197999      10.0000    195.0840
  428   3 Pt  78       0.170000    7.950000   22.207999      10.0000    195.0840
  429   3 Pt  78       3.030000    7.970000   22.147999      10.0000    195.0840
  430   3 Pt  78       7.220001   10.510000   22.117999      10.0000    195.0840
  431   3 Pt  78       9.990001   10.500001   22.017999      10.0000    195.0840
  432   3 Pt  78      -4.050000   10.400001   22.057999      10.0000    195.0840
  433   3 Pt  78      -1.260000   10.370001   22.237999      10.0000    195.0840
  434   3 Pt  78       1.450000   10.420000   22.227999      10.0000    195.0840
  435   3 Pt  78       4.330000   10.470000   22.147999      10.0000    195.0840
  436   3 Pt  78       8.610001   12.960000   22.217999      10.0000    195.0840
  437   3 Pt  78      -5.530000   12.800001   21.957999      10.0000    195.0840
  438   3 Pt  78      -2.680000   12.760000   22.177999      10.0000    195.0840
  439   3 Pt  78       0.060000   12.790001   22.267999      10.0000    195.0840
  440   3 Pt  78       2.840000   12.900001   22.297999      10.0000    195.0840
  441   3 Pt  78       5.740000   12.970000   22.237999      10.0000    195.0840
  442   3 Pt  78       0.230000    1.510000   24.617999      10.0000    195.0840
  443   3 Pt  78       2.970000    1.530000   24.337999      10.0000    195.0840
  444   3 Pt  78       5.740000    1.540000   24.407999      10.0000    195.0840
  445   3 Pt  78       8.580000    1.410000   24.587999      10.0000    195.0840
  446   3 Pt  78      11.340000    1.620000   24.577999      10.0000    195.0840
  447   3 Pt  78      14.210001    1.470000   24.647999      10.0000    195.0840
  448   3 Pt  78       1.560000    4.000000   24.517999      10.0000    195.0840
  449   3 Pt  78       4.400000    3.960000   24.527999      10.0000    195.0840
  450   3 Pt  78       7.180000    4.120000   24.467999      10.0000    195.0840
  451   3 Pt  78       9.940001    4.010000   24.507999      10.0000    195.0840
  452   3 Pt  78      12.730000    3.910000   24.497999      10.0000    195.0840
  453   3 Pt  78      -1.260000    3.840000   24.547999      10.0000    195.0840
  454   3 Pt  78       2.930000    6.340000   24.437999      10.0000    195.0840
  455   3 Pt  78       5.680000    6.410000   24.517999      10.0000    195.0840
  456   3 Pt  78       8.600000    6.530001   24.577999      10.0000    195.0840
  457   3 Pt  78      11.410000    6.440001   24.557999      10.0000    195.0840
  458   3 Pt  78      -2.730000    6.380000   24.427999      10.0000    195.0840
  459   3 Pt  78       0.120000    6.360001   24.397999      10.0000    195.0840
  460   3 Pt  78       4.360000    8.870000   24.407999      10.0000    195.0840
  461   3 Pt  78       7.170000    8.950001   24.627999      10.0000    195.0840
  462   3 Pt  78      10.050000    8.910000   24.527999      10.0000    195.0840
  463   3 Pt  78      -4.040000    8.890000   24.337999      10.0000    195.0840
  464   3 Pt  78      -1.250000    8.820001   24.507999      10.0000    195.0840
  465   3 Pt  78       1.530000    8.770000   24.487999      10.0000    195.0840
  466   3 Pt  78       5.710001   11.370001   24.437999      10.0000    195.0840
  467   3 Pt  78       8.600000   11.300000   24.387999      10.0000    195.0840
  468   3 Pt  78      -5.450000   11.310000   24.437999      10.0000    195.0840
  469   3 Pt  78      -2.670000   11.290001   24.567999      10.0000    195.0840
  470   3 Pt  78       0.080000   11.290001   24.547999      10.0000    195.0840
  471   3 Pt  78       2.870000   11.260000   24.617999      10.0000    195.0840
  472   3 Pt  78       7.170000   13.700001   24.577999      10.0000    195.0840
  473   3 Pt  78      -6.800000   13.720001   24.397999      10.0000    195.0840
  474   3 Pt  78      -4.060000   13.730000   24.367999      10.0000    195.0840
  475   3 Pt  78      -1.350000   13.760000   24.457999      10.0000    195.0840
  476   3 Pt  78       1.560000   13.740001   24.627999      10.0000    195.0840
  477   3 Pt  78       4.350000   13.680000   24.647999      10.0000    195.0840
  478   3 Pt  78      -8.320000   14.540001   26.777999      10.0000    195.0840
  479   3 Pt  78      -5.530000   14.670001   26.727999      10.0000    195.0840
  480   3 Pt  78      -2.740000   14.540001   26.807999      10.0000    195.0840
  481   3 Pt  78       0.070000   14.570000   26.937999      10.0000    195.0840
  482   3 Pt  78       2.860000   14.460001   26.827999      10.0000    195.0840
  483   3 Pt  78       5.610001   14.610001   27.007999      10.0000    195.0840
  484   3 Pt  78       1.680000    2.330000   26.917999      10.0000    195.0840
  485   3 Pt  78       4.330000    2.380000   26.917999      10.0000    195.0840
  486   3 Pt  78       7.020000    2.560000   26.667999      10.0000    195.0840
  487   3 Pt  78      10.020000    2.320000   26.927999      10.0000    195.0840
  488   3 Pt  78      12.840000    2.440000   26.947999      10.0000    195.0840
  489   3 Pt  78      -1.280000    2.330000   26.887999      10.0000    195.0840
  490   3 Pt  78       2.880000    4.790000   26.877999      10.0000    195.0840
  491   3 Pt  78       5.670000    4.890000   26.757999      10.0000    195.0840
  492   3 Pt  78       8.460000    4.740000   26.897999      10.0000    195.0840
  493   3 Pt  78      11.280001    4.730000   26.857999      10.0000    195.0840
  494   3 Pt  78      -2.770000    4.830000   26.677999      10.0000    195.0840
  495   3 Pt  78      -0.010000    4.870000   26.777999      10.0000    195.0840
  496   3 Pt  78       4.120000    7.180000   26.827999      10.0000    195.0840
  497   3 Pt  78       7.130001    7.350000   26.767999      10.0000    195.0840
  498   3 Pt  78       9.980000    7.310000   26.927999      10.0000    195.0840
  499   3 Pt  78      -4.260000    7.300000   26.827999      10.0000    195.0840
  500   3 Pt  78      -1.300000    7.240000   26.767999      10.0000    195.0840
  501   3 Pt  78       1.410000    7.320001   26.737999      10.0000    195.0840
  502   3 Pt  78       5.710001    9.800000   26.727999      10.0000    195.0840
  503   3 Pt  78       8.510000    9.850000   26.867999      10.0000    195.0840
  504   3 Pt  78      -5.570001    9.830000   26.837999      10.0000    195.0840
  505   3 Pt  78      -2.740000    9.600000   26.737999      10.0000    195.0840
[...]
 flops    13 x     5 x    96           5796311040       0.0%    100.0%      0.0%
 flops     5 x    13 x    96           5801103360       0.0%    100.0%      0.0%
 flops    13 x    32 x    13           5864748864       0.0%    100.0%      0.0%
 flops    20 x    13 x   120           6346828800       0.0%    100.0%      0.0%
 flops    13 x    20 x   120           6361804800       0.0%    100.0%      0.0%
 flops     5 x    20 x   120           6776640000       0.0%    100.0%      0.0%
 flops    20 x     5 x   120           6780672000       0.0%    100.0%      0.0%
 flops    13 x    13 x    96           6999422976       0.0%    100.0%      0.0%
 flops    13 x    32 x    20           8613629440       0.0%    100.0%      0.0%
 flops    20 x    32 x    13           8613629440       0.0%    100.0%      0.0%
 flops    20 x    32 x     5           9188844800       0.0%    100.0%      0.0%
 flops     5 x    32 x    20           9188844800       0.0%    100.0%      0.0%
 flops    20 x    13 x    96          10154926080       0.0%    100.0%      0.0%
 flops    13 x    20 x    96          10178887680       0.0%    100.0%      0.0%
 flops     5 x    20 x    96          10842624000       0.0%    100.0%      0.0%
 flops    20 x     5 x    96          10849075200       0.0%    100.0%      0.0%
 flops     5 x     5 x   128          39336960000       0.0%    100.0%      0.0%
 flops    13 x     5 x   128          50234695680       0.0%    100.0%      0.0%
 flops     5 x    13 x   128          50276229120       0.0%    100.0%      0.0%
 flops    20 x    20 x   120          53996544000       0.0%    100.0%      0.0%
 flops    13 x    13 x   128          60661665792       0.0%    100.0%      0.0%
 flops    20 x    32 x    20          72858009600       0.0%    100.0%      0.0%
 flops    20 x    20 x    96          86394470400       0.0%    100.0%      0.0%
 flops    20 x    13 x   128          88009359360       0.0%    100.0%      0.0%
 flops    13 x    20 x   128          88217026560       0.0%    100.0%      0.0%
 flops     5 x    20 x   128          93969408000       0.0%    100.0%      0.0%
 flops    20 x     5 x   128          94025318400       0.0%    100.0%      0.0%
 flops    20 x    20 x   128         748752076800       0.0%    100.0%      0.0%
 flops inhomo. stacks                           0       0.0%      0.0%      0.0%
 flops total                         1.689314E+12       0.0%    100.0%      0.0%
 flops max/rank                     15.211254E+09       0.0%    100.0%      0.0%
 matmuls inhomo. stacks                         0       0.0%      0.0%      0.0%
 matmuls total                           50266798       0.0%    100.0%      0.0%
 number of processed stacks                463536       0.0%    100.0%      0.0%
 average stack size                                     0.0     108.4       0.0
 marketing flops                     3.384322E+12
 -------------------------------------------------------------------------------
 # multiplications                             25
 max memory usage/rank               1.581294E+09
 # max total images/rank                        2
 # max 3D layers                                1
 # MPI messages exchanged                   92800
 MPI messages size (bytes):
  total size                        59.726471E+09
  min size                         272.640000E+03
  max size                           2.315032E+06
  average size                     643.604188E+03
 MPI breakdown and total messages size (bytes):
             size <=      128                   0                        0
       128 < size <=     8192                   0                        0
      8192 < size <=    32768                   0                        0
     32768 < size <=   131072                   0                        0
    131072 < size <=  4194304               92800              59726469480
   4194304 < size <= 16777216                   0                        0
  16777216 < size                               0                        0
 -------------------------------------------------------------------------------

 *** WARNING in dbcsr_mm.F:290 :: Using a non-square number of MPI ranks ***
 *** might lead to poor performance. Used ranks: 128 Suggested: 121 256  ***

 -------------------------------------------------------------------------------
 -                                                                             -
 -                      DBCSR MESSAGE PASSING PERFORMANCE                      -
 -                                                                             -
 -------------------------------------------------------------------------------
 ROUTINE             CALLS      AVE VOLUME [Bytes]
 MP_Bcast               46                     12.
 MP_Allreduce          278                     15.
 MP_Alltoall           693                 596270.
 MP_ISend             1600                 305926.
 MP_IRecv             1600                 299445.
 -------------------------------------------------------------------------------

 -------------------------------------------------------------------------------
 -                                                                             -
 -                                DBM STATISTICS                               -
 -                                                                             -
 -------------------------------------------------------------------------------
    M  x    N  x    K                                          COUNT     PERCENT
 -------------------------------------------------------------------------------

 -------------------------------------------------------------------------------
 -                                                                             -
 -                                GRID STATISTICS                              -
 -                                                                             -
 -------------------------------------------------------------------------------
 LP    KERNEL             BACKEND                              COUNT     PERCENT
 4     collocate general  REF                                9355066      22.05%
 4     integrate general  REF                                9233429      21.77%
 3     collocate general  REF                                6557415      15.46%
 3     integrate general  REF                                6496967      15.32%
 2     collocate general  REF                                5167111      12.18%
 2     integrate general  REF                                4942454      11.65%
 5     integrate general  REF                                 406742       0.96%
 0     collocate general  REF                                 131328       0.31%
 0     integrate general  REF                                  65664       0.15%
 1     integrate general  REF                                  65664       0.15%
 -------------------------------------------------------------------------------

 MEMORY| Estimated peak process memory [MiB]                                1764

 -------------------------------------------------------------------------------
 ----                             MULTIGRID INFO                            ----
 -------------------------------------------------------------------------------
 count for grid        1:        1096802          cutoff [a.u.]          200.00
 count for grid        2:        1092447          cutoff [a.u.]           66.67
 count for grid        3:         717015          cutoff [a.u.]           22.22
 count for grid        4:         555567          cutoff [a.u.]            7.41
 total gridlevel count  :        3461831

 -------------------------------------------------------------------------------
 -                                                                             -
 -                         MESSAGE PASSING PERFORMANCE                         -
 -                                                                             -
 -------------------------------------------------------------------------------

 ROUTINE             CALLS      AVE VOLUME [Bytes]
 MP_Group                4
 MP_Bcast             2157                 312603.
 MP_Allreduce         3020                  35723.
 MP_Sync                52
 MP_Alltoall          1402               16429044.
 MP_SendRecv           508                   6201.
 MP_ISendRecv        11684                  61740.
 MP_Wait             20942
 MP_comm_split          24
 MP_ISend             8732                 256487.
 MP_IRecv             8732                 256487.
 MP_Recv               122                1688832.
 MP_Write_All            3                1797408.
 -------------------------------------------------------------------------------


 -------------------------------------------------------------------------------
 -                                                                             -
 -                           R E F E R E N C E S                               -
 -                                                                             -
 -------------------------------------------------------------------------------
 
 CP2K version 2022.1, the CP2K developers group (2022).
 CP2K is freely available from https://www.cp2k.org/ .

 Kuehne,Thomas D.; Iannuzzi,Marcella; Del Ben,Mauro;
 Rybkin,Vladimir V.; Seewald,Patrick; Stein,Frederick; Laino,Teodoro;
 Khaliullin,Rustam Z.; Schuett,Ole; Schiffmann,Florian; Golze,Dorothea;
 Wilhelm,Jan; Chulkov,Sergey; Bani-Hashemian,Mohammad Hossein;
 Weber,Valery; Borstnik,Urban; Taillefumier,Mathieu;
 Jakobovits,Alice Shoshana; Lazzaro,Alfio; Pabst,Hans; Mueller,Tiziano;
 Schade,Robert; Guidon,Manuel; Andermatt,Samuel; Holmberg,Nico;
 Schenter,Gregory K.; Hehn,Anna; Bussy,Augustin; Belleflamme,Fabian;
 Tabacchi,Gloria; Gloess,Andreas; Lass,Michael; Bethune,Iain;
 Mundy,Christopher J.; Plessl,Christian; Watkins,Matt;
 VandeVondele,Joost; Krack,Matthias; Hutter,Juerg. 
 The Journal of Chemical Physics, 152 (19), (2020). 
 CP2K: An electronic structure and molecular dynamics software package -
 Quickstep: Efficient and accurate electronic structure calculations.
 https://doi.org/10.1063/5.0007045

 Goerigk, Lars; Hansen, Andreas; Bauer, Christoph; Ehrlich, Stephan;
 Najibi, Asim; Grimme, Stefan. , 19 (48), (2017). 
 A look at the density functional theory zoo with the advanced GMTKN55 database
 for general main group thermochemistry, kinetics and noncovalent interactions.
 https://doi.org/10.1039/C7CP04913G

 Bani-Hashemian, MH; Bruck, S; Luisier, M; VandeVondele, J. 
 JOURNAL OF CHEMICAL PHYSICS, 144 (4), 044113 (2016). 
 A generalized Poisson solver for first-principles device simulations.
 https://doi.org/10.1063/1.4940796

 Schuett, Ole; Messmer, Peter; Hutter, Juerg; VandeVondele, Joost. 
 Electronic Structure Calculations on Graphics Processing Units, John
 Wiley & Sons, Ltd, 173-190 (2016). 
 GPU-Accelerated Sparse Matrix-Matrix Multiplication for
 Linear Scaling Density Functional Theory.
 https://doi.org/10.1002/9781118670712.ch8

 Heinecke, A; Henry, G; Hutchinson, M; Pabst, H. 
 Proceedings of Intl. Supercomputing Conference, 981-991 (2016). 
 LIBXSMM: Accelerating Small Matrix Multiplications
 by Runtime Code Generation.
 https://doi.org/10.1109/SC.2016.83

 Borstnik, U; VandeVondele, J; Weber, V; Hutter, J. 
 PARALLEL COMPUTING, 40 (5-6), 47-58 (2014). 
 Sparse matrix multiplication: The distributed block-compressed sparse
 row library.
 https://doi.org/10.1016/j.parco.2014.03.012

 Hutter, J; Iannuzzi, M; Schiffmann, F; VandeVondele, J. 
 WIREs Comput Mol Sci., 4 (1), 15-25 (2014). 
 CP2K: atomistic simulations of condensed matter systems.
 https://doi.org/10.1002/wcms.1159

 Marek, A; Blum, V; Johanni, R; Havu, V; Lang, B; Auckenthaler, T;
 Heinecke, A; Bungartz, H; Lederer, H. 
 Journal of Physics: Condensed Matter, 26 (21), (2014). 
 The ELPA library: scalable parallel eigenvalue solutions for
 electronic structure
 theory and computational science.
 https://doi.org/10.1088/0953-8984/26/21/213201

 Grimme, S; Ehrlich, S; Goerigk, L. 
 JOURNAL OF COMPUTATIONAL CHEMISTRY, 32, 1456 (2011). 
 Effect of the damping function in dispersion corrected density functional theory.
 https://doi.org/10.1002/jcc.21759

 Grimme, S; Antony, J; Ehrlich, S; Krieg, H. 
 JOURNAL OF CHEMICAL PHYSICS, 132 (15), 154104 (2010). 
 A consistent and accurate ab initio parametrization of density
 functional dispersion correction (DFT-D) for the 94 elements H-Pu.
 https://doi.org/10.1063/1.3382344

 VandeVondele, J; Hutter, J. 
 JOURNAL OF CHEMICAL PHYSICS, 127 (11), 114105 (2007). 
 Gaussian basis sets for accurate calculations on molecular systems in
 gas and condensed phases.
 https://doi.org/10.1063/1.2770708

 Krack, M. 
 THEORETICAL CHEMISTRY ACCOUNTS, 114 (1-3), 145-152 (2005). 
 Pseudopotentials for H to Kr optimized for gradient-corrected
 exchange-correlation functionals.
 https://doi.org/10.1007/s00214-005-0655-y

 VandeVondele, J; Krack, M; Mohamed, F; Parrinello, M; Chassaing, T;
 Hutter, J. COMPUTER PHYSICS COMMUNICATIONS, 167 (2), 103-128 (2005). 
 QUICKSTEP: Fast and accurate density functional calculations using a
 mixed Gaussian and plane waves approach.
 https://doi.org/10.1016/j.cpc.2004.12.014

 Frigo, M; Johnson, SG. 
 PROCEEDINGS OF THE IEEE, 93 (2), 216-231 (2005). 
 The design and implementation of FFTW3.
 https://doi.org/10.1109/JPROC.2004.840301

 Hartwigsen, C; Goedecker, S; Hutter, J. 
 PHYSICAL REVIEW B, 58 (7), 3641-3662 (1998). 
 Relativistic separable dual-space Gaussian pseudopotentials from H to Rn.
 https://doi.org/10.1103/PhysRevB.58.3641

 Lippert, G; Hutter, J; Parrinello, M. 
 MOLECULAR PHYSICS, 92 (3), 477-487 (1997). 
 A hybrid Gaussian and plane wave density functional scheme.
 https://doi.org/10.1080/002689797170220

 Perdew, JP; Burke, K; Ernzerhof, M. 
 PHYSICAL REVIEW LETTERS, 77 (18), 3865-3868 (1996). 
 Generalized gradient approximation made simple.
 https://doi.org/10.1103/PhysRevLett.77.3865

 Goedecker, S; Teter, M; Hutter, J. 
 PHYSICAL REVIEW B, 54 (3), 1703-1710 (1996). 
 Separable dual-space Gaussian pseudopotentials.
 https://doi.org/10.1103/PhysRevB.54.1703


 -------------------------------------------------------------------------------
 -                                                                             -
 -                                T I M I N G                                  -
 -                                                                             -
 -------------------------------------------------------------------------------
 SUBROUTINE                       CALLS  ASD         SELF TIME        TOTAL TIME
                                MAXIMUM       AVERAGE  MAXIMUM  AVERAGE  MAXIMUM
 CP2K                                 1  1.0    0.259    0.272  167.189  167.190
 qs_forces                            1  2.0    0.002    0.002  166.595  166.596
 qs_energies                          1  3.0    0.000    0.001  160.299  160.332
 scf_env_do_scf                       1  4.0    0.000    0.000  150.941  151.087
 scf_env_do_scf_inner_loop           22  5.0    0.002    0.003  150.937  151.083
 rebuild_ks_matrix                   23  6.9    0.000    0.000   83.610   83.630
 qs_ks_build_kohn_sham_matrix        23  7.9    0.004    0.004   83.610   83.630
 qs_ks_update_qs_env                 22  6.0    0.000    0.000   79.502   79.521
 pw_transfer                       1200 12.1    0.088    0.120   52.881   53.922
 fft_wrap_pw1pw2                   1200 13.1    0.012    0.015   52.793   53.829
 fft_wrap_pw1pw2_200               1062 14.4    3.526    4.141   52.034   53.081
 pw_poisson_solve                    23  8.9    0.002    0.005   44.915   44.942
 fft3d_ps                          1200 15.1   15.079   16.677   42.603   44.168
 qs_scf_new_mos                      22  6.0    0.001    0.002   42.975   43.035
 implicit_poisson_solver_mixed_      23  9.9    0.949    1.171   42.269   42.315
 eigensolver                         22  7.0    0.002    0.003   40.532   40.668
 derive_fft                         138 12.0    0.009    0.010   29.672   29.776
 cp_fm_diag_elpa                     24  8.1    0.000    0.000   29.420   29.492
 cp_fm_redistribute_end              24  9.1    3.942   29.161    3.999   29.187
 cp_fm_diag_elpa_base                24  9.1   24.813   28.514   25.049   28.761
 mp_alltoall_z22v                  1200 17.1   23.090   28.341   23.090   28.341
 qs_rho_update_rho_low               23  6.0    0.000    0.000   26.144   26.153
 calculate_rho_elec                  23  7.0    0.044    0.056   26.144   26.153
 sum_up_and_integrate                23  8.9    0.124    0.155   25.787   25.811
 integrate_v_rspace                  23  9.9    0.001    0.001   25.663   25.722
 apply_P_operator                   115 11.1    0.615    0.686   25.259   25.354
 grid_collocate_task_list            23  8.0   16.793   20.633   16.793   20.633
 grid_integrate_task_list            23 10.9   15.675   18.879   15.675   18.879
 x_to_yz                            691 16.4    2.923    3.787   17.679   18.210
 rs_pw_transfer                     188 10.4    0.002    0.003   11.814   13.963
 cp_fm_triangular_multiply           66  8.0   12.739   12.874   12.739   12.874
 yz_to_x                            371 16.4    1.012    1.214    9.251   12.646
 qs_vxc_create                       23  8.9    0.001    0.001   11.426   11.574
 xc_vxc_pw_create                    23  9.9    0.197    0.242   11.425   11.573
 density_rs2pw                       23  8.0    0.001    0.002    8.784   10.981
 xc_pw_derive                       138 11.9    0.002    0.002    8.070    8.952
 rs_pw_transfer_RS2PW_200            25  9.9    1.626    1.807    5.441    7.599
 apply_poisson_operator_fft          23 10.9    0.000    0.000    7.373    7.495
 mp_waitany                        8732 12.3    5.337    7.457    5.337    7.457
 apply_inv_laplace_operator_fft      71 11.6    0.179    0.203    6.872    7.125
 potential_pw2rs                     23 10.9    0.007    0.012    6.527    6.580
 mp_alltoall_d11v                   344 10.2    4.224    6.085    4.224    6.085
 xc_pw_divergence                    23 10.9    0.001    0.001    5.386    6.039
 xc_rho_set_and_dset_create          23 10.9    0.114    0.139    5.645    5.990
 scf_post_calculation_gpw             1  4.0    0.000    0.001    5.786    5.792
 write_available_results              1  5.0    0.000    0.000    5.786    5.792
 ps_implicit_compute_error_fft       46 10.9    0.289    0.364    5.007    5.373
 rs_gather_matrices                  23 10.9    0.028    0.035    3.447    5.277
 ps_implicit_compute_veps            23 10.9    0.134    0.164    5.164    5.255
 pw_scatter_p                       760 15.3    4.234    4.991    4.234    4.991
 qs_ks_update_qs_env_forces           1  3.0    0.000    0.000    4.154    4.155
 rs_pw_transfer_PW2RS_200            25 12.5    1.887    1.977    3.935    4.047
 write_mo_dependent_results           1  6.0    0.000    0.000    2.661    3.898
 calculate_projected_dos              1  7.0    0.360    1.747    2.661    3.898
 pw_derive                          552 13.0    3.508    3.682    3.508    3.682
 -------------------------------------------------------------------------------

 The number of warnings for this run is : 1
 
 -------------------------------------------------------------------------------
  **** **** ******  **  PROGRAM ENDED AT                 2023-12-03 08:19:18.179
 ***** ** ***  *** **   PROGRAM RAN ON                                     cu001
 **    ****   ******    PROGRAM RAN BY                                     jxzhu
 ***** **    ** ** **   PROGRAM PROCESS ID                                  7152
  **** **  *******  **  PROGRAM STOPPED IN /public/home/jxzhu/tmp_calc/b6f19961a
                                           01c666744b235d1688ee18ed06575ac/calc/
                                           003100.000/search_lo.000000
