 DBCSR| CPU Multiplication driver                                           XSMM
 DBCSR| Multrec recursion limit                                              512
 DBCSR| Multiplication stack size                                           1000
 DBCSR| Maximum elements for images                                    UNLIMITED
 DBCSR| Multiplicative factor virtual images                                   1
 DBCSR| Use multiplication densification                                       T
 DBCSR| Multiplication size stacks                                             3
 DBCSR| Use memory pool for CPU allocation                                     F
 DBCSR| Number of 3D layers                                               SINGLE
 DBCSR| Use MPI memory allocation                                              F
 DBCSR| Use RMA algorithm                                                      F
 DBCSR| Use Communication thread                                               T
 DBCSR| Communication thread load                                             87
 DBCSR| MPI: My node id                                                        0
 DBCSR| MPI: Number of nodes                                                  32
 DBCSR| OMP: Current number of threads                                         1
 DBCSR| OMP: Max number of threads                                             1
 DBCSR| Split modifier for TAS multiplication algorithm                  1.0E+00


  **** **** ******  **  PROGRAM STARTED AT               2023-12-03 01:52:47.811
 ***** ** ***  *** **   PROGRAM STARTED ON                                 cu042
 **    ****   ******    PROGRAM STARTED BY                                 jxzhu
 ***** **    ** ** **   PROGRAM PROCESS ID                                 64988
  **** **  *******  **  PROGRAM STARTED IN /public/home/jxzhu/tmp_calc/04c0855f9
                                           8753fac23fde4df51ba20f3741a9e9a/calc/
                                           task.001.000021

 CP2K| version string:                                       CP2K version 2022.1
 CP2K| source code revision number:                                  git:2caeb6f
 CP2K| cp2kflags: omp libint fftw3 libxc elpa parallel mpi3 scalapack cosma xsmm
 CP2K|             plumed2 spglib mkl sirius libvori libbqb
 CP2K| is freely available from                            https://www.cp2k.org/
 CP2K| Program compiled at                           Mon Jul 3 17:37:06 CST 2023
 CP2K| Program compiled on                                                 mu003
 CP2K| Program compiled for                                                local
 CP2K| Data directory path                             /public/home/jxzhu/basis/
 CP2K| Input file name                                                 input.inp
 
 GLOBAL| Force Environment number                                              1
 GLOBAL| Basis set file name                                        BASIS_MOLOPT
 GLOBAL| Potential file name                                      GTH_POTENTIALS
 GLOBAL| MM Potential file name                                     MM_POTENTIAL
 GLOBAL| Coordinate file name                                          coord.xyz
 GLOBAL| Method name                                                        CP2K
 GLOBAL| Project name                                                       cp2k
 GLOBAL| Run type                                                   ENERGY_FORCE
 GLOBAL| FFT library                                                       FFTW3
 GLOBAL| Diagonalization library                                            ELPA
 GLOBAL| Minimum number of eigenvectors for ELPA usage                        16
 GLOBAL| Orthonormality check for eigenvectors                          DISABLED
 GLOBAL| Matrix multiplication library                                     COSMA
 GLOBAL| All-to-all communication in single precision                          F
 GLOBAL| FFTs using library dependent lengths                                  T
 GLOBAL| Grid backend                                                       AUTO
 GLOBAL| Global print level                                               MEDIUM
 GLOBAL| MPI I/O enabled                                                       T
 GLOBAL| Total number of message passing processes                            32
 GLOBAL| Number of threads for this process                                    1
 GLOBAL| This output is from process                                           0
 GLOBAL| Stack size for threads created by OpenMP (OMP_STACKSIZE)        default
 GLOBAL| CPU model name                 Intel(R) Xeon(R) Gold 6338 CPU @ 2.00GHz
 GLOBAL| CPUID                                                              1003

 MEMORY| system memory details [Kb]
 MEMORY|                        rank 0           min           max       average
 MEMORY| MemTotal            263619172     263619172     263619172     263619172
 MEMORY| MemFree             176498204     176498204     176498204     176498204
 MEMORY| Buffers                  3320          3320          3320          3320
 MEMORY| Cached                8829632       8829632       8829632       8829632
 MEMORY| Slab                  1984252       1984252       1984252       1984252
 MEMORY| SReclaimable           246260        246260        246260        246260
 MEMORY| MemLikelyFree       185577416     185577416     185577416     185577416


 *** Fundamental physical constants (SI units) ***

 *** Literature: B. J. Mohr and B. N. Taylor,
 ***             CODATA recommended values of the fundamental physical
 ***             constants: 2006, Web Version 5.1
 ***             http://physics.nist.gov/constants

 Speed of light in vacuum [m/s]                             2.99792458000000E+08
 Magnetic constant or permeability of vacuum [N/A**2]       1.25663706143592E-06
 Electric constant or permittivity of vacuum [F/m]          8.85418781762039E-12
 Planck constant (h) [J*s]                                  6.62606896000000E-34
 Planck constant (h-bar) [J*s]                              1.05457162825177E-34
 Elementary charge [C]                                      1.60217648700000E-19
 Electron mass [kg]                                         9.10938215000000E-31
 Electron g factor [ ]                                     -2.00231930436220E+00
 Proton mass [kg]                                           1.67262163700000E-27
 Fine-structure constant                                    7.29735253760000E-03
 Rydberg constant [1/m]                                     1.09737315685270E+07
 Avogadro constant [1/mol]                                  6.02214179000000E+23
 Boltzmann constant [J/K]                                   1.38065040000000E-23
 Atomic mass unit [kg]                                      1.66053878200000E-27
 Bohr radius [m]                                            5.29177208590000E-11

 *** Conversion factors ***

 [u] -> [a.u.]                                              1.82288848426455E+03
 [Angstrom] -> [Bohr] = [a.u.]                              1.88972613288564E+00
 [a.u.] = [Bohr] -> [Angstrom]                              5.29177208590000E-01
 [a.u.] -> [s]                                              2.41888432650478E-17
 [a.u.] -> [fs]                                             2.41888432650478E-02
 [a.u.] -> [J]                                              4.35974393937059E-18
 [a.u.] -> [N]                                              8.23872205491840E-08
 [a.u.] -> [K]                                              3.15774647902944E+05
 [a.u.] -> [kJ/mol]                                         2.62549961709828E+03
 [a.u.] -> [kcal/mol]                                       6.27509468713739E+02
 [a.u.] -> [Pa]                                             2.94210107994716E+13
 [a.u.] -> [bar]                                            2.94210107994716E+08
 [a.u.] -> [atm]                                            2.90362800883016E+08
 [a.u.] -> [eV]                                             2.72113838565563E+01
 [a.u.] -> [Hz]                                             6.57968392072181E+15
 [a.u.] -> [1/cm] (wave numbers)                            2.19474631370540E+05
 [a.u./Bohr**2] -> [1/cm]                                   5.14048714338585E+03
 

 CELL_TOP| Volume [angstrom^3]:                                     12686.086737
 CELL_TOP| Vector a [angstrom    16.869     0.000     0.000   |a| =    16.869000
 CELL_TOP| Vector b [angstrom    -8.434    14.609     0.000   |b| =    16.868929
 CELL_TOP| Vector c [angstrom     0.000     0.000    51.478   |c| =    51.477900
 CELL_TOP| Angle (b,c), alpha [degree]:                                90.000000
 CELL_TOP| Angle (a,c), beta  [degree]:                                90.000000
 CELL_TOP| Angle (a,b), gamma [degree]:                               120.000140
 CELL_TOP| Numerically orthorhombic:                                          NO
 
 GENERATE|  Preliminary Number of Bonds generated:                             0
 GENERATE|  Achieved consistency in connectivity generation.

 CELL| Volume [angstrom^3]:                                         12686.086737
 CELL| Vector a [angstrom]:      16.869     0.000     0.000   |a| =    16.869000
 CELL| Vector b [angstrom]:      -8.434    14.609     0.000   |b| =    16.868929
 CELL| Vector c [angstrom]:       0.000     0.000    51.478   |c| =    51.477900
 CELL| Angle (b,c), alpha [degree]:                                    90.000000
 CELL| Angle (a,c), beta  [degree]:                                    90.000000
 CELL| Angle (a,b), gamma [degree]:                                   120.000140
 CELL| Numerically orthorhombic:                                              NO

 CELL_REF| Volume [angstrom^3]:                                     12686.086737
 CELL_REF| Vector a [angstrom    16.869     0.000     0.000   |a| =    16.869000
 CELL_REF| Vector b [angstrom    -8.434    14.609     0.000   |b| =    16.868929
 CELL_REF| Vector c [angstrom     0.000     0.000    51.478   |c| =    51.477900
 CELL_REF| Angle (b,c), alpha [degree]:                                90.000000
 CELL_REF| Angle (a,c), beta  [degree]:                                90.000000
 CELL_REF| Angle (a,b), gamma [degree]:                               120.000140
 CELL_REF| Numerically orthorhombic:                                          NO

 *******************************************************************************
 *******************************************************************************
 **                                                                           **
 **     #####                         ##              ##                      **
 **    ##   ##            ##          ##              ##                      **
 **   ##     ##                       ##            ######                    **
 **   ##     ##  ##   ##  ##   #####  ##  ##   ####   ##    #####    #####    **
 **   ##     ##  ##   ##  ##  ##      ## ##   ##      ##   ##   ##  ##   ##   **
 **   ##  ## ##  ##   ##  ##  ##      ####     ###    ##   ######   ######    **
 **    ##  ###   ##   ##  ##  ##      ## ##      ##   ##   ##       ##        **
 **     #######   #####   ##   #####  ##  ##  ####    ##    #####   ##        **
 **           ##                                                    ##        **
 **                                                                           **
 **                                                ... make the atoms dance   **
 **                                                                           **
 **            Copyright (C) by CP2K developers group (2000-2022)             **
 **                      J. Chem. Phys. 152, 194103 (2020)                    **
 **                                                                           **
 *******************************************************************************

 DFT| Spin restricted Kohn-Sham (RKS) calculation                            RKS
 DFT| Multiplicity                                                             1
 DFT| Number of spin states                                                    1
 DFT| Charge                                                                   0
 DFT| Self-interaction correction (SIC)                                       NO
 DFT| Cutoffs: density                                              1.000000E-10
 DFT|          gradient                                             1.000000E-10
 DFT|          tau                                                  1.000000E-10
 DFT|          cutoff_smoothing_range                               0.000000E+00
 DFT| XC density smoothing                                                  NONE
 DFT| XC derivatives                                                          PW

 FUNCTIONAL| PBE:
 FUNCTIONAL| J.P.Perdew, K.Burke, M.Ernzerhof, Phys. Rev. Letter, vol. 77, n 18,
 FUNCTIONAL|  pp. 3865-3868, (1996){spin unpolarized}                           

 vdW POTENTIAL|                                                   Pair Potential
 vdW POTENTIAL|          DFT-D3 (Version 3.1)
 vdW POTENTIAL|          Potential Form: S. Grimme et al, JCP 132: 154104 (2010)
 vdW POTENTIAL|          Zero Damping
 vdW POTENTIAL|          Cutoff Radius [Bohr]:                             20.00
 vdW POTENTIAL|          s6 Scaling Factor:                               1.0000
 vdW POTENTIAL|          sr6 Scaling Factor:                              1.2170
 vdW POTENTIAL|          s8 Scaling Factor:                               0.7220
 vdW POTENTIAL|          Cutoff for CN calculation:                   0.1000E-05

 QS| Method:                                                                 GPW
 QS| Density plane wave grid type                        NON-SPHERICAL FULLSPACE
 QS| Number of grid levels:                                                    4
 QS| Density cutoff [a.u.]:                                                200.0
 QS| Multi grid cutoff [a.u.]: 1) grid level                               200.0
 QS|                           2) grid level                                66.7
 QS|                           3) grid level                                22.2
 QS|                           4) grid level                                 7.4
 QS| Grid level progression factor:                                          3.0
 QS| Relative density cutoff [a.u.]:                                        20.0
 QS| Interaction thresholds: eps_pgf_orb:                                3.2E-07
 QS|                         eps_filter_matrix:                          0.0E+00
 QS|                         eps_core_charge:                            1.0E-15
 QS|                         eps_rho_gspace:                             1.0E-13
 QS|                         eps_rho_rspace:                             1.0E-13
 QS|                         eps_gvg_rspace:                             3.2E-07
 QS|                         eps_ppl:                                    1.0E-02
 QS|                         eps_ppnl:                                   3.2E-09


 ATOMIC KIND INFORMATION

  1. Atomic kind: Pt                                    Number of atoms:     216

     Orbital Basis Set                      DZVP-A5-Q10-323-MOL-T1-DERIVED_SET-1

       Number of orbital shell sets:                                           1
       Number of orbital shells:                                               6
       Number of primitive Cartesian functions:                                5
       Number of Cartesian basis functions:                                   23
       Number of spherical basis functions:                                   20
       Norm type:                                                              2

       Normalised Cartesian orbitals:

                        Set   Shell   Orbital            Exponent    Coefficient

                          1       1    2s                2.521825       0.177473
                                                         1.453920      -0.063399
                                                         0.614053      -0.407089
                                                         0.232656       0.262254
                                                         0.074788       0.047371

                          1       2    3s                2.521825      -0.049056
                                                         1.453920       0.044904
                                                         0.614053      -0.009756
                                                         0.232656      -0.144709
                                                         0.074788       0.144085

                          1       3    3px               2.521825      -0.317572
                                                         1.453920       0.534826
                                                         0.614053      -0.489458
                                                         0.232656       0.245631
                                                         0.074788       0.018221
                          1       3    3py               2.521825      -0.317572
                                                         1.453920       0.534826
                                                         0.614053      -0.489458
                                                         0.232656       0.245631
                                                         0.074788       0.018221
                          1       3    3pz               2.521825      -0.317572
                                                         1.453920       0.534826
                                                         0.614053      -0.489458
                                                         0.232656       0.245631
                                                         0.074788       0.018221

                          1       4    4dx2              2.521825       3.008522
                                                         1.453920      -1.224251
                                                         0.614053       0.225691
                                                         0.232656       0.125144
                                                         0.074788      -0.015348
                          1       4    4dxy              2.521825       5.210912
                                                         1.453920      -2.120465
                                                         0.614053       0.390909
                                                         0.232656       0.216756
                                                         0.074788      -0.026584
                          1       4    4dxz              2.521825       5.210912
                                                         1.453920      -2.120465
                                                         0.614053       0.390909
                                                         0.232656       0.216756
                                                         0.074788      -0.026584
                          1       4    4dy2              2.521825       3.008522
                                                         1.453920      -1.224251
                                                         0.614053       0.225691
                                                         0.232656       0.125144
                                                         0.074788      -0.015348
                          1       4    4dyz              2.521825       5.210912
                                                         1.453920      -2.120465
                                                         0.614053       0.390909
                                                         0.232656       0.216756
                                                         0.074788      -0.026584
                          1       4    4dz2              2.521825       3.008522
                                                         1.453920      -1.224251
                                                         0.614053       0.225691
                                                         0.232656       0.125144
                                                         0.074788      -0.015348

                          1       5    5dx2              2.521825       0.698026
                                                         1.453920      -1.511486
                                                         0.614053      -0.335394
                                                         0.232656      -0.025564
                                                         0.074788      -0.002699
                          1       5    5dxy              2.521825       1.209017
                                                         1.453920      -2.617970
                                                         0.614053      -0.580920
                                                         0.232656      -0.044277
                                                         0.074788      -0.004674
                          1       5    5dxz              2.521825       1.209017
                                                         1.453920      -2.617970
                                                         0.614053      -0.580920
                                                         0.232656      -0.044277
                                                         0.074788      -0.004674
                          1       5    5dy2              2.521825       0.698026
                                                         1.453920      -1.511486
                                                         0.614053      -0.335394
                                                         0.232656      -0.025564
                                                         0.074788      -0.002699
                          1       5    5dyz              2.521825       1.209017
                                                         1.453920      -2.617970
                                                         0.614053      -0.580920
                                                         0.232656      -0.044277
                                                         0.074788      -0.004674
                          1       5    5dz2              2.521825       0.698026
                                                         1.453920      -1.511486
                                                         0.614053      -0.335394
                                                         0.232656      -0.025564
                                                         0.074788      -0.002699

                          1       6    6dx2              2.521825       0.831079
                                                         1.453920      -0.709226
                                                         0.614053      -0.137351
                                                         0.232656       0.068642
                                                         0.074788       0.011745
                          1       6    6dxy              2.521825       1.439472
                                                         1.453920      -1.228415
                                                         0.614053      -0.237899
                                                         0.232656       0.118891
                                                         0.074788       0.020343
                          1       6    6dxz              2.521825       1.439472
                                                         1.453920      -1.228415
                                                         0.614053      -0.237899
                                                         0.232656       0.118891
                                                         0.074788       0.020343
                          1       6    6dy2              2.521825       0.831079
                                                         1.453920      -0.709226
                                                         0.614053      -0.137351
                                                         0.232656       0.068642
                                                         0.074788       0.011745
                          1       6    6dyz              2.521825       1.439472
                                                         1.453920      -1.228415
                                                         0.614053      -0.237899
                                                         0.232656       0.118891
                                                         0.074788       0.020343
                          1       6    6dz2              2.521825       0.831079
                                                         1.453920      -0.709226
                                                         0.614053      -0.137351
                                                         0.232656       0.068642
                                                         0.074788       0.011745

       Atomic covalent radius [Angstrom]:                                  1.300

       Atomic van der Waals radius [Angstrom]:                             1.750

     GTH Potential information for                                   GTH-PBE-q10

       Description:                       Goedecker-Teter-Hutter pseudopotential
                                           Goedecker et al., PRB 54, 1703 (1996)
                                          Hartwigsen et al., PRB 58, 3641 (1998)
                                                      Krack, TCA 114, 145 (2005)

       Gaussian exponent of the core charge distribution:               1.317676
       Electronic configuration (s p d ...):                           1   0   9

       Parameters of the local part of the GTH pseudopotential:

                          rloc        C1          C2          C3          C4
                        0.616000   11.313635

       Parameters of the non-local part of the GTH pseudopotential:

                   l      r(l)      h(i,j,l)

                   0    0.550904    4.733491   -1.784594
                                   -1.784594    2.303901
                   1    0.674138    2.534798   -1.778066
                                   -1.778066    2.103836
                   2    0.457392   -7.264011    2.558665
                                    2.558665   -2.901253


 MOLECULE KIND INFORMATION


 All atoms are their own molecule, skipping detailed information


 TOTAL NUMBERS AND MAXIMUM NUMBERS

  Total number of            - Atomic kinds:                                   1
                             - Atoms:                                        216
                             - Shell sets:                                   216
                             - Shells:                                      1296
                             - Primitive Cartesian functions:               1080
                             - Cartesian basis functions:                   4968
                             - Spherical basis functions:                   4320

  Maximum angular momentum of- Orbital basis functions:                        2
                             - Local part of the GTH pseudopotential:          0
                             - Non-local part of the GTH pseudopotential:      4


 MODULE QUICKSTEP:  ATOMIC COORDINATES IN angstrom

 Atom  Kind  Element       X           Y           Z          Z(eff)       Mass
    1   1 Pt  78       2.061680    0.484470   19.799936      10.0000    195.0840
    2   1 Pt  78       4.871680    0.394470   19.779935      10.0000    195.0840
    3   1 Pt  78       7.651680    0.374470   19.669935      10.0000    195.0840
    4   1 Pt  78      10.611681    0.454470   20.069936      10.0000    195.0840
    5   1 Pt  78      13.431680    0.434470   19.889936      10.0000    195.0840
    6   1 Pt  78      16.161680    0.434470   19.629934      10.0000    195.0840
    7   1 Pt  78       3.481680    2.814470   19.839937      10.0000    195.0840
    8   1 Pt  78       6.311680    2.814470   19.879938      10.0000    195.0840
    9   1 Pt  78       9.081680    2.764470   20.019937      10.0000    195.0840
   10   1 Pt  78      12.001680    3.004470   20.099935      10.0000    195.0840
   11   1 Pt  78      14.761680    2.934470   19.809938      10.0000    195.0840
   12   1 Pt  78       0.691680    2.854470   20.039937      10.0000    195.0840
   13   1 Pt  78       4.871680    5.214470   19.899934      10.0000    195.0840
   14   1 Pt  78       7.621680    5.224470   19.969938      10.0000    195.0840
   15   1 Pt  78      10.391680    5.334470   19.949937      10.0000    195.0840
   16   1 Pt  78      13.531680    5.354470   20.059934      10.0000    195.0840
   17   1 Pt  78      -0.568320    5.314470   19.979936      10.0000    195.0840
   18   1 Pt  78       2.181680    5.234470   19.809938      10.0000    195.0840
   19   1 Pt  78       6.351680    7.744471   19.869935      10.0000    195.0840
   20   1 Pt  78       9.081680    7.694470   19.789934      10.0000    195.0840
   21   1 Pt  78      11.971681    7.874471   19.839937      10.0000    195.0840
   22   1 Pt  78      -1.948321    7.764471   20.059934      10.0000    195.0840
   23   1 Pt  78       0.751680    7.754470   19.979936      10.0000    195.0840
   24   1 Pt  78       3.631680    7.664470   19.879938      10.0000    195.0840
   25   1 Pt  78       7.841680   10.264471   19.979936      10.0000    195.0840
   26   1 Pt  78      10.621679   10.214471   19.789934      10.0000    195.0840
   27   1 Pt  78      -3.438321   10.274469   19.829934      10.0000    195.0840
   28   1 Pt  78      -0.648320   10.234470   19.829934      10.0000    195.0840
   29   1 Pt  78       2.261680   10.114470   19.989934      10.0000    195.0840
   30   1 Pt  78       4.861680   10.234470   19.989934      10.0000    195.0840
   31   1 Pt  78       9.051680   12.704470   19.929933      10.0000    195.0840
   32   1 Pt  78      -5.108320   12.564470   19.749936      10.0000    195.0840
   33   1 Pt  78      -2.098321   12.614470   19.729936      10.0000    195.0840
   34   1 Pt  78       0.711680   12.574470   19.999933      10.0000    195.0840
   35   1 Pt  78       3.461680   12.634470   19.929933      10.0000    195.0840
   36   1 Pt  78       6.251680   12.674470   19.779935      10.0000    195.0840
   37   1 Pt  78       0.661680    1.234470   22.159936      10.0000    195.0840
   38   1 Pt  78       3.541680    1.324470   22.109937      10.0000    195.0840
   39   1 Pt  78       6.301680    1.234470   22.279935      10.0000    195.0840
   40   1 Pt  78       9.001680    1.184470   22.299936      10.0000    195.0840
   41   1 Pt  78      11.861681    1.234470   22.289934      10.0000    195.0840
   42   1 Pt  78      14.601681    1.194470   22.229936      10.0000    195.0840
   43   1 Pt  78       2.051680    3.714470   22.279935      10.0000    195.0840
   44   1 Pt  78       4.881680    3.754470   22.189935      10.0000    195.0840
   45   1 Pt  78       7.711680    3.684470   22.309938      10.0000    195.0840
   46   1 Pt  78      10.481680    3.694470   22.329934      10.0000    195.0840
   47   1 Pt  78      13.271681    3.664470   22.369935      10.0000    195.0840
   48   1 Pt  78      -0.848320    3.714470   22.229936      10.0000    195.0840
   49   1 Pt  78       3.421680    6.054470   22.109937      10.0000    195.0840
   50   1 Pt  78       6.261680    6.114470   22.259935      10.0000    195.0840
   51   1 Pt  78       9.171680    6.114470   22.219934      10.0000    195.0840
   52   1 Pt  78      11.891681    6.094470   22.269933      10.0000    195.0840
   53   1 Pt  78      -2.188321    6.104470   22.439935      10.0000    195.0840
   54   1 Pt  78       0.651680    6.134470   22.249936      10.0000    195.0840
   55   1 Pt  78       4.851680    8.504471   22.339937      10.0000    195.0840
   56   1 Pt  78       7.671680    8.494471   22.249936      10.0000    195.0840
   57   1 Pt  78      10.491680    8.574470   22.059934      10.0000    195.0840
   58   1 Pt  78      -3.558320    8.494471   22.259935      10.0000    195.0840
   59   1 Pt  78      -0.668320    8.604470   22.209936      10.0000    195.0840
   60   1 Pt  78       2.091680    8.524470   22.249936      10.0000    195.0840
   61   1 Pt  78       6.191680   11.124470   22.269933      10.0000    195.0840
   62   1 Pt  78       9.001680   11.074470   22.219934      10.0000    195.0840
   63   1 Pt  78      -5.018320   11.014470   22.119935      10.0000    195.0840
   64   1 Pt  78      -2.098321   11.054470   22.209936      10.0000    195.0840
   65   1 Pt  78       0.701680   11.014470   22.269933      10.0000    195.0840
   66   1 Pt  78       3.421680   11.004471   22.379938      10.0000    195.0840
   67   1 Pt  78       7.661680   13.494471   22.259935      10.0000    195.0840
   68   1 Pt  78      -6.248321   13.414471   22.099935      10.0000    195.0840
   69   1 Pt  78      -3.568321   13.474470   22.149934      10.0000    195.0840
   70   1 Pt  78      -0.808320   13.514471   21.999936      10.0000    195.0840
   71   1 Pt  78       2.021680   13.434471   22.299936      10.0000    195.0840
   72   1 Pt  78       4.811680   13.464471   22.219934      10.0000    195.0840
   73   1 Pt  78      -7.888321   14.264470   24.479936      10.0000    195.0840
   74   1 Pt  78      -5.088321   14.254471   24.449937      10.0000    195.0840
   75   1 Pt  78      -2.228321   14.194470   24.519937      10.0000    195.0840
   76   1 Pt  78       0.501680   14.094471   24.509935      10.0000    195.0840
   77   1 Pt  78       3.421680   14.184470   24.649934      10.0000    195.0840
   78   1 Pt  78       6.201680   14.284470   24.689939      10.0000    195.0840
   79   1 Pt  78       1.981680    2.114470   24.479936      10.0000    195.0840
   80   1 Pt  78       4.801680    2.104470   24.549936      10.0000    195.0840
   81   1 Pt  78       7.661680    2.064470   24.629938      10.0000    195.0840
   82   1 Pt  78      10.411680    1.904470   24.549936      10.0000    195.0840
   83   1 Pt  78      13.311680    2.014470   24.629938      10.0000    195.0840
   84   1 Pt  78      -0.758320    1.954470   24.599935      10.0000    195.0840
   85   1 Pt  78       3.491680    4.554470   24.549936      10.0000    195.0840
   86   1 Pt  78       6.301680    4.544470   24.539934      10.0000    195.0840
   87   1 Pt  78       9.131679    4.514470   24.639936      10.0000    195.0840
   88   1 Pt  78      11.751680    4.454470   24.649934      10.0000    195.0840
   89   1 Pt  78      -2.218320    4.454470   24.669935      10.0000    195.0840
   90   1 Pt  78       0.591680    4.444470   24.549936      10.0000    195.0840
   91   1 Pt  78       4.811680    6.954470   24.579934      10.0000    195.0840
   92   1 Pt  78       7.621680    6.944470   24.559938      10.0000    195.0840
   93   1 Pt  78      10.361680    7.064470   24.539934      10.0000    195.0840
   94   1 Pt  78      -3.708321    6.904470   24.539934      10.0000    195.0840
   95   1 Pt  78      -0.828320    6.904470   24.589937      10.0000    195.0840
   96   1 Pt  78       1.991680    6.814470   24.569936      10.0000    195.0840
   97   1 Pt  78       6.231680    9.414471   24.579934      10.0000    195.0840
   98   1 Pt  78       9.051680    9.374470   24.439935      10.0000    195.0840
   99   1 Pt  78      -5.008320    9.394470   24.469934      10.0000    195.0840
  100   1 Pt  78      -2.178320    9.264470   24.559938      10.0000    195.0840
  101   1 Pt  78       0.671680    9.284470   24.599935      10.0000    195.0840
  102   1 Pt  78       3.331680    9.374470   24.659936      10.0000    195.0840
  103   1 Pt  78       7.591680   11.874471   24.629938      10.0000    195.0840
  104   1 Pt  78      -6.528320   11.834470   24.439935      10.0000    195.0840
  105   1 Pt  78      -3.608320   11.784470   24.539934      10.0000    195.0840
  106   1 Pt  78      -0.848320   11.714470   24.559938      10.0000    195.0840
  107   1 Pt  78       1.931680   11.764470   24.669935      10.0000    195.0840
  108   1 Pt  78       4.791680   11.864470   24.599935      10.0000    195.0840
  109   1 Pt  78       1.971680    0.484470   26.757934      10.0000    195.0840
  110   1 Pt  78       4.811680    0.314470   26.717934      10.0000    195.0840
  111   1 Pt  78       7.571680    0.374470   26.897934      10.0000    195.0840
  112   1 Pt  78      10.291680    0.444470   26.957934      10.0000    195.0840
  113   1 Pt  78      13.141681    0.354470   26.977934      10.0000    195.0840
  114   1 Pt  78      15.921680    0.424470   26.887934      10.0000    195.0840
  115   1 Pt  78       3.491680    2.774470   26.867934      10.0000    195.0840
  116   1 Pt  78       6.161680    2.904470   26.887934      10.0000    195.0840
  117   1 Pt  78       8.971680    2.954470   26.867934      10.0000    195.0840
  118   1 Pt  78      11.791681    2.734470   26.847934      10.0000    195.0840
  119   1 Pt  78      14.541680    2.824470   26.967934      10.0000    195.0840
  120   1 Pt  78       0.531680    2.714470   26.857934      10.0000    195.0840
  121   1 Pt  78       4.771680    5.324470   26.877934      10.0000    195.0840
  122   1 Pt  78       7.571680    5.414471   26.847934      10.0000    195.0840
  123   1 Pt  78      10.361680    5.354470   26.927934      10.0000    195.0840
  124   1 Pt  78      13.161680    5.214470   26.877934      10.0000    195.0840
  125   1 Pt  78      -0.838320    5.214470   26.817934      10.0000    195.0840
  126   1 Pt  78       2.001680    5.204470   26.827934      10.0000    195.0840
  127   1 Pt  78       6.201680    7.844470   26.807934      10.0000    195.0840
  128   1 Pt  78       9.021680    7.804470   26.897934      10.0000    195.0840
  129   1 Pt  78      11.811681    7.724470   26.827934      10.0000    195.0840
  130   1 Pt  78      -2.288320    7.604470   26.877934      10.0000    195.0840
  131   1 Pt  78       0.541680    7.634470   26.897934      10.0000    195.0840
  132   1 Pt  78       3.371680    7.674470   26.847934      10.0000    195.0840
  133   1 Pt  78       7.601680   10.244471   26.827934      10.0000    195.0840
  134   1 Pt  78      10.361680   10.164471   26.687934      10.0000    195.0840
  135   1 Pt  78      -3.628320   10.084471   26.757934      10.0000    195.0840
  136   1 Pt  78      -0.868320   10.044470   26.897934      10.0000    195.0840
  137   1 Pt  78       1.881680   10.154470   27.007934      10.0000    195.0840
  138   1 Pt  78       4.751680   10.164471   26.887934      10.0000    195.0840
  139   1 Pt  78       8.961680   12.644471   26.877934      10.0000    195.0840
  140   1 Pt  78      -5.148320   12.564470   26.577934      10.0000    195.0840
  141   1 Pt  78      -2.268320   12.524470   26.907934      10.0000    195.0840
  142   1 Pt  78       0.471680   12.534470   26.907934      10.0000    195.0840
  143   1 Pt  78       3.281680   12.574470   26.977934      10.0000    195.0840
  144   1 Pt  78       6.121680   12.574470   26.967934      10.0000    195.0840
  145   1 Pt  78       0.511680    1.024470   29.207934      10.0000    195.0840
  146   1 Pt  78       3.351680    1.014470   29.107934      10.0000    195.0840
  147   1 Pt  78       6.151680    1.254470   29.097934      10.0000    195.0840
  148   1 Pt  78       8.971680    1.284470   29.217934      10.0000    195.0840
  149   1 Pt  78      11.721680    1.204470   29.127934      10.0000    195.0840
  150   1 Pt  78      14.491680    1.204470   29.297934      10.0000    195.0840
  151   1 Pt  78       1.921680    3.544470   29.087934      10.0000    195.0840
  152   1 Pt  78       4.761680    3.614470   29.147934      10.0000    195.0840
  153   1 Pt  78       7.511680    3.654470   29.257934      10.0000    195.0840
  154   1 Pt  78      10.291680    3.704470   29.107934      10.0000    195.0840
  155   1 Pt  78      13.111681    3.724470   29.207934      10.0000    195.0840
  156   1 Pt  78      -0.758320    3.554470   29.237934      10.0000    195.0840
  157   1 Pt  78       3.401680    5.994470   29.107934      10.0000    195.0840
  158   1 Pt  78       6.201680    6.124470   29.097934      10.0000    195.0840
  159   1 Pt  78       8.921680    6.064470   29.267934      10.0000    195.0840
  160   1 Pt  78      11.851680    6.124470   29.267934      10.0000    195.0840
  161   1 Pt  78      -2.118321    6.054470   29.187934      10.0000    195.0840
  162   1 Pt  78       0.611680    5.934470   29.157934      10.0000    195.0840
  163   1 Pt  78       4.801680    8.624470   29.137934      10.0000    195.0840
  164   1 Pt  78       7.581680    8.574470   29.207934      10.0000    195.0840
  165   1 Pt  78      10.481680    8.434470   29.197934      10.0000    195.0840
  166   1 Pt  78      -3.498321    8.334471   29.167934      10.0000    195.0840
  167   1 Pt  78      -0.918321    8.474470   29.287934      10.0000    195.0840
  168   1 Pt  78       1.861680    8.504471   29.217934      10.0000    195.0840
  169   1 Pt  78       6.211680   10.994471   29.207934      10.0000    195.0840
  170   1 Pt  78       9.051680   10.984470   29.107934      10.0000    195.0840
  171   1 Pt  78      -5.058321   10.944470   29.027934      10.0000    195.0840
  172   1 Pt  78      -2.248320   10.954471   29.217934      10.0000    195.0840
  173   1 Pt  78       0.431680   10.974470   29.277934      10.0000    195.0840
  174   1 Pt  78       3.221680   10.884471   29.177934      10.0000    195.0840
  175   1 Pt  78       7.581680   13.334471   29.227934      10.0000    195.0840
  176   1 Pt  78      -6.408321   13.344470   29.037934      10.0000    195.0840
  177   1 Pt  78      -3.658321   13.384471   29.107934      10.0000    195.0840
  178   1 Pt  78      -0.868320   13.424471   29.187934      10.0000    195.0840
  179   1 Pt  78       1.781680   13.334471   29.157934      10.0000    195.0840
  180   1 Pt  78       4.671680   13.374471   29.247934      10.0000    195.0840
  181   1 Pt  78      -7.838321   14.204472   31.467934      10.0000    195.0840
  182   1 Pt  78      -5.128321   14.234470   31.397935      10.0000    195.0840
  183   1 Pt  78      -2.268320   14.224471   31.487934      10.0000    195.0840
  184   1 Pt  78       0.621680   14.294471   31.477934      10.0000    195.0840
  185   1 Pt  78       3.401680   14.184470   31.507934      10.0000    195.0840
  186   1 Pt  78       6.251680   14.154471   31.497934      10.0000    195.0840
  187   1 Pt  78       2.031680    2.004470   31.417934      10.0000    195.0840
  188   1 Pt  78       4.811680    1.964470   31.377934      10.0000    195.0840
  189   1 Pt  78       7.581680    2.094470   31.747934      10.0000    195.0840
  190   1 Pt  78      10.421680    2.184470   31.487934      10.0000    195.0840
  191   1 Pt  78      13.121679    2.064470   31.607934      10.0000    195.0840
  192   1 Pt  78      -0.888320    1.964470   31.567934      10.0000    195.0840
  193   1 Pt  78       3.331680    4.344470   31.447934      10.0000    195.0840
  194   1 Pt  78       6.071680    4.364470   31.567934      10.0000    195.0840
  195   1 Pt  78       8.971680    4.594470   31.607934      10.0000    195.0840
  196   1 Pt  78      11.691680    4.544470   31.627934      10.0000    195.0840
  197   1 Pt  78      -2.378320    4.554470   31.527934      10.0000    195.0840
  198   1 Pt  78       0.581680    4.314470   31.517934      10.0000    195.0840
  199   1 Pt  78       4.651680    6.944470   31.367934      10.0000    195.0840
  200   1 Pt  78       7.421680    6.934471   31.417934      10.0000    195.0840
  201   1 Pt  78      10.371680    6.934471   31.577934      10.0000    195.0840
  202   1 Pt  78      -3.638321    7.014470   31.547934      10.0000    195.0840
  203   1 Pt  78      -0.838320    6.844470   31.647934      10.0000    195.0840
  204   1 Pt  78       2.011680    6.844470   31.497934      10.0000    195.0840
  205   1 Pt  78       6.211680    9.424471   31.467934      10.0000    195.0840
  206   1 Pt  78       9.161680    9.294471   31.587934      10.0000    195.0840
  207   1 Pt  78      -4.948321    9.334471   31.367934      10.0000    195.0840
  208   1 Pt  78      -2.178320    9.274470   31.667934      10.0000    195.0840
  209   1 Pt  78       0.581680    9.214470   31.697934      10.0000    195.0840
  210   1 Pt  78       3.231680    9.424471   31.627934      10.0000    195.0840
  211   1 Pt  78       7.781680   11.734470   31.357934      10.0000    195.0840
  212   1 Pt  78      -6.418321   11.754471   31.457934      10.0000    195.0840
  213   1 Pt  78      -3.528320   11.764470   31.557934      10.0000    195.0840
  214   1 Pt  78      -0.718320   11.744471   31.847934      10.0000    195.0840
  215   1 Pt  78       1.991680   11.734470   31.647934      10.0000    195.0840
  216   1 Pt  78       4.641680   11.744471   31.487934      10.0000    195.0840




 SCF PARAMETERS         Density guess:                                   RESTART
                        --------------------------------------------------------
                        max_scf:                                             500
                        max_scf_history:                                       0
                        max_diis:                                              4
                        --------------------------------------------------------
                        eps_scf:                                        1.00E-06
                        eps_scf_history:                                0.00E+00
                        eps_diis:                                       1.00E-01
                        eps_eigval:                                     1.00E-05
                        --------------------------------------------------------
                        level_shift [a.u.]:                             0.000000
                        added MOs                                       500    0
                        --------------------------------------------------------
                        Mixing method:                            BROYDEN_MIXING
                                                charge density mixing in g-space
                        --------------------------------------------------------
                        Smear method:                                FERMI_DIRAC
                        Electronic temperature [K]:                        300.0
                        Electronic temperature [a.u.]:                  9.50E-04
                        Accuracy threshold:                             1.00E-10
                        --------------------------------------------------------
                        No outer SCF

 PW_GRID| Information for grid number                                          1
 PW_GRID| Grid distributed over                                    32 processors
 PW_GRID| Real space group dimensions                                    32    1
 PW_GRID| the grid is blocked:                                                NO
 PW_GRID| Cutoff [a.u.]                                                    200.0
 PW_GRID| spherical cutoff:                                                   NO
 PW_GRID|   Bounds   1           -105     104                Points:         210
 PW_GRID|   Bounds   2           -105     104                Points:         210
 PW_GRID|   Bounds   3           -315     314                Points:         630
 PW_GRID| Volume element (a.u.^3)  0.3081E-02     Volume (a.u.^3)     85609.9578
 PW_GRID| Grid span                                                    FULLSPACE
 PW_GRID|   Distribution                         Average         Max         Min
 PW_GRID|   G-Vectors                           868218.8      868350      868140
 PW_GRID|   G-Rays                                4134.4        4135        4134
 PW_GRID|   Real Space Points                   868218.8      926100      793800

 PW_GRID| Information for grid number                                          2
 PW_GRID| Number of the reference grid                                         1
 PW_GRID| Grid distributed over                                    32 processors
 PW_GRID| Real space group dimensions                                    32    1
 PW_GRID| the grid is blocked:                                                NO
 PW_GRID| Cutoff [a.u.]                                                     66.7
 PW_GRID| spherical cutoff:                                                   NO
 PW_GRID|   Bounds   1            -60      59                Points:         120
 PW_GRID|   Bounds   2            -60      59                Points:         120
 PW_GRID|   Bounds   3           -180     179                Points:         360
 PW_GRID| Volume element (a.u.^3)  0.1651E-01     Volume (a.u.^3)     85609.9578
 PW_GRID| Grid span                                                    FULLSPACE
 PW_GRID|   Distribution                         Average         Max         Min
 PW_GRID|   G-Vectors                           162000.0      162840      161280
 PW_GRID|   G-Rays                                1350.0        1357        1344
 PW_GRID|   Real Space Points                   162000.0      172800      129600

 PW_GRID| Information for grid number                                          3
 PW_GRID| Number of the reference grid                                         1
 PW_GRID| Grid distributed over                                    32 processors
 PW_GRID| Real space group dimensions                                    32    1
 PW_GRID| the grid is blocked:                                                NO
 PW_GRID| Cutoff [a.u.]                                                     22.2
 PW_GRID| spherical cutoff:                                                   NO
 PW_GRID|   Bounds   1            -35      34                Points:          70
 PW_GRID|   Bounds   2            -35      34                Points:          70
 PW_GRID|   Bounds   3           -105     104                Points:         210
 PW_GRID| Volume element (a.u.^3)  0.8320E-01     Volume (a.u.^3)     85609.9578
 PW_GRID| Grid span                                                    FULLSPACE
 PW_GRID|   Distribution                         Average         Max         Min
 PW_GRID|   G-Vectors                            32156.2       32340       31990
 PW_GRID|   G-Rays                                 459.4         462         457
 PW_GRID|   Real Space Points                    32156.2       44100       29400

 PW_GRID| Information for grid number                                          4
 PW_GRID| Number of the reference grid                                         1
 PW_GRID| Grid distributed over                                    32 processors
 PW_GRID| Real space group dimensions                                    32    1
 PW_GRID| the grid is blocked:                                                NO
 PW_GRID| Cutoff [a.u.]                                                      7.4
 PW_GRID| spherical cutoff:                                                   NO
 PW_GRID|   Bounds   1            -20      19                Points:          40
 PW_GRID|   Bounds   2            -20      19                Points:          40
 PW_GRID|   Bounds   3            -60      59                Points:         120
 PW_GRID| Volume element (a.u.^3)  0.4459         Volume (a.u.^3)     85609.9578
 PW_GRID| Grid span                                                    FULLSPACE
 PW_GRID|   Distribution                         Average         Max         Min
 PW_GRID|   G-Vectors                             6000.0        6120        5920
 PW_GRID|   G-Rays                                 150.0         153         148
 PW_GRID|   Real Space Points                     6000.0        9600        4800

 POISSON| Solver                                          IMPLICIT (GENERALIZED)
 POISSON| Boundary Condition                                PERIODIC & DIRICHLET
 POISSON| Maximum number of iterations                                        30
 POISSON| Convergence threshold                                         1.00E-08
 POISSON| Dielectric Constant                                              80.00
 POISSON| Relaxation parameter                                          1.00E+00

 RS_GRID| Information for grid number                                          1
 RS_GRID|   Bounds   1           -105     104                Points:         210
 RS_GRID|   Bounds   2           -105     104                Points:         210
 RS_GRID|   Bounds   3           -315     314                Points:         630
 RS_GRID| Real space distribution over                                 32 groups
 RS_GRID| Real space distribution along direction                              3
 RS_GRID| Border size                                                         54
 RS_GRID|   Distribution                         Average         Max         Min
 RS_GRID|   Planes                                 127.7         128         127

 RS_GRID| Information for grid number                                          2
 RS_GRID|   Bounds   1            -60      59                Points:         120
 RS_GRID|   Bounds   2            -60      59                Points:         120
 RS_GRID|   Bounds   3           -180     179                Points:         360
 RS_GRID| Real space distribution over                                 32 groups
 RS_GRID| Real space distribution along direction                              3
 RS_GRID| Border size                                                         36
 RS_GRID|   Distribution                         Average         Max         Min
 RS_GRID|   Planes                                  83.2          84          83

 RS_GRID| Information for grid number                                          3
 RS_GRID|   Bounds   1            -35      34                Points:          70
 RS_GRID|   Bounds   2            -35      34                Points:          70
 RS_GRID|   Bounds   3           -105     104                Points:         210
 RS_GRID| Real space fully replicated
 RS_GRID| Group size                                                           1

 RS_GRID| Information for grid number                                          4
 RS_GRID|   Bounds   1            -20      19                Points:          40
 RS_GRID|   Bounds   2            -20      19                Points:          40
 RS_GRID|   Bounds   3            -60      59                Points:         120
 RS_GRID| Real space fully replicated
 RS_GRID| Group size                                                           1

 Number of electrons:                                                       2160
 Number of occupied orbitals:                                               1080
 Number of molecular orbitals:                                              1580

 Number of orbital functions:                                               4320
 Number of independent orbital functions:                                   4320

 Extrapolation method: initial_guess


 SCF WAVEFUNCTION OPTIMIZATION

  Step     Update method      Time    Convergence         Total energy    Change
  ------------------------------------------------------------------------------

  POISSON| IMPLICIT (GENERALIZED) SOLVER ---------------------------------------
  POISSON| Preparing Dirichlet regions ...
  POISSON| Dirichlet region    1
  POISSON|     type : axis-aligned planar
  POISSON|     applied potential :   0.0000E+00  [Eh/e]
  POISSON| Dirichlet region    2
  POISSON|     type : axis-aligned planar
  POISSON|     applied potential :   0.0000E+00  [Eh/e]
  POISSON| ... Done. 
  ------------------------------------------------------------------------------

  POISSON|   iter        pres error      nabs error        E_hartree    delta E
  POISSON|      1        0.1954E-05      0.3304E-01    1992.2035737878  0.20E+04
  POISSON|      2        0.1251E-14      0.1954E-05    1992.2035737878  0.23E-10
  POISSON| Poisson solver converged in 2 iterations.
     1 NoMix/Diag. 0.30E+00   11.0     0.21542095     -5670.7398277452 -5.67E+03
  POISSON|   iter        pres error      nabs error        E_hartree    delta E
  POISSON|      1        0.1679E-04      0.3280E-01    1992.0815765238 -0.12E+00
  POISSON|      2        0.1113E-14      0.1679E-04    1992.0815765238  0.23E-10
  POISSON| Poisson solver converged in 2 iterations.
     2 Broy./Diag. 0.30E+00   13.2     0.22727559     -5670.7601773626 -2.03E-02
  POISSON|   iter        pres error      nabs error        E_hartree    delta E
  POISSON|      1        0.3949E-04      0.3458E-03    1992.3001945503  0.22E+00
  POISSON|      2        0.1706E-16      0.3949E-04    1992.3001945503  0.14E-11
  POISSON| Poisson solver converged in 2 iterations.
     3 Broy./Diag. 0.30E+00   13.2     0.10926271     -5676.2754763342 -5.52E+00
  POISSON|   iter        pres error      nabs error        E_hartree    delta E
  POISSON|      1        0.7887E-04      0.3178E-03    1992.3568889144  0.57E-01
  POISSON|      2        0.8493E-17      0.7887E-04    1992.3568889144  0.91E-12
  POISSON| Poisson solver converged in 2 iterations.
     4 Broy./Diag. 0.30E+00   13.3     0.14653178     -5673.1592057244  3.12E+00
  POISSON|   iter        pres error      nabs error        E_hartree    delta E
  POISSON|      1        0.6438E-04      0.2580E-03    1992.4578794965  0.10E+00
  POISSON|      2        0.4696E-17      0.6438E-04    1992.4578794965  0.11E-11
  POISSON| Poisson solver converged in 2 iterations.
     5 Broy./Diag. 0.30E+00   13.3     0.12781348     -5672.0394441410  1.12E+00
  POISSON|   iter        pres error      nabs error        E_hartree    delta E
  POISSON|      1        0.6584E-05      0.4954E-04    1992.5833963690  0.13E+00
  POISSON|      2        0.1261E-18      0.6584E-05    1992.5833963690  0.00E+00
  POISSON| Poisson solver converged in 2 iterations.
     6 Broy./Diag. 0.30E+00   13.4     0.03086955     -5672.7883872562 -7.49E-01
  POISSON|   iter        pres error      nabs error        E_hartree    delta E
  POISSON|      1        0.3296E-06      0.3438E-04    1992.6971142575  0.11E+00
  POISSON|      2        0.1525E-18      0.3296E-06    1992.6971142575 -0.23E-12
  POISSON| Poisson solver converged in 2 iterations.
     7 Broy./Diag. 0.30E+00   13.4     0.03165590     -5672.4087900520  3.80E-01
  POISSON|   iter        pres error      nabs error        E_hartree    delta E
  POISSON|      1        0.1537E-05      0.3046E-04    1992.7754155264  0.78E-01
  POISSON|      2        0.1226E-17      0.1537E-05    1992.7754155264 -0.45E-12
  POISSON| Poisson solver converged in 2 iterations.
     8 Broy./Diag. 0.30E+00   13.4     0.02086729     -5672.1238762112  2.85E-01
  POISSON|   iter        pres error      nabs error        E_hartree    delta E
  POISSON|      1        0.9360E-06      0.1188E-04    1992.8094868734  0.34E-01
  POISSON|      2        0.1418E-18      0.9360E-06    1992.8094868734 -0.45E-12
  POISSON| Poisson solver converged in 2 iterations.
     9 Broy./Diag. 0.30E+00   13.5     0.01525006     -5672.3135365634 -1.90E-01
  POISSON|   iter        pres error      nabs error        E_hartree    delta E
  POISSON|      1        0.3166E-06      0.5081E-05    1992.8210885113  0.12E-01
  POISSON|      2        0.4392E-20      0.3166E-06    1992.8210885113 -0.45E-12
  POISSON| Poisson solver converged in 2 iterations.
    10 Broy./Diag. 0.30E+00   13.5     0.00429951     -5672.2353473893  7.82E-02
  POISSON|   iter        pres error      nabs error        E_hartree    delta E
  POISSON|      1        0.2545E-06      0.5056E-05    1992.8277996002  0.67E-02
  POISSON|      2        0.1039E-18      0.2545E-06    1992.8277996002  0.00E+00
  POISSON| Poisson solver converged in 2 iterations.
    11 Broy./Diag. 0.30E+00   13.5     0.00343669     -5672.2069672399  2.84E-02
  POISSON|   iter        pres error      nabs error        E_hartree    delta E
  POISSON|      1        0.5564E-07      0.5276E-05    1992.8340841010  0.63E-02
  POISSON|      2        0.1762E-18      0.5564E-07    1992.8340841010  0.23E-12
  POISSON| Poisson solver converged in 2 iterations.
    12 Broy./Diag. 0.30E+00   13.6     0.00224942     -5672.2114199727 -4.45E-03
  POISSON|   iter        pres error      nabs error        E_hartree    delta E
  POISSON|      1        0.2162E-06      0.3023E-05    1992.8389729516  0.49E-02
  POISSON|      2        0.1722E-19      0.2162E-06    1992.8389729516 -0.23E-12
  POISSON| Poisson solver converged in 2 iterations.
    13 Broy./Diag. 0.30E+00   13.5     0.00131112     -5672.2339104029 -2.25E-02
  POISSON|   iter        pres error      nabs error        E_hartree    delta E
  POISSON|      1        0.1458E-06      0.1568E-05    1992.8396380054  0.67E-03
  POISSON|      2        0.4173E-19      0.1458E-06    1992.8396380054 -0.23E-12
  POISSON| Poisson solver converged in 2 iterations.
    14 Broy./Diag. 0.30E+00   13.7     0.00071014     -5672.2189277515  1.50E-02
  POISSON|   iter        pres error      nabs error        E_hartree    delta E
  POISSON|      1        0.4211E-06      0.2504E-05    1992.8406818885  0.10E-02
  POISSON|      2        0.8234E-19      0.4211E-06    1992.8406818885  0.00E+00
  POISSON| Poisson solver converged in 2 iterations.
    15 Broy./Diag. 0.30E+00   13.6     0.00110036     -5672.2248694358 -5.94E-03
  POISSON|   iter        pres error      nabs error        E_hartree    delta E
  POISSON|      1        0.6991E-06      0.2850E-05    1992.8404805070 -0.20E-03
  POISSON|      2        0.6293E-20      0.6991E-06    1992.8404805070  0.23E-12
  POISSON| Poisson solver converged in 2 iterations.
    16 Broy./Diag. 0.30E+00   13.5     0.00133198     -5672.2261161842 -1.25E-03
  POISSON|   iter        pres error      nabs error        E_hartree    delta E
  POISSON|      1        0.1120E-06      0.2006E-05    1992.8411781030  0.70E-03
  POISSON|      2        0.6445E-19      0.1120E-06    1992.8411781030  0.00E+00
  POISSON| Poisson solver converged in 2 iterations.
    17 Broy./Diag. 0.30E+00   13.6     0.00081449     -5672.2319778880 -5.86E-03
  POISSON|   iter        pres error      nabs error        E_hartree    delta E
  POISSON|      1        0.8972E-07      0.1178E-05    1992.8418082506  0.63E-03
  POISSON|      2        0.3217E-19      0.8972E-07    1992.8418082506 -0.23E-12
  POISSON| Poisson solver converged in 2 iterations.
    18 Broy./Diag. 0.30E+00   13.5     0.00026460     -5672.2294805059  2.50E-03
  POISSON|   iter        pres error      nabs error        E_hartree    delta E
  POISSON|      1        0.4749E-07      0.9521E-06    1992.8420623752  0.25E-03
  POISSON|      2        0.3993E-19      0.4749E-07    1992.8420623752 -0.23E-12
  POISSON| Poisson solver converged in 2 iterations.
    19 Broy./Diag. 0.30E+00   13.5     0.00020391     -5672.2287073549  7.73E-04
  POISSON|   iter        pres error      nabs error        E_hartree    delta E
  POISSON|      1        0.5082E-07      0.9353E-06    1992.8425388038  0.48E-03
  POISSON|      2        0.3531E-19      0.5082E-07    1992.8425388038  0.00E+00
  POISSON| Poisson solver converged in 2 iterations.
    20 Broy./Diag. 0.30E+00   13.5     0.00016985     -5672.2319468283 -3.24E-03
  POISSON|   iter        pres error      nabs error        E_hartree    delta E
  POISSON|      1        0.6944E-07      0.9283E-06    1992.8431071413  0.57E-03
  POISSON|      2        0.3073E-19      0.6944E-07    1992.8431071413  0.00E+00
  POISSON| Poisson solver converged in 2 iterations.
    21 Broy./Diag. 0.30E+00   13.5     0.00013659     -5672.2319573152 -1.05E-05
  POISSON|   iter        pres error      nabs error        E_hartree    delta E
  POISSON|      1        0.7498E-07      0.1191E-05    1992.8436805368  0.57E-03
  POISSON|      2        0.4835E-19      0.7498E-07    1992.8436805368  0.23E-12
  POISSON| Poisson solver converged in 2 iterations.
    22 Broy./Diag. 0.30E+00   13.5     0.00014195     -5672.2304483634  1.51E-03
  POISSON|   iter        pres error      nabs error        E_hartree    delta E
  POISSON|      1        0.3443E-07      0.7905E-06    1992.8440009412  0.32E-03
  POISSON|      2        0.3386E-19      0.3443E-07    1992.8440009412  0.23E-12
  POISSON| Poisson solver converged in 2 iterations.
    23 Broy./Diag. 0.30E+00   13.6     0.00012043     -5672.2309997499 -5.51E-04
  POISSON|   iter        pres error      nabs error        E_hartree    delta E
  POISSON|      1        0.4823E-07      0.6943E-06    1992.8443423892  0.34E-03
  POISSON|      2        0.2399E-19      0.4823E-07    1992.8443423892  0.00E+00
  POISSON| Poisson solver converged in 2 iterations.
    24 Broy./Diag. 0.30E+00   13.6     0.00008156     -5672.2327557250 -1.76E-03
  POISSON|   iter        pres error      nabs error        E_hartree    delta E
  POISSON|      1        0.6475E-07      0.5530E-06    1992.8444933655  0.15E-03
  POISSON|      2        0.1805E-19      0.6475E-07    1992.8444933655 -0.23E-12
  POISSON| Poisson solver converged in 2 iterations.
    25 Broy./Diag. 0.30E+00   13.5     0.00012172     -5672.2318210744  9.35E-04
  POISSON|   iter        pres error      nabs error        E_hartree    delta E
  POISSON|      1        0.7171E-07      0.3734E-06    1992.8445922732  0.99E-04
  POISSON|      2        0.1218E-19      0.7171E-07    1992.8445922732  0.00E+00
  POISSON| Poisson solver converged in 2 iterations.
    26 Broy./Diag. 0.30E+00   13.5     0.00016356     -5672.2323157635 -4.95E-04
  POISSON|   iter        pres error      nabs error        E_hartree    delta E
  POISSON|      1        0.9058E-07      0.8609E-06    1992.8447574772  0.17E-03
  POISSON|      2        0.3216E-19      0.9058E-07    1992.8447574772  0.00E+00
  POISSON| Poisson solver converged in 2 iterations.
    27 Broy./Diag. 0.30E+00   13.6     0.00014153     -5672.2321070586  2.09E-04
  POISSON|   iter        pres error      nabs error        E_hartree    delta E
  POISSON|      1        0.1809E-07      0.5057E-06    1992.8448578063  0.10E-03
  POISSON|      2        0.2103E-19      0.1809E-07    1992.8448578063  0.00E+00
  POISSON| Poisson solver converged in 2 iterations.
    28 Broy./Diag. 0.30E+00   13.4     0.00005950     -5672.2332567216 -1.15E-03
  POISSON|   iter        pres error      nabs error        E_hartree    delta E
  POISSON|      1        0.1688E-07      0.3461E-06    1992.8449369522  0.79E-04
  POISSON|      2        0.1321E-19      0.1688E-07    1992.8449369522 -0.23E-12
  POISSON| Poisson solver converged in 2 iterations.
    29 Broy./Diag. 0.30E+00   13.5     0.00005171     -5672.2333269206 -7.02E-05
  POISSON|   iter        pres error      nabs error        E_hartree    delta E
  POISSON|      1        0.1528E-07      0.4054E-06    1992.8449434100  0.65E-05
  POISSON|      2        0.1871E-19      0.1528E-07    1992.8449434100  0.45E-12
  POISSON| Poisson solver converged in 2 iterations.
    30 Broy./Diag. 0.30E+00   13.5     0.00004454     -5672.2328358823  4.91E-04
  POISSON|   iter        pres error      nabs error        E_hartree    delta E
  POISSON|      1        0.1118E-07      0.4063E-06    1992.8449552640  0.12E-04
  POISSON|      2        0.1937E-19      0.1118E-07    1992.8449552640  0.00E+00
  POISSON| Poisson solver converged in 2 iterations.
    31 Broy./Diag. 0.30E+00   13.5     0.00003103     -5672.2336040596 -7.68E-04
  POISSON|   iter        pres error      nabs error        E_hartree    delta E
  POISSON|      1        0.1189E-07      0.3490E-06    1992.8449960315  0.41E-04
  POISSON|      2        0.1538E-19      0.1189E-07    1992.8449960315 -0.23E-12
  POISSON| Poisson solver converged in 2 iterations.
    32 Broy./Diag. 0.30E+00   13.5     0.00003314     -5672.2340170491 -4.13E-04
  POISSON|   iter        pres error      nabs error        E_hartree    delta E
  POISSON|      1        0.5191E-08      0.1796E-06    1992.8450070142  0.11E-04
  POISSON| Poisson solver converged in 1 iteration. 
    33 Broy./Diag. 0.30E+00   12.1     0.00003245     -5672.2338723826  1.45E-04
  POISSON|   iter        pres error      nabs error        E_hartree    delta E
  POISSON|      1        0.2533E-08      0.2490E-06    1992.8450294239  0.22E-04
  POISSON| Poisson solver converged in 1 iteration. 
    34 Broy./Diag. 0.30E+00   12.1     0.00002639     -5672.2336099328  2.62E-04
  POISSON|   iter        pres error      nabs error        E_hartree    delta E
  POISSON|      1        0.2901E-08      0.2110E-06    1992.8450726723  0.43E-04
  POISSON| Poisson solver converged in 1 iteration. 
    35 Broy./Diag. 0.30E+00   12.1     0.00003025     -5672.2340855162 -4.76E-04
  POISSON|   iter        pres error      nabs error        E_hartree    delta E
  POISSON|      1        0.2044E-07      0.1069E-06    1992.8450659851 -0.67E-05
  POISSON|      2        0.4210E-20      0.2044E-07    1992.8450659851  0.00E+00
  POISSON| Poisson solver converged in 2 iterations.
    36 Broy./Diag. 0.30E+00   13.5     0.00004373     -5672.2339491031  1.36E-04
  POISSON|   iter        pres error      nabs error        E_hartree    delta E
  POISSON|      1        0.1001E-07      0.2420E-06    1992.8451258934  0.60E-04
  POISSON|      2        0.1263E-19      0.1001E-07    1992.8451258934  0.00E+00
  POISSON| Poisson solver converged in 2 iterations.
    37 Broy./Diag. 0.30E+00   13.8     0.00003572     -5672.2339386463  1.05E-05
  POISSON|   iter        pres error      nabs error        E_hartree    delta E
  POISSON|      1        0.4654E-08      0.1320E-06    1992.8451658078  0.40E-04
  POISSON| Poisson solver converged in 1 iteration. 
    38 Broy./Diag. 0.30E+00   12.1     0.00001493     -5672.2337749268  1.64E-04
  POISSON|   iter        pres error      nabs error        E_hartree    delta E
  POISSON|      1        0.1158E-08      0.9878E-07    1992.8451896092  0.24E-04
  POISSON| Poisson solver converged in 1 iteration. 
    39 Broy./Diag. 0.30E+00   12.1     0.00001669     -5672.2338266046 -5.17E-05
  POISSON|   iter        pres error      nabs error        E_hartree    delta E
  POISSON|      1        0.1640E-08      0.1123E-06    1992.8452328658  0.43E-04
  POISSON| Poisson solver converged in 1 iteration. 
    40 Broy./Diag. 0.30E+00   12.2     0.00001401     -5672.2339461707 -1.20E-04
  POISSON|   iter        pres error      nabs error        E_hartree    delta E
  POISSON|      1        0.2746E-08      0.1279E-06    1992.8452646363  0.32E-04
  POISSON| Poisson solver converged in 1 iteration. 
    41 Broy./Diag. 0.30E+00   12.2     0.00000791     -5672.2337179945  2.28E-04
  POISSON|   iter        pres error      nabs error        E_hartree    delta E
  POISSON|      1        0.1796E-08      0.1003E-06    1992.8452778607  0.13E-04
  POISSON| Poisson solver converged in 1 iteration. 
    42 Broy./Diag. 0.30E+00   12.1     0.00000822     -5672.2337325966 -1.46E-05
  POISSON|   iter        pres error      nabs error        E_hartree    delta E
  POISSON|      1        0.1529E-08      0.1108E-06    1992.8452862732  0.84E-05
  POISSON| Poisson solver converged in 1 iteration. 
    43 Broy./Diag. 0.30E+00   12.1     0.00001118     -5672.2338395130 -1.07E-04
  POISSON|   iter        pres error      nabs error        E_hartree    delta E
  POISSON|      1        0.2607E-08      0.6669E-07    1992.8452929829  0.67E-05
  POISSON| Poisson solver converged in 1 iteration. 
    44 Broy./Diag. 0.30E+00   12.1     0.00000983     -5672.2339043003 -6.48E-05
  POISSON|   iter        pres error      nabs error        E_hartree    delta E
  POISSON|      1        0.3278E-08      0.1340E-06    1992.8452909334 -0.20E-05
  POISSON| Poisson solver converged in 1 iteration. 
    45 Broy./Diag. 0.30E+00   12.2     0.00000806     -5672.2337605034  1.44E-04
  POISSON|   iter        pres error      nabs error        E_hartree    delta E
  POISSON|      1        0.1080E-07      0.8076E-07    1992.8452838852 -0.70E-05
  POISSON|      2        0.2902E-20      0.1080E-07    1992.8452838852 -0.23E-12
  POISSON| Poisson solver converged in 2 iterations.
    46 Broy./Diag. 0.30E+00   13.5     0.00001836     -5672.2339075670 -1.47E-04
  POISSON|   iter        pres error      nabs error        E_hartree    delta E
  POISSON|      1        0.9520E-08      0.1530E-06    1992.8452845944  0.71E-06
  POISSON| Poisson solver converged in 1 iteration. 
    47 Broy./Diag. 0.30E+00   12.2     0.00001487     -5672.2338747477  3.28E-05
  POISSON|   iter        pres error      nabs error        E_hartree    delta E
  POISSON|      1        0.8885E-09      0.7856E-07    1992.8452816855 -0.29E-05
  POISSON| Poisson solver converged in 1 iteration. 
    48 Broy./Diag. 0.30E+00   12.2     0.00000767     -5672.2339378758 -6.31E-05
  POISSON|   iter        pres error      nabs error        E_hartree    delta E
  POISSON|      1        0.1385E-08      0.4419E-07    1992.8452823968  0.71E-06
  POISSON| Poisson solver converged in 1 iteration. 
    49 Broy./Diag. 0.30E+00   12.1     0.00000771     -5672.2339349210  2.95E-06
  POISSON|   iter        pres error      nabs error        E_hartree    delta E
  POISSON|      1        0.1354E-08      0.6916E-07    1992.8452820535 -0.34E-06
  POISSON| Poisson solver converged in 1 iteration. 
    50 Broy./Diag. 0.30E+00   12.1     0.00000592     -5672.2338934659  4.15E-05
  POISSON|   iter        pres error      nabs error        E_hartree    delta E
  POISSON|      1        0.6365E-09      0.5477E-07    1992.8452872466  0.52E-05
  POISSON| Poisson solver converged in 1 iteration. 
    51 Broy./Diag. 0.30E+00   12.1     0.00000338     -5672.2339860211 -9.26E-05
  POISSON|   iter        pres error      nabs error        E_hartree    delta E
  POISSON|      1        0.2360E-09      0.3730E-07    1992.8452949570  0.77E-05
  POISSON| Poisson solver converged in 1 iteration. 
    52 Broy./Diag. 0.30E+00   12.2     0.00000251     -5672.2339588164  2.72E-05
  POISSON|   iter        pres error      nabs error        E_hartree    delta E
  POISSON|      1        0.3407E-10      0.4447E-07    1992.8453062268  0.11E-04
  POISSON| Poisson solver converged in 1 iteration. 
    53 Broy./Diag. 0.30E+00   12.1     0.00000339     -5672.2339284573  3.04E-05
  POISSON|   iter        pres error      nabs error        E_hartree    delta E
  POISSON|      1        0.5232E-09      0.1689E-07    1992.8453109987  0.48E-05
  POISSON| Poisson solver converged in 1 iteration. 
    54 Broy./Diag. 0.30E+00   12.1     0.00000363     -5672.2339310458 -2.59E-06
  POISSON|   iter        pres error      nabs error        E_hartree    delta E
  POISSON|      1        0.1950E-09      0.3574E-07    1992.8453237820  0.13E-04
  POISSON| Poisson solver converged in 1 iteration. 
    55 Broy./Diag. 0.30E+00   12.1     0.00000296     -5672.2339766307 -4.56E-05
  POISSON|   iter        pres error      nabs error        E_hartree    delta E
  POISSON|      1        0.1289E-08      0.1450E-07    1992.8453251429  0.14E-05
  POISSON| Poisson solver converged in 1 iteration. 
    56 Broy./Diag. 0.30E+00   12.2     0.00000390     -5672.2339227183  5.39E-05
  POISSON|   iter        pres error      nabs error        E_hartree    delta E
  POISSON|      1        0.1303E-08      0.1560E-07    1992.8453306697  0.55E-05
  POISSON| Poisson solver converged in 1 iteration. 
    57 Broy./Diag. 0.30E+00   12.1     0.00000243     -5672.2339325173 -9.80E-06
  POISSON|   iter        pres error      nabs error        E_hartree    delta E
  POISSON|      1        0.5292E-09      0.1691E-07    1992.8453333618  0.27E-05
  POISSON| Poisson solver converged in 1 iteration. 
    58 Broy./Diag. 0.30E+00   12.2     0.00000192     -5672.2339368019 -4.28E-06
  POISSON|   iter        pres error      nabs error        E_hartree    delta E
  POISSON|      1        0.4566E-09      0.1033E-07    1992.8453344799  0.11E-05
  POISSON| Poisson solver converged in 1 iteration. 
    59 Broy./Diag. 0.30E+00   12.1     0.00000193     -5672.2339422765 -5.47E-06
  POISSON|   iter        pres error      nabs error        E_hartree    delta E
  POISSON|      1        0.2096E-09      0.7783E-08    1992.8453356252  0.11E-05
  POISSON| Poisson solver converged in 1 iteration. 
    60 Broy./Diag. 0.30E+00   12.1     0.00000129     -5672.2339497096 -7.43E-06
  POISSON|   iter        pres error      nabs error        E_hartree    delta E
  POISSON|      1        0.1920E-09      0.1082E-07    1992.8453353180 -0.31E-06
  POISSON| Poisson solver converged in 1 iteration. 
    61 Broy./Diag. 0.30E+00   12.2     0.00000086     -5672.2339372687  1.24E-05

  *** SCF run converged in    61 steps ***


  Electronic density on regular grids:      -2159.9999999992        0.0000000008
  Core density on regular grids:             2159.9999999995       -0.0000000005
  Total charge density on r-space grids:        0.0000000003
  Total charge density g-space grids:           0.0000000003

  Overlap energy of the core charge distribution:               0.00003370435679
  Self energy of the core charge distribution:              -9891.63555570741482
  Core Hamiltonian energy:                                   3202.49817876849738
  Hartree energy:                                            1992.84533531798593
  Electric enthalpy:                                         1992.84533531797911
  Exchange-correlation energy:                               -971.20666272357448
  Dispersion energy:                                           -4.70283319058055
  Electronic entropic energy:                                  -0.03243338915462
  Fermi energy:                                                -0.20822628563196

  Total energy:                                             -5672.23393726867380

 The electron density is written in cube file format to the file:

 cp2k-ELECTRON_DENSITY-1_0.cube

 !-----------------------------------------------------------------------------!
                     Mulliken Population Analysis

 #  Atom  Element  Kind  Atomic population                           Net charge
       1     Pt       1         10.033156                             -0.033156
       2     Pt       1         10.052425                             -0.052425
       3     Pt       1         10.027244                             -0.027244
       4     Pt       1         10.077357                             -0.077357
       5     Pt       1         10.031031                             -0.031031
       6     Pt       1         10.020472                             -0.020472
       7     Pt       1         10.028260                             -0.028260
       8     Pt       1         10.032799                             -0.032799
       9     Pt       1         10.066054                             -0.066054
      10     Pt       1         10.077577                             -0.077577
      11     Pt       1         10.040262                             -0.040262
      12     Pt       1         10.048020                             -0.048020
      13     Pt       1         10.038106                             -0.038106
      14     Pt       1         10.050331                             -0.050331
      15     Pt       1         10.053857                             -0.053857
      16     Pt       1         10.075836                             -0.075836
      17     Pt       1         10.046664                             -0.046664
      18     Pt       1         10.040987                             -0.040987
      19     Pt       1         10.056089                             -0.056089
      20     Pt       1         10.047570                             -0.047570
[...]
    191      1      Pt          0.00856685     0.00157092    -0.01046289
    192      1      Pt         -0.00239084     0.00801757    -0.00099120
    193      1      Pt          0.00228657     0.01294457    -0.00048299
    194      1      Pt          0.00891709     0.01502264    -0.00523210
    195      1      Pt         -0.00977132    -0.01249580     0.00064623
    196      1      Pt          0.01032684    -0.00043775    -0.00825899
    197      1      Pt          0.00814324    -0.01128454    -0.00299330
    198      1      Pt         -0.00609725     0.01318517     0.00090149
    199      1      Pt          0.01540891    -0.00010670     0.00154988
    200      1      Pt          0.00727271    -0.00224894     0.01393543
    201      1      Pt          0.00338864    -0.00311014     0.00055371
    202      1      Pt         -0.00233988    -0.02069564     0.00569680
    203      1      Pt          0.00652077    -0.00459384    -0.00930299
    204      1      Pt         -0.01566542    -0.00229954    -0.00370801
    205      1      Pt         -0.00562552    -0.00552722     0.00265525
    206      1      Pt         -0.01567480     0.00940991    -0.01187382
    207      1      Pt         -0.00429369     0.01168749     0.00664355
    208      1      Pt          0.00522983     0.01841764    -0.00366585
    209      1      Pt         -0.00852641     0.00790850    -0.00414765
    210      1      Pt          0.02085408    -0.02086953    -0.00957112
    211      1      Pt         -0.01616898    -0.00526143     0.02793105
    212      1      Pt          0.01836897    -0.00197677    -0.00308848
    213      1      Pt         -0.00559869    -0.00091516    -0.01101269
    214      1      Pt         -0.00895008     0.00011622    -0.02054910
    215      1      Pt         -0.01508838     0.01417724    -0.00626983
    216      1      Pt          0.01740363    -0.00043208    -0.00040523
 SUM OF ATOMIC FORCES          -0.00002586    -0.00000574     0.00008877     0.00009264

 -------------------------------------------------------------------------------
 -                                                                             -
 -                                DBCSR STATISTICS                             -
 -                                                                             -
 -------------------------------------------------------------------------------
 COUNTER                                    TOTAL       BLAS       SMM       ACC
 flops    20 x    12 x    20            447897600       0.0%    100.0%      0.0%
 flops    20 x    32 x    20          58525286400       0.0%    100.0%      0.0%
 flops    20 x    20 x   204         240959577600       0.0%    100.0%      0.0%
 flops    20 x    20 x   224         264583065600       0.0%    100.0%      0.0%
 flops    20 x    20 x   192        1360712908800       0.0%    100.0%      0.0%
 flops inhomo. stacks                           0       0.0%      0.0%      0.0%
 flops total                         1.925229E+12       0.0%    100.0%      0.0%
 flops max/rank                     61.786829E+09       0.0%    100.0%      0.0%
 matmuls inhomo. stacks                         0       0.0%      0.0%      0.0%
 matmuls total                           14144544       0.0%    100.0%      0.0%
 number of processed stacks                 18560       0.0%    100.0%      0.0%
 average stack size                                     0.0     762.1       0.0
 marketing flops                     2.740013E+12
 -------------------------------------------------------------------------------
 # multiplications                             64
 max memory usage/rank               1.819972E+09
 # max total images/rank                        2
 # max 3D layers                                1
 # MPI messages exchanged                   26624
 MPI messages size (bytes):
  total size                        35.609932E+09
  min size                         829.440000E+03
  max size                           4.665600E+06
  average size                       1.337512E+06
 MPI breakdown and total messages size (bytes):
             size <=      128                   0                        0
       128 < size <=     8192                   0                        0
      8192 < size <=    32768                   0                        0
     32768 < size <=   131072                   0                        0
    131072 < size <=  4194304               26400              34564838400
   4194304 < size <= 16777216                 224               1045094400
  16777216 < size                               0                        0
 -------------------------------------------------------------------------------

 *** WARNING in dbcsr_mm.F:290 :: Using a non-square number of MPI ranks ***
 *** might lead to poor performance. Used ranks: 32 Suggested: 36 64     ***

 -------------------------------------------------------------------------------
 -                                                                             -
 -                      DBCSR MESSAGE PASSING PERFORMANCE                      -
 -                                                                             -
 -------------------------------------------------------------------------------
 ROUTINE             CALLS      AVE VOLUME [Bytes]
 MP_Bcast                6                     12.
 MP_Allreduce          471                      9.
 MP_Alltoall          1773                1274992.
 MP_ISend             2048                 578838.
 MP_IRecv             2048                 561858.
 -------------------------------------------------------------------------------

 -------------------------------------------------------------------------------
 -                                                                             -
 -                                DBM STATISTICS                               -
 -                                                                             -
 -------------------------------------------------------------------------------
    M  x    N  x    K                                          COUNT     PERCENT
 -------------------------------------------------------------------------------

 -------------------------------------------------------------------------------
 -                                                                             -
 -                                GRID STATISTICS                              -
 -                                                                             -
 -------------------------------------------------------------------------------
 LP    KERNEL             BACKEND                              COUNT     PERCENT
 4     collocate general  REF                               21137598      49.97%
 4     integrate general  REF                               20796669      49.16%
 5     integrate general  REF                                 340929       0.81%
 0     collocate general  REF                                  13824       0.03%
 0     integrate general  REF                                   6912       0.02%
 1     integrate general  REF                                   6912       0.02%
 -------------------------------------------------------------------------------

 MEMORY| Estimated peak process memory [MiB]                                2141

 -------------------------------------------------------------------------------
 ----                             MULTIGRID INFO                            ----
 -------------------------------------------------------------------------------
 count for grid        1:          17574          cutoff [a.u.]          200.00
 count for grid        2:         177765          cutoff [a.u.]           66.67
 count for grid        3:         109931          cutoff [a.u.]           22.22
 count for grid        4:         155303          cutoff [a.u.]            7.41
 total gridlevel count  :         460573

 -------------------------------------------------------------------------------
 -                                                                             -
 -                         MESSAGE PASSING PERFORMANCE                         -
 -                                                                             -
 -------------------------------------------------------------------------------

 ROUTINE             CALLS      AVE VOLUME [Bytes]
 MP_Group                4
 MP_Bcast             1766                 164901.
 MP_Allreduce         1620                   1560.
 MP_Sync                67
 MP_Alltoall          3097               49528948.
 MP_SendRecv           124                  14976.
 MP_ISendRecv         7688                 214800.
 MP_Wait             18644
 MP_comm_split           1
 MP_ISend             9824                 715239.
 MP_IRecv             9824                 715239.
 MP_Recv               192                1105920.
 MP_Write_All            3                4213860.
 -------------------------------------------------------------------------------


 -------------------------------------------------------------------------------
 -                                                                             -
 -                           R E F E R E N C E S                               -
 -                                                                             -
 -------------------------------------------------------------------------------
 
 CP2K version 2022.1, the CP2K developers group (2022).
 CP2K is freely available from https://www.cp2k.org/ .

 Kuehne,Thomas D.; Iannuzzi,Marcella; Del Ben,Mauro;
 Rybkin,Vladimir V.; Seewald,Patrick; Stein,Frederick; Laino,Teodoro;
 Khaliullin,Rustam Z.; Schuett,Ole; Schiffmann,Florian; Golze,Dorothea;
 Wilhelm,Jan; Chulkov,Sergey; Bani-Hashemian,Mohammad Hossein;
 Weber,Valery; Borstnik,Urban; Taillefumier,Mathieu;
 Jakobovits,Alice Shoshana; Lazzaro,Alfio; Pabst,Hans; Mueller,Tiziano;
 Schade,Robert; Guidon,Manuel; Andermatt,Samuel; Holmberg,Nico;
 Schenter,Gregory K.; Hehn,Anna; Bussy,Augustin; Belleflamme,Fabian;
 Tabacchi,Gloria; Gloess,Andreas; Lass,Michael; Bethune,Iain;
 Mundy,Christopher J.; Plessl,Christian; Watkins,Matt;
 VandeVondele,Joost; Krack,Matthias; Hutter,Juerg. 
 The Journal of Chemical Physics, 152 (19), (2020). 
 CP2K: An electronic structure and molecular dynamics software package -
 Quickstep: Efficient and accurate electronic structure calculations.
 https://doi.org/10.1063/5.0007045

 Goerigk, Lars; Hansen, Andreas; Bauer, Christoph; Ehrlich, Stephan;
 Najibi, Asim; Grimme, Stefan. , 19 (48), (2017). 
 A look at the density functional theory zoo with the advanced GMTKN55 database
 for general main group thermochemistry, kinetics and noncovalent interactions.
 https://doi.org/10.1039/C7CP04913G

 Bani-Hashemian, MH; Bruck, S; Luisier, M; VandeVondele, J. 
 JOURNAL OF CHEMICAL PHYSICS, 144 (4), 044113 (2016). 
 A generalized Poisson solver for first-principles device simulations.
 https://doi.org/10.1063/1.4940796

 Schuett, Ole; Messmer, Peter; Hutter, Juerg; VandeVondele, Joost. 
 Electronic Structure Calculations on Graphics Processing Units, John
 Wiley & Sons, Ltd, 173-190 (2016). 
 GPU-Accelerated Sparse Matrix-Matrix Multiplication for
 Linear Scaling Density Functional Theory.
 https://doi.org/10.1002/9781118670712.ch8

 Heinecke, A; Henry, G; Hutchinson, M; Pabst, H. 
 Proceedings of Intl. Supercomputing Conference, 981-991 (2016). 
 LIBXSMM: Accelerating Small Matrix Multiplications
 by Runtime Code Generation.
 https://doi.org/10.1109/SC.2016.83

 Borstnik, U; VandeVondele, J; Weber, V; Hutter, J. 
 PARALLEL COMPUTING, 40 (5-6), 47-58 (2014). 
 Sparse matrix multiplication: The distributed block-compressed sparse
 row library.
 https://doi.org/10.1016/j.parco.2014.03.012

 Hutter, J; Iannuzzi, M; Schiffmann, F; VandeVondele, J. 
 WIREs Comput Mol Sci., 4 (1), 15-25 (2014). 
 CP2K: atomistic simulations of condensed matter systems.
 https://doi.org/10.1002/wcms.1159

 Marek, A; Blum, V; Johanni, R; Havu, V; Lang, B; Auckenthaler, T;
 Heinecke, A; Bungartz, H; Lederer, H. 
 Journal of Physics: Condensed Matter, 26 (21), (2014). 
 The ELPA library: scalable parallel eigenvalue solutions for
 electronic structure
 theory and computational science.
 https://doi.org/10.1088/0953-8984/26/21/213201

 Grimme, S; Ehrlich, S; Goerigk, L. 
 JOURNAL OF COMPUTATIONAL CHEMISTRY, 32, 1456 (2011). 
 Effect of the damping function in dispersion corrected density functional theory.
 https://doi.org/10.1002/jcc.21759

 Grimme, S; Antony, J; Ehrlich, S; Krieg, H. 
 JOURNAL OF CHEMICAL PHYSICS, 132 (15), 154104 (2010). 
 A consistent and accurate ab initio parametrization of density
 functional dispersion correction (DFT-D) for the 94 elements H-Pu.
 https://doi.org/10.1063/1.3382344

 VandeVondele, J; Hutter, J. 
 JOURNAL OF CHEMICAL PHYSICS, 127 (11), 114105 (2007). 
 Gaussian basis sets for accurate calculations on molecular systems in
 gas and condensed phases.
 https://doi.org/10.1063/1.2770708

 Krack, M. 
 THEORETICAL CHEMISTRY ACCOUNTS, 114 (1-3), 145-152 (2005). 
 Pseudopotentials for H to Kr optimized for gradient-corrected
 exchange-correlation functionals.
 https://doi.org/10.1007/s00214-005-0655-y

 VandeVondele, J; Krack, M; Mohamed, F; Parrinello, M; Chassaing, T;
 Hutter, J. COMPUTER PHYSICS COMMUNICATIONS, 167 (2), 103-128 (2005). 
 QUICKSTEP: Fast and accurate density functional calculations using a
 mixed Gaussian and plane waves approach.
 https://doi.org/10.1016/j.cpc.2004.12.014

 Frigo, M; Johnson, SG. 
 PROCEEDINGS OF THE IEEE, 93 (2), 216-231 (2005). 
 The design and implementation of FFTW3.
 https://doi.org/10.1109/JPROC.2004.840301

 Hartwigsen, C; Goedecker, S; Hutter, J. 
 PHYSICAL REVIEW B, 58 (7), 3641-3662 (1998). 
 Relativistic separable dual-space Gaussian pseudopotentials from H to Rn.
 https://doi.org/10.1103/PhysRevB.58.3641

 Lippert, G; Hutter, J; Parrinello, M. 
 MOLECULAR PHYSICS, 92 (3), 477-487 (1997). 
 A hybrid Gaussian and plane wave density functional scheme.
 https://doi.org/10.1080/002689797170220

 Perdew, JP; Burke, K; Ernzerhof, M. 
 PHYSICAL REVIEW LETTERS, 77 (18), 3865-3868 (1996). 
 Generalized gradient approximation made simple.
 https://doi.org/10.1103/PhysRevLett.77.3865

 Goedecker, S; Teter, M; Hutter, J. 
 PHYSICAL REVIEW B, 54 (3), 1703-1710 (1996). 
 Separable dual-space Gaussian pseudopotentials.
 https://doi.org/10.1103/PhysRevB.54.1703


 -------------------------------------------------------------------------------
 -                                                                             -
 -                                T I M I N G                                  -
 -                                                                             -
 -------------------------------------------------------------------------------
 SUBROUTINE                       CALLS  ASD         SELF TIME        TOTAL TIME
                                MAXIMUM       AVERAGE  MAXIMUM  AVERAGE  MAXIMUM
 CP2K                                 1  1.0    0.019    0.044  810.544  810.545
 qs_forces                            1  2.0    0.001    0.001  810.123  810.124
 qs_energies                          1  3.0    0.000    0.000  797.276  797.279
 scf_env_do_scf                       1  4.0    0.000    0.000  788.987  789.075
 scf_env_do_scf_inner_loop           61  5.0    0.003    0.006  788.984  789.072
 rebuild_ks_matrix                   62  7.0    0.000    0.000  505.340  505.372
 qs_ks_build_kohn_sham_matrix        62  8.0    0.009    0.010  505.340  505.372
 qs_ks_update_qs_env                 61  6.0    0.000    0.001  496.963  496.995
 pw_transfer                       2958 12.1    0.226    0.299  284.844  288.236
 fft_wrap_pw1pw2                   2958 13.1    0.032    0.036  284.617  287.937
 fft_wrap_pw1pw2_200               2586 14.4   24.325   27.250  281.877  285.030
 pw_poisson_solve                    62  9.0    0.017    0.023  247.126  247.160
 implicit_poisson_solver_mixed_      62 10.0    6.682    7.204  232.924  233.076
 fft3d_ps                          2958 15.1  121.564  131.295  212.166  215.395
 qs_rho_update_rho_low               62  6.0    0.000    0.001  188.066  188.079
 calculate_rho_elec                  62  7.0    0.339    0.363  188.066  188.079
 sum_up_and_integrate                62  9.0    0.966    1.042  176.952  176.995
 integrate_v_rspace                  62 10.0    0.002    0.002  175.986  176.101
 derive_fft                         318 12.2    0.023    0.026  164.000  165.151
 grid_collocate_task_list            62  8.0   83.260  162.484   83.260  162.484
 grid_integrate_task_list            62 11.0   77.295  150.851   77.295  150.851
 apply_P_operator                   256 11.2    2.400    2.743  134.564  135.423
 rs_pw_transfer                     500 10.5    0.006    0.006  104.151  130.266
 density_rs2pw                       62  8.0    0.004    0.004  103.122  129.490
 mp_waitany                        9824 12.4   86.815  112.943   86.815  112.943
 rs_pw_transfer_RS2PW_200            64 10.0    3.605    4.135   85.269  111.347
 mp_alltoall_d11v                   884 10.3   75.949  100.278   75.949  100.278
 rs_gather_matrices                  62 11.0    0.228    0.262   74.784   99.043
 qs_scf_new_mos                      61  6.0    0.007    0.011   77.316   77.411
 qs_vxc_create                       62  9.0    0.002    0.003   73.091   73.941
 xc_vxc_pw_create                    62 10.0    1.660    2.070   73.089   73.939
 eigensolver                         61  7.0    0.005    0.008   69.551   69.612
 x_to_yz                           1858 16.3   40.565   46.262   62.190   65.614
 mp_alltoall_z22v                  2958 17.1   38.398   57.459   38.398   57.459
 xc_pw_derive                       372 12.0    0.006    0.007   49.330   52.149
 apply_poisson_operator_fft          62 11.0    0.001    0.001   46.987   47.236
 cp_fm_diag_elpa                     62  8.0    0.001    0.001   44.163   44.286
 cp_fm_diag_elpa_base                62  9.0   43.238   43.352   44.066   44.129
 yz_to_x                           1100 15.8   11.570   12.160   28.343   39.511
 xc_rho_set_and_dset_create          62 11.0    0.706    0.872   38.096   38.952
 apply_inv_laplace_operator_fft     161 11.6    1.357    1.447   35.483   36.573
 pw_scatter_p                      1858 15.3   31.327   34.916   31.327   34.916
 xc_pw_divergence                    62 11.0    0.003    0.004   32.372   34.215
 ps_implicit_compute_veps            62 11.0    0.749    0.871   32.590   33.253
 gspace_mixing                       60  6.0    0.328    0.352   29.136   29.137
 pw_derive                         1326 13.1   25.283   26.439   25.283   26.439
 ps_implicit_compute_error_fft       97 11.0    1.804    1.928   23.880   25.546
 cp_fm_triangular_multiply          183  8.0   24.642   24.843   24.642   24.843
 potential_pw2rs                     62 11.0    0.050    0.056   23.895   23.991
 broyden_mixing                      60  7.0   21.232   21.630   21.809   21.894
 pw_gather_p                       1100 14.8   16.491   17.183   16.491   17.183
 -------------------------------------------------------------------------------

 The number of warnings for this run is : 1
 
 -------------------------------------------------------------------------------
  **** **** ******  **  PROGRAM ENDED AT                 2023-12-03 02:06:19.879
 ***** ** ***  *** **   PROGRAM RAN ON                                     cu042
 **    ****   ******    PROGRAM RAN BY                                     jxzhu
 ***** **    ** ** **   PROGRAM PROCESS ID                                 64988
  **** **  *******  **  PROGRAM STOPPED IN /public/home/jxzhu/tmp_calc/04c0855f9
                                           8753fac23fde4df51ba20f3741a9e9a/calc/
                                           task.001.000021
