669
Lattice="16.86873937198628 0.0 0.0 -8.434369685993135 14.608756825958874 0.0 0.0 0.0 32.47772335148976" Properties=species:S:1:pos:R:3:tags:I:1 i=0 time=0.0 E=-6384.2326883517 pbc="T T T"
O        2.73479531       9.60797884       8.77066834        0
H        2.27248556      10.47990967       8.88043575        0
H        2.73941512       9.53143042       7.76892102        0
O        5.53936138       9.60690222       8.38581889        0
H        4.58190007       9.66253266       8.64926875        0
H        5.93976145      10.47014801       8.66082358        0
O        5.43344607       4.79428014       8.38032476        0
H        4.47694623       4.86750325       8.64145813        0
H        5.86759801       5.64312616       8.65302160        0
O        1.28499606       7.22431539       8.45923085        0
H        0.33111090       7.29115866       8.71631271        0
H        1.70507954       8.08676279       8.71182179        0
O        6.94903814       7.16909654       8.76979189        0
H        6.46298105       8.02995165       8.85564992        0
H        6.97410711       7.07686170       7.76882387        0
O        2.65455238       4.74590490       8.76977479        0
H        2.17621620       5.60893869       8.88615241        0
H        2.65632519       4.67732880       7.76602640        0
O        1.36271223      12.09277790       8.45832644        0
H        0.40718654      12.13448567       8.71647018        0
H        1.75662798      12.96657284       8.71315619        0
O        9.72327799       7.23355215       8.38017387        0
H        8.76898884       7.29081902       8.65467694        0
H       10.14188254       8.09719468       8.63737194        0
O        1.27472221       2.36238806       8.46345459        0
H        0.32331835       2.42856146       8.72441244        0
H        1.68931537       3.22939194       8.71674086        0
O        6.87255551       2.30551307       8.77196056        0
H        6.35907125       3.14669719       8.86879975        0
H        6.97920072       2.27045422       7.77351583        0
O        6.91345006      12.10431471       8.83449001        0
H        6.41705829      12.95079387       8.94161957        0
H        6.93694582      12.04058881       7.83168189        0
O       -1.55734144       7.16940024       8.77037682        0
H       -2.04879503       8.02938907       8.86574865        0
H       -1.47503644       7.12041053       7.77102332        0
O       11.13160891       4.80158210       8.77189230        0
H       10.65036331       5.66526681       8.85363525        0
H       11.11917801       4.68165569       7.77502072        0
O       -1.44998445      11.98330154       8.77364856        0
H       -1.94768808      12.83052402       8.88043441        0
H       -1.40913250      11.91682845       7.77132887        0
O        9.72392175       2.35946420       8.53826844        0
H        8.76854692       2.42157972       8.78188397        0
H       10.12795647       3.23191351       8.77350412        0
O       -2.89321425       9.60129826       8.45825612        0
H       -3.84545704       9.68603922       8.71903205        0
H       -2.45790440      10.45778380       8.70732274        0
O        5.50065507      -0.07899789       8.37707746        0
H        4.54968067       0.00357418       8.64710944        0
H        5.92456693       0.78814692       8.62432607        0
O       -2.93945387       4.79934991       8.37979485        0
H       -3.89775867       4.87628993       8.63499943        0
H       -2.51535252       5.66409535       8.63879575        0
O        2.66264830      -0.00908460       8.76970948        0
H        2.16156841       0.84312146       8.88631266        0
H        2.70679427      -0.04777255       7.76767397        0
O       11.13051734      -0.06338856       8.76945590        0
H       10.64430370       0.79380684       8.90937869        0
H       11.08698148      -0.12932284       7.76728285        0
O       -1.59687294       2.36428023       8.76992715        0
H       -2.08961100       3.22214426       8.86009763        0
H       -1.48134999       2.33221491       7.77207721        0
O       -5.70466733       9.61226903       8.77210769        0
H       -6.17987233      10.47260168       8.88430138        0
H       -5.64800156       9.56439687       7.76854275        0
O       -7.11278023      12.16320472       8.38148818        0
H       -8.06034562      12.22105128       8.66472959        0
H       -6.70504546      13.03752037       8.62745436        0
O       13.89664184      -0.00668404       8.30298743        0
H       12.93818385       0.04696364       8.57412284        0
H       14.30665034       0.86543829       8.56479789        0
O        6.80103870       7.43223061      23.64107495        0
H        7.78806757       7.42733163      23.54304321        0
H        6.72342658       7.41788761      24.64170176        0
O        5.42534397       9.81268100      24.02430950        0
H        5.97127025       9.03060542      23.74298413        0
H        5.94565446      10.61506855      23.75675922        0
O        1.32823066       7.17673573      24.01881472        0
H        1.89527913       6.40251326      23.76189177        0
H        1.81577112       7.98771988      23.72001844        0
O        5.54979455       4.87907044      24.01732647        0
H        6.14190162       4.12669722      23.75117871        0
H        6.02761761       5.70554928      23.75127475        0
O        2.55038883       9.67579178      23.64011685        0
H        3.53604997       9.72285772      23.54109355        0
H        2.47392014       9.65644902      24.64169462        0
O        2.77591071       4.80243271      23.63953579        0
H        3.76533554       4.82814013      23.54181640        0
H        2.70362458       4.80717599      24.64240572        0
O        9.64783498       7.37119317      24.01933682        0
H       10.18606845       6.59488892      23.73145814        0
H       10.19633403       8.16342885      23.76178006        0
O        1.21642453      12.11918832      24.01486493        0
H        1.74861386      11.32011987      23.75373172        0
H        1.73074405      12.89558450      23.70822530        0
O        1.51924300       2.36405296      24.02444717        0
H        2.06564414       1.56306707      23.80071631        0
H        2.04856051       3.15850852      23.74547766        0
O       -1.44767454       7.10505688      23.64026040        0
H       -0.46040213       7.10406536      23.53050890        0
H       -1.50656745       7.17832435      24.64012689        0
O        6.83616426      12.24220416      23.63827163        0
H        7.81674697      12.19762019      23.50643189        0
H        6.78989887      12.26708645      24.63983691        0
O        7.10161226       2.56595896      23.63898517        0
H        8.08852846       2.61316775      23.57096941        0
H        7.00177318       2.53808700      24.63843618        0
O       -1.63371370      12.04411466      23.63773855        0
H       -0.64405305      12.04335575      23.58498960        0
H       -1.76843238      12.01896078      24.62909831        0
O       11.24564551       5.00097731      23.70744883        0
H       12.22013550       4.89520450      23.56176437        0
H       11.23734680       5.16294866      24.70025098        0
O       -2.93023378       9.54711280      23.94203742        0
H       -2.37402383       8.76541070      23.70176993        0
H       -2.41578940      10.34604442      23.66196415        0
O        9.88239577       2.63417433      24.18068974        0
H       10.43298875       1.84459905      23.88554356        0
H       10.41354119       3.44965259      23.94571039        0
O       -2.81162382       4.74592614      24.09700652        0
H       -2.24872496       3.96246789      23.85821744        0
H       -2.27967116       5.53964263      23.80923381        0
O        5.73291289       0.06298365      24.02108445        0
H        6.20808620      -0.76917775      23.76761894        0
H        6.30163092       0.82410253      23.74507813        0
O       -1.25315482       2.43441091      23.70535497        0
H       -0.27603654       2.41271880      23.53090044        0
H       -1.24183912       2.42456288      24.71169695        0
O       -5.73952314       9.67284606      23.63932776        0
H       -4.75956003       9.60818570      23.49203269        0
H       -5.75979499       9.72373075      24.64247862        0
O        2.92094124      -0.06583600      23.63578726        0
H        3.90340151      -0.00738522      23.52379897        0
H        2.86181613      -0.15959775      24.63134672        0
O       11.20518782       0.33028039      23.63726634        0
H       12.19502065       0.34200945      23.56550584        0
H       11.09919775       0.11923625      24.61056809        0
O       14.01762503       0.19114007      24.02215562        0
H       14.47688678      -0.64093690      23.74374316        0
H       14.63843085       0.93187338      23.78509087        0
O       -7.14424401      12.11943506      23.94358198        0
H       -6.62292327      11.31148664      23.70456261        0
H       -6.57360092      12.87815512      23.67385012        0
O       -6.61811254     -11.93092473      11.40280029        0
H       -6.81466047     -12.33272754      10.50209032        0
H       -6.35040876     -11.01571036      11.15278359        0
O      -14.75185651      42.67496207      15.85586373        0
H      -14.23317254      43.32284735      15.18982619        0
H      -14.16612825      42.14525463      16.41060024        0
O      -17.55891585      31.60428284      12.08313969        0
H      -17.48160647      30.85285865      11.42802916        0
H      -16.72264209      32.12577026      11.87939915        0
O       18.66282844      18.37187248      15.00013265        0
H       19.33554005      18.17190787      15.71316901        0
H       19.17160713      18.35412291      14.18441649        0
O      -10.02073780       0.29341516      14.11254887        0
H       -9.84864552       0.79484424      14.94555666        0
H      -10.59058096       0.84952382      13.53033219        0
O      -12.65618055       4.65745386      20.58021338        0
H      -12.10477166       5.45295927      20.79824919        0
H      -12.90611819       4.84527195      19.64524687        0
O       -5.25877261      40.69190292      17.49470803        0
H       -4.30324747      40.98900046      17.41654317        0
H       -5.23224489      40.01688390      18.28259173        0
O        8.12091638      11.99847111      20.46132414        0
H        8.65397335      12.13083381      19.63896990        0
H        7.17031583      12.02322755      20.23064522        0
O       -5.87740825      40.14375554      15.12307145        0
H       -5.64147545      40.15598020      16.19726715        0
H       -5.04297431      40.04771944      14.61550027        0
O       18.91385994      22.02926058      12.88269259        0
H       17.89529949      21.87004691      12.97845910        0
H       19.22857597      22.40929569      13.74451067        0
O      -19.98025617      12.82973502      16.79411072        0
H      -19.84931819      13.64305545      17.36496509        0
H      -19.11550902      12.57820286      16.42114762        0
O      -19.40581109       8.50082140      18.38315110        0
H      -19.12308073       7.87384166      19.11113270        0
H      -20.04911075       9.12077929      18.81061384        0
O        8.05578555      26.89324813      16.47127832        0
H        8.86228154      27.49490544      16.25298278        0
H        8.34144003      26.04752487      16.11834604        0
O       -0.40184228      23.51167693      20.50478523        0
H        0.55854142      23.26143778      20.70958136        0
H       -0.40655180      24.47817512      20.62387827        0
O        0.98407600      18.34772383      18.66054939        0
H        1.72427150      17.89431579      18.23459127        0
H        0.32236493      17.67075031      18.91521690        0
O       19.61886768      20.83176813      18.64518418        0
H       18.76172001      21.07076922      18.22210313        0
H       20.26379446      21.33258016      18.07813877        0
O      -11.24805898      29.62992426      18.58680873        0
H      -10.59133454      30.37655116      18.74916658        0
H      -11.85506704      29.59695794      19.38127585        0
O        2.87549917      51.72916391      15.79061410        0
H        2.50516744      52.47363036      16.28336411        0
H        3.75479078      51.58099518      16.21028551        0
O      -17.68869057      16.62468447      19.67448732        0
H      -18.44377938      16.99509491      20.17174446        0
H      -17.16340166      16.10842085      20.39186080        0
O        6.94125986      13.32683686      12.40368263        0
H        6.84169707      13.84936907      13.20667469        0
H        7.84274829      12.96974788      12.56353599        0
O        7.69294292      27.99783949      18.80072755        0
H        6.86847139      28.54280446      18.80854430        0
H        7.78105380      27.50051138      17.95305474        0
O        9.66953515      20.56915419      20.78582569        0
H       10.06522369      20.83389566      19.93278707        0
H       10.46699896      20.17963554      21.22136393        0
O        3.10833084      15.28688737      14.32987361        0
H        4.05182411      15.36265033      14.03425953        0
H        2.63721785      15.50168941      13.51379258        0
O       29.73083452      10.71943439      12.99959308        0
H       29.58171798      10.74044095      12.07654721        0
H       30.47210330      11.34986726      13.24831692        0
O      -29.82995862       8.25747622      11.43440305        0
H      -30.72184097       8.68169661      11.22621427        0
H      -30.15472110       7.40312495      11.73280730        0
O       -2.38967299       3.25807708      15.56333517        0
H       -1.57845165       2.85531451      15.93174414        0
H       -1.97364519       3.81052290      14.86171839        0
O       -4.65794214      11.99500914      21.25838112        0
H       -5.58920589      12.25982516      21.40427891        0
H       -4.24167908      12.82888890      20.96516725        0
O       -0.53374154      31.64846228      17.30773227        0
H       -0.22592932      32.04438778      18.17374219        0
H        0.25792426      31.53045797      16.78743202        0
O        6.49037369      -1.11079193      10.91709994        0
H        6.06967710      -1.49365090      11.68324399        0
H        6.18832389      -0.19156876      11.00434173        0
O      -12.42310686      10.74371719      13.40106716        0
H      -12.73194991       9.94135455      12.97965000        0
H      -12.40342316      11.46313663      12.71048701        0
O       13.64911932      19.30605351      11.76715966        0
H       14.51210002      19.58935294      12.12442230        0
H       13.10822525      19.59928576      12.56991153        0
O      -22.89656901      -1.69650351      20.85043116        0
H      -23.08784237      -2.22770836      20.01498598        0
H      -21.92799850      -1.93168104      20.92452270        0
O        4.32420768      21.79972689      22.04193689        0
H        5.06599701      22.26264436      21.61307545        0
H        4.34166560      20.86166620      21.72385984        0
O       -6.30206156      -7.38996717      18.33746688        0
H       -5.61433101      -7.71430699      17.72459322        0
H       -6.98893636      -7.00309520      17.76997464        0
O       20.04379542      -0.39947347      15.63469606        0
H       19.27323767      -0.95496692      15.44276685        0
H       20.77358999      -0.99870882      15.79479932        0
O       -6.49998684       9.61855229      11.47214212        0
H       -6.47042805       8.80923100      12.07724773        0
H       -7.26079308       9.40491579      10.90708829        0
O       -6.34500005      19.13052696      16.01816394        0
H       -6.96667751      19.83168249      16.19844181        0
H       -6.06180522      18.65634420      16.86925918        0
O        1.89824222      30.32465613      19.70185450        0
H        1.33237331      30.33839573      20.51310712        0
H        1.46010016      29.65454606      19.11461478        0
O      -16.63147903       1.74445417      14.57563470        0
H      -16.96140841       1.80200054      13.65586005        0
H      -15.70243043       1.92271163      14.41656598        0
O       31.80907436      21.61910227      15.64981593        0
H       32.50444852      21.05718653      16.06006755        0
H       31.73813899      22.20253018      16.41335592        0
O       -2.83985378      18.45727935      16.11794450        0
H       -3.44888127      18.35810731      15.36279448        0
H       -2.05657397      17.95423190      15.86711125        0
O        3.03379365      32.16903166      17.86573503        0
H        2.56189391      31.33449893      18.10211197        0
H        3.96324788      31.92678710      17.66209869        0
O       18.14534295      34.94207513      12.46125523        0
H       18.61383200      34.96902487      13.31419714        0
H       17.84268666      35.77079294      12.15672838        0
O        8.28914106      21.37508538      15.51895765        0
H        8.13286033      20.51053631      15.09289897        0
H        7.60676393      21.38567431      16.22036726        0
O       -2.82755452       8.15085152      13.78700035        0
H       -2.75734983       7.80009164      14.68453071        0
H       -3.44987753       8.91964998      13.84905813        0
O      -13.02243146       6.57707081      14.71271211        0
H      -12.05648862       6.44161734      14.86376560        0
H      -13.37547484       6.03054813      15.39697206        0
O       16.80078771      29.48588620      10.59623550        0
H       17.69334494      29.18829428      10.93768978        0
H       16.09190874      28.90492699      10.97898601        0
O        9.74319200       0.81742130      17.77842540        0
H        9.08535446       0.24139465      18.26993948        0
H       10.00255365       0.05558186      17.12931056        0
O       -4.33307667      14.80586462      20.81186683        0
H       -5.15261934      15.18532140      20.38438319        0
H       -3.86571194      15.63850157      21.12866186        0
O        0.27465740      -8.86497612      17.07455903        0
H        0.89799334      -9.14818850      16.38675279        0
H        0.47110346      -9.61112112      17.79878140        0
O       15.19201403      40.58313146      20.35694172        0
H       15.56973075      41.30434159      19.83110738        0
H       15.01554469      41.06635081      21.21891508        0
O        3.71652768      -7.54097504      10.77217506        0
H        3.76109550      -6.65123027      10.44029584        0
H        3.04416813      -7.39313726      11.48398994        0
O       -3.19147104      -2.03947584      21.02855466        0
H       -3.04112389      -2.19364084      22.00148313        0
H       -3.18627071      -1.06128274      20.90728268        0
O       23.96561853       8.91216031      12.16131361        0
H       22.99927209       9.11648271      12.00647597        0
H       24.26889740       9.29239995      12.99727734        0
O       12.41678022      54.71720947      17.32707899        0
H       13.14858845      54.95624385      16.73764554        0
H       11.74779730      54.36975966      16.59666954        0
O       -2.58460696      16.33832106      11.84162791        0
H       -2.81401129      17.26523976      11.70437394        0
H       -3.50442122      16.03031006      12.06072125        0
O       17.38747481       9.33611480      17.31210106        0
H       16.51414612       9.15437858      17.73575717        0
H       17.75427890      10.04657265      17.88772548        0
O        9.58496940      11.85628884      12.97668721        0
H        9.66847857      11.06097610      12.47608605        0
H       10.13798695      11.80801792      13.82257908        0
O        0.32796195      -0.32909034      21.39514978        0
H        0.12332705      -1.26691940      21.01562548        0
H        0.40289901      -0.51715248      22.31403043        0
O       -5.38059670      23.43766802      20.15858696        0
H       -5.72237037      22.70921366      19.59681109        0
H       -4.50540694      23.09357572      20.46110018        0
O       -2.29417872       4.68587254      17.95196248        0
H       -2.36384659       4.09506305      18.71431907        0
H       -2.07872584       4.08413009      17.21825089        0
O       22.69597925      14.79747128      14.68230620        0
H       22.69718189      14.76660809      15.65398820        0
H       22.88400455      15.73461480      14.52754948        0
O        2.76260436      15.71306130      20.15946714        0
H        2.32985279      15.64770711      19.21116179        0
H        2.81839993      14.76101897      20.35827986        0
O       14.61021910       0.32188672      20.22407446        0
H       15.55283935       0.24650372      20.52147344        0
H       14.40488183       1.24338007      20.07720989        0
O       -5.21721008       4.35146368      12.71009570        0
H       -4.64778679       5.13206035      12.89558141        0
H       -5.88586339       4.47952293      12.01138012        0
O       -2.07266111      12.19354984      13.98068558        0
H       -2.00538188      13.18838812      13.93730785        0
H       -1.18987603      11.82953146      13.74604671        0
O        6.24239028      14.85190826      17.45150250        0
H        6.78836222      15.61043132      17.77486112        0
H        6.08123796      14.48131898      18.37501429        0
O       -7.23774378      -0.83726190      11.17913861        0
H       -7.35200949      -0.06322839      11.80067640        0
H       -8.18655647      -1.13877135      10.94260760        0
O       -3.15012523      -7.15464534      20.96186689        0
H       -2.50657648      -6.88716880      21.67062067        0
H       -2.81776035      -6.62765307      20.22645757        0
O       11.93596840      15.57769261      13.20033783        0
H       11.47726389      14.91016608      12.60806149        0
H       11.78416218      15.09532131      14.07456804        0
O        2.14883178      10.00556621      15.38453504        0
H        2.29066714       9.08808433      15.07624348        0
H        1.36710931       9.95445146      15.95906929        0
O        7.69170251      19.38915690      13.83590175        0
H        6.92197618      19.93014839      13.42273787        0
H        8.40036408      19.54905990      13.14932592        0
O       -1.69598781       6.83033985      20.04870293        0
H       -1.27783073       6.22463955      19.42712084        0
H       -0.97890196       7.19613212      20.54526699        0
O      -11.31919853       2.60784384      21.29150732        0
H      -10.81042373       2.66017158      22.12738267        0
H      -11.87522360       3.47196498      21.24532997        0
O       -8.48019857      23.77870935      22.00517386        0
H       -7.57487661      24.18002636      22.06717411        0
H       -8.84473854      24.22033875      21.24051852        0
O        0.25260526      -4.91994197      14.59427773        0
H        0.05220547      -5.19607896      15.46942114        0
H        1.15335717      -4.52665281      14.69284068        0
O       13.48427413      31.34485153      12.71412760        0
H       12.96371133      32.10339392      12.49340156        0
H       14.32692336      31.55370593      12.25156209        0
O      -21.62078933       9.96777933      19.46991122        0
H      -21.40336510      10.66687482      20.12230744        0
H      -22.09709833       9.23575359      19.96027404        0
O        5.65169273       8.48326749      18.17814015        0
H        4.76806733       8.91309806      18.19924058        0
H        6.29917067       9.17225624      17.90314458        0
O       16.42264627      16.66010572      15.69761344        0
H       17.16398226      17.12590333      15.13790039        0
H       16.95197871      16.30173016      16.48851421        0
O      -33.68567131      23.14673427      17.66812698        0
H      -33.87339818      23.36256077      18.58491106        0
H      -33.51562510      22.16790406      17.61374680        0
O        4.52823650       5.87658721      17.80510977        0
H        5.14142979       6.59474042      18.07624442        0
H        5.07503060       5.20671654      17.28628650        0
O      -12.05143134      17.09693073      19.43927683        0
H      -12.75034592      16.57381392      19.91613793        0
H      -12.44217365      17.20192598      18.50797694        0
O        8.63872822      29.57008015      21.46032449        0
H        8.97452833      28.98196642      20.79274716        0
H        9.50518417      29.98564754      21.68997061        0
O       -8.12451467      13.91073846      15.83009475        0
H       -8.13938413      14.74713033      15.24549383        0
H       -9.04421350      13.72903013      16.02485072        0
O      -11.47549636      20.52092599      12.77018979        0
H      -11.49413898      21.46908047      13.10130476        0
H      -11.34564786      20.74059413      11.82370171        0
O      -28.36367724      -7.89200604      16.48023179        0
H      -28.01371424      -7.15567390      17.10221017        0
H      -28.22167659      -8.76107130      16.98605328        0
O       30.09715188       4.61928622      20.95517327        0
H       31.03659560       4.56437259      21.28863093        0
H       29.95462572       3.81112821      20.43987914        0
O       10.78545159       8.14621457      20.56193658        0
H       11.29270508       7.82921283      21.34404288        0
H       10.86539783       7.35371931      19.87930425        0
O      -21.38658671      18.11691737      14.05661356        0
H      -22.20258675      18.29213961      14.59789416        0
H      -21.52547546      17.22730363      13.63880154        0
O        9.11158473       4.48204224      11.54137375        0
H        8.60624081       5.24809464      11.92249472        0
H        8.75162210       4.46905403      10.61299505        0
O       18.93488369      11.07153542      18.94924412        0
H       19.72334840      11.30444414      18.40262445        0
H       19.27551896      10.38999114      19.59217995        0
O       -4.53079822      -1.55241745      11.79783310        0
H       -3.96974483      -1.40602962      11.01476916        0
H       -5.41505917      -1.24474134      11.41873151        0
O        7.52509759       6.34113178      13.06250626        0
H        7.53573308       6.40743181      14.02480886        0
H        7.20676562       7.26411082      12.76869868        0
O       -7.07729218      13.38270022      18.30715198        0
H       -7.43322054      13.67183728      17.43382803        0
H       -6.25231118      12.80613989      18.19068677        0
O       10.99691679      13.77173530      11.52926816        0
H       10.48582472      13.04091177      11.97439267        0
H       11.75297894      13.37290467      11.05588000        0
O      -16.09498514      11.36062622      12.78950881        0
H      -15.32056425      11.11036770      13.37182330        0
H      -15.92498443      12.32353499      12.60112761        0
O       -9.48323706      40.41800471      17.59553285        0
H       -8.69420649      39.86301224      17.33618747        0
H       -9.75254045      40.75346742      16.68777572        0
O      -24.58271475      18.30051498      19.45596556        0
H      -23.60811439      18.37263493      19.38324877        0
H      -24.74413743      18.96126581      20.17192203        0
O        0.76902571      15.80551724      12.82760156        0
H        0.00444889      15.31322497      13.26822157        0
H        0.42560045      16.71851614      12.69090069        0
O       29.02230024       2.96377324      17.06767217        0
H       28.68316605       2.06401625      16.78690734        0
H       29.83769682       3.09735697      16.47227583        0
O        8.15110482      -6.14565742      11.82482173        0
H        7.56667488      -6.40715442      12.53559226        0
H        8.40917816      -5.25706953      12.14441796        0
O        6.22710650      10.74654565      15.24070759        0
H        6.99155352      10.84660079      14.66664818        0
H        5.48126208      10.86309018      14.59373433        0
Pt       1.40572828       0.81159760      26.73886168        6
Pt       4.21718484       0.81159760      26.73886168        6
Pt       7.02864140       0.81159760      26.73886168        6
Pt       9.84009797       0.81159760      26.73886168        6
Pt      12.65155453       0.81159760      26.73886168        6
Pt      15.46301109       0.81159760      26.73886168        6
Pt       2.81145656       3.24639041      26.73886168        6
Pt       5.62291312       3.24639041      26.73886168        6
Pt       8.43436969       3.24639041      26.73886168        6
Pt      11.24582625       3.24639041      26.73886168        6
Pt      14.05728281       3.24639041      26.73886168        6
Pt      -0.00000000       3.24639041      26.73886168        6
Pt       4.21718484       5.68118321      26.73886168        6
Pt       7.02864140       5.68118321      26.73886168        6
Pt       9.84009797       5.68118321      26.73886168        6
Pt      12.65155453       5.68118321      26.73886168        6
Pt      -1.40572828       5.68118321      26.73886168        6
Pt       1.40572828       5.68118321      26.73886168        6
Pt       5.62291312       8.11597601      26.73886168        6
Pt       8.43436969       8.11597601      26.73886168        6