LAMMPS (23 Jun 2022 - Update 4)
OMP_NUM_THREADS environment is not set. Defaulting to 1 thread. (src/comm.cpp:98)
  using 1 OpenMP thread(s) per MPI task
2024-07-16 16:56:28.267886: I tensorflow/core/util/util.cc:169] oneDNN custom operations are on. You may see slightly different numerical results due to floating-point round-off errors from different computation orders. To turn them off, set the environment variable `TF_ENABLE_ONEDNN_OPTS=0`.
2024-07-16 16:56:28.285894: E tensorflow/stream_executor/cuda/cuda_blas.cc:2981] Unable to register cuBLAS factory: Attempting to register factory for plugin cuBLAS when one has already been registered
Loaded 1 plugins from /home/jxzhu/apps/deepmd/2.2.10/build/deepmd_root/lib/deepmd_lmp
Reading data file ...
  triclinic box = (0 0 0) to (16.868739 14.608757 32.477723) with tilt (-8.4343697 0 0)
  1 by 1 by 1 MPI processor grid
  reading atoms ...
  669 atoms
  read_data CPU = 0.001 seconds
Changing box ...
  triclinic box = (0 0 0) to (16.868739 14.608757 32.477723) with tilt (-8.4343697 0 0)
DeePMD-kit WARNING: Environmental variable TF_INTRA_OP_PARALLELISM_THREADS is not set. Tune TF_INTRA_OP_PARALLELISM_THREADS for the best performance. See https://deepmd.rtfd.io/parallelism/ for more information.
DeePMD-kit WARNING: Environmental variable TF_INTER_OP_PARALLELISM_THREADS is not set. Tune TF_INTER_OP_PARALLELISM_THREADS for the best performance. See https://deepmd.rtfd.io/parallelism/ for more information.
DeePMD-kit WARNING: Environmental variable OMP_NUM_THREADS is not set. Tune OMP_NUM_THREADS for the best performance. See https://deepmd.rtfd.io/parallelism/ for more information.
Summary of lammps deepmd module ...
  >>> Info of deepmd-kit:
  installed to:       /home/jxzhu/apps/deepmd/2.2.10/build/deepmd_root
  source:             v2.2.10
  source branch:      heads/v2.2.10
  source commit:      f8a0b312
  source commit at:   2024-04-06 14:46:23 -0400
  support model ver.: 1.1 
  build variant:      cuda
  build with tf inc:  /home/jxzhu/apps/miniconda3/envs/deepmd-v2.2.10/lib/python3.10/site-packages/tensorflow/include;/home/jxzhu/apps/miniconda3/envs/deepmd-v2.2.10/lib/python3.10/site-packages/tensorflow/include
  build with tf lib:  /home/jxzhu/apps/miniconda3/envs/deepmd-v2.2.10/lib/python3.10/site-packages/tensorflow/python/_pywrap_tensorflow_internal.so
  set tf intra_op_parallelism_threads: 0
  set tf inter_op_parallelism_threads: 0
  >>> Info of lammps module:
  use deepmd-kit at:  /home/jxzhu/apps/deepmd/2.2.10/build/deepmd_root
  source:             v2.2.10
  source branch:      heads/v2.2.10
  source commit:      f8a0b312
  source commit at:   2024-04-06 14:46:23 -0400
  build float prec:   double
  build with tf inc:  /home/jxzhu/apps/miniconda3/envs/deepmd-v2.2.10/lib/python3.10/site-packages/tensorflow/include;/home/jxzhu/apps/miniconda3/envs/deepmd-v2.2.10/lib/python3.10/site-packages/tensorflow/include
  build with tf lib:  /home/jxzhu/apps/miniconda3/envs/deepmd-v2.2.10/lib/python3.10/site-packages/tensorflow/python/_pywrap_tensorflow_internal.so
DeePMD-kit WARNING: Environmental variable TF_INTRA_OP_PARALLELISM_THREADS is not set. Tune TF_INTRA_OP_PARALLELISM_THREADS for the best performance. See https://deepmd.rtfd.io/parallelism/ for more information.
DeePMD-kit WARNING: Environmental variable TF_INTER_OP_PARALLELISM_THREADS is not set. Tune TF_INTER_OP_PARALLELISM_THREADS for the best performance. See https://deepmd.rtfd.io/parallelism/ for more information.
DeePMD-kit WARNING: Environmental variable OMP_NUM_THREADS is not set. Tune OMP_NUM_THREADS for the best performance. See https://deepmd.rtfd.io/parallelism/ for more information.
DeePMD-kit: Successfully load libcudart.so.12
2024-07-16 16:56:28.396803: I tensorflow/core/platform/cpu_feature_guard.cc:193] This TensorFlow binary is optimized with oneAPI Deep Neural Network Library (oneDNN) to use the following CPU instructions in performance-critical operations:  SSE4.1 SSE4.2 AVX AVX2 AVX_VNNI FMA
To enable them in other operations, rebuild TensorFlow with the appropriate compiler flags.
2024-07-16 16:56:28.397531: I tensorflow/stream_executor/cuda/cuda_gpu_executor.cc:980] successful NUMA node read from SysFS had negative value (-1), but there must be at least one NUMA node, so returning NUMA node zero
2024-07-16 16:56:28.401750: I tensorflow/stream_executor/cuda/cuda_gpu_executor.cc:980] successful NUMA node read from SysFS had negative value (-1), but there must be at least one NUMA node, so returning NUMA node zero
2024-07-16 16:56:28.401838: I tensorflow/stream_executor/cuda/cuda_gpu_executor.cc:980] successful NUMA node read from SysFS had negative value (-1), but there must be at least one NUMA node, so returning NUMA node zero
2024-07-16 16:56:28.402014: I tensorflow/stream_executor/cuda/cuda_gpu_executor.cc:980] successful NUMA node read from SysFS had negative value (-1), but there must be at least one NUMA node, so returning NUMA node zero
2024-07-16 16:56:28.402094: I tensorflow/stream_executor/cuda/cuda_gpu_executor.cc:980] successful NUMA node read from SysFS had negative value (-1), but there must be at least one NUMA node, so returning NUMA node zero
2024-07-16 16:56:28.402146: I tensorflow/stream_executor/cuda/cuda_gpu_executor.cc:980] successful NUMA node read from SysFS had negative value (-1), but there must be at least one NUMA node, so returning NUMA node zero
2024-07-16 16:56:28.402206: I tensorflow/core/common_runtime/gpu/gpu_device.cc:1616] Created device /job:localhost/replica:0/task:0/device:GPU:0 with 7125 MB memory:  -> device: 0, name: NVIDIA GeForce RTX 4060, pci bus id: 0000:01:00.0, compute capability: 8.9
2024-07-16 16:56:28.426938: I tensorflow/compiler/mlir/mlir_graph_optimization_pass.cc:354] MLIR V1 optimization pass is not enabled
INVALID_ARGUMENT: Tensor spin_attr/ntypes_spin:0, specified in either feed_devices or fetch_devices was not found in the Graph
  >>> Info of model(s):
  using   1 model(s): graph.pb 
  rcut in model:      6
  ntypes in model:    3

CITE-CITE-CITE-CITE-CITE-CITE-CITE-CITE-CITE-CITE-CITE-CITE-CITE

Your simulation uses code contributions which should be cited:
- USER-DEEPMD package:
The log file lists these citations in BibTeX format.

CITE-CITE-CITE-CITE-CITE-CITE-CITE-CITE-CITE-CITE-CITE-CITE-CITE

Generated 0 of 3 mixed pair_coeff terms from geometric mixing rule
Neighbor list info ...
  update every 1 steps, delay 10 steps, check yes
  max neighbors/atom: 2000, page size: 100000
  master list distance cutoff = 7
  ghost atom cutoff = 7
  binsize = 3.5, bins = 8 5 10
  1 neighbor lists, perpetual/occasional/extra = 1 0 0
  (1) pair deepmd, perpetual
      attributes: full, newton on
      pair build: full/bin/atomonly
      stencil: full/bin/3d
      bin: standard
Setting up Verlet run ...
  Unit style    : metal
  Current step  : 0
  Time step     : 0.0005
Per MPI rank memory allocation (min/avg/max) = 4.516 | 4.516 | 4.516 Mbytes
   Step          Temp          PotEng         KinEng         TotEng         Press          Volume           Lx             Ly             Lz             Xy             Xz             Yz      
         0   330           -185696.85      28.494106     -185668.35     -18011.735      8003.528       16.868739      14.608757      32.477723     -8.4343697      0              0            
        10   321.61872     -185696.11      27.770419     -185668.34     -20744.499      8003.528       16.868739      14.608757      32.477723     -8.4343697      0              0            
        20   318.55718     -185695.84      27.506067     -185668.33     -16591.698      8003.528       16.868739      14.608757      32.477723     -8.4343697      0              0            
        30   295.6376      -185693.82      25.527058     -185668.3      -20466.668      8003.528       16.868739      14.608757      32.477723     -8.4343697      0              0            
        40   298.21421     -185694.01      25.749538     -185668.26     -15224.552      8003.528       16.868739      14.608757      32.477723     -8.4343697      0              0            
        50   283.12868     -185692.64      24.446966     -185668.19     -19535.383      8003.528       16.868739      14.608757      32.477723     -8.4343697      0              0            
        60   277.27063     -185692.06      23.941148     -185668.12     -14222.113      8003.528       16.868739      14.608757      32.477723     -8.4343697      0              0            
        70   259.67826     -185690.44      22.422121     -185668.02     -17705.652      8003.528       16.868739      14.608757      32.477723     -8.4343697      0              0            
        80   258.42069     -185690.23      22.313535     -185667.92     -13807.357      8003.528       16.868739      14.608757      32.477723     -8.4343697      0              0            
        90   246.17577     -185689.04      21.256238     -185667.78     -16244.274      8003.528       16.868739      14.608757      32.477723     -8.4343697      0              0            
       100   251.96588     -185689.4       21.756189     -185667.64     -13911.929      8003.528       16.868739      14.608757      32.477723     -8.4343697      0              0            
       110   241.63366     -185688.34      20.864046     -185667.47     -16119.611      8003.528       16.868739      14.608757      32.477723     -8.4343697      0              0            
       120   242.64233     -185688.25      20.95114      -185667.3      -13895.781      8003.528       16.868739      14.608757      32.477723     -8.4343697      0              0            
       130   245.20388     -185688.28      21.172319     -185667.1      -16921.318      8003.528       16.868739      14.608757      32.477723     -8.4343697      0              0            
       140   259.93567     -185689.36      22.444347     -185666.91     -15771.896      8003.528       16.868739      14.608757      32.477723     -8.4343697      0              0            
       150   261.89265     -185689.33      22.613325     -185666.72     -18146.066      8003.528       16.868739      14.608757      32.477723     -8.4343697      0              0            
       160   265.75916     -185689.49      22.947181     -185666.55     -16882.183      8003.528       16.868739      14.608757      32.477723     -8.4343697      0              0            
       170   271.31704     -185689.81      23.427081     -185666.38     -19829.201      8003.528       16.868739      14.608757      32.477723     -8.4343697      0              0            
       180   273.06693     -185689.81      23.578176     -185666.23     -18208.777      8003.528       16.868739      14.608757      32.477723     -8.4343697      0              0            
       190   283.58389     -185690.56      24.486271     -185666.08     -20964.595      8003.528       16.868739      14.608757      32.477723     -8.4343697      0              0            
       200   283.09662     -185690.38      24.444198     -185665.94     -19726.873      8003.528       16.868739      14.608757      32.477723     -8.4343697      0              0            
       210   290.37868     -185690.87      25.072973     -185665.8      -21920.291      8003.528       16.868739      14.608757      32.477723     -8.4343697      0              0            
       220   282.22271     -185690.03      24.368739     -185665.66     -20451.802      8003.528       16.868739      14.608757      32.477723     -8.4343697      0              0            
       230   284.31784     -185690.08      24.549644     -185665.53     -21843.298      8003.528       16.868739      14.608757      32.477723     -8.4343697      0              0            
       240   282.6598      -185689.79      24.40648      -185665.39     -21371.814      8003.528       16.868739      14.608757      32.477723     -8.4343697      0              0            
       250   281.07611     -185689.52      24.269735     -185665.25     -21656.138      8003.528       16.868739      14.608757      32.477723     -8.4343697      0              0            
       260   272.90528     -185688.66      23.564219     -185665.1      -21772.455      8003.528       16.868739      14.608757      32.477723     -8.4343697      0              0            
       270   281.53497     -185689.26      24.309356     -185664.95     -21345.623      8003.528       16.868739      14.608757      32.477723     -8.4343697      0              0            
       280   285.64599     -185689.45      24.664325     -185664.79     -22164.609      8003.528       16.868739      14.608757      32.477723     -8.4343697      0              0            
       290   291.38769     -185689.78      25.160096     -185664.62     -21295.69       8003.528       16.868739      14.608757      32.477723     -8.4343697      0              0            
       300   291.28122     -185689.6       25.150903     -185664.45     -23004.34       8003.528       16.868739      14.608757      32.477723     -8.4343697      0              0            
       310   292.54226     -185689.54      25.259789     -185664.28     -21380.5        8003.528       16.868739      14.608757      32.477723     -8.4343697      0              0            
       320   291.61768     -185689.28      25.179955     -185664.1      -22956.383      8003.528       16.868739      14.608757      32.477723     -8.4343697      0              0            
       330   294.39621     -185689.34      25.419869     -185663.92     -21975.471      8003.528       16.868739      14.608757      32.477723     -8.4343697      0              0            
       340   297.52466     -185689.42      25.689998     -185663.73     -23117.241      8003.528       16.868739      14.608757      32.477723     -8.4343697      0              0            
       350   301.90547     -185689.62      26.068262     -185663.55     -23011.682      8003.528       16.868739      14.608757      32.477723     -8.4343697      0              0            
       360   314.64172     -185690.53      27.167984     -185663.36     -22537.226      8003.528       16.868739      14.608757      32.477723     -8.4343697      0              0            
       370   317.21441     -185690.56      27.390124     -185663.17     -24347.255      8003.528       16.868739      14.608757      32.477723     -8.4343697      0              0            
       380   320.86879     -185690.7       27.705665     -185662.99     -22450.177      8003.528       16.868739      14.608757      32.477723     -8.4343697      0              0            
       390   322.06449     -185690.62      27.808908     -185662.81     -24958.694      8003.528       16.868739      14.608757      32.477723     -8.4343697      0              0            
       400   324.05643     -185690.63      27.980904     -185662.65     -22210.937      8003.528       16.868739      14.608757      32.477723     -8.4343697      0              0            
       410   305.27653     -185688.85      26.359339     -185662.49     -24294.454      8003.528       16.868739      14.608757      32.477723     -8.4343697      0              0            
       420   300.43155     -185688.28      25.940996     -185662.34     -21553.066      8003.528       16.868739      14.608757      32.477723     -8.4343697      0              0            
       430   301.34284     -185688.2       26.019682     -185662.18     -23776.553      8003.528       16.868739      14.608757      32.477723     -8.4343697      0              0            
       440   302.97186     -185688.18      26.16034      -185662.02     -21195.665      8003.528       16.868739      14.608757      32.477723     -8.4343697      0              0            
       450   288.05367     -185686.73      24.872218     -185661.86     -22983.083      8003.528       16.868739      14.608757      32.477723     -8.4343697      0              0            
       460   293.74442     -185687.06      25.36359      -185661.7      -21156.406      8003.528       16.868739      14.608757      32.477723     -8.4343697      0              0            
       470   295.74643     -185687.07      25.536455     -185661.53     -23236.985      8003.528       16.868739      14.608757      32.477723     -8.4343697      0              0            
       480   297.99581     -185687.09      25.730679     -185661.36     -21472.93       8003.528       16.868739      14.608757      32.477723     -8.4343697      0              0            
       490   288.80863     -185686.13      24.937405     -185661.19     -23085.98       8003.528       16.868739      14.608757      32.477723     -8.4343697      0              0            
       500   295.50626     -185686.53      25.515717     -185661.01     -21447.927      8003.528       16.868739      14.608757      32.477723     -8.4343697      0              0            
       510   293.7978      -185686.2       25.3682       -185660.83     -24492.795      8003.528       16.868739      14.608757      32.477723     -8.4343697      0              0            
       520   300.70153     -185686.61      25.964307     -185660.65     -21760.108      8003.528       16.868739      14.608757      32.477723     -8.4343697      0              0            
       530   297.39913     -185686.14      25.679159     -185660.46     -24841.225      8003.528       16.868739      14.608757      32.477723     -8.4343697      0              0            
       540   304.93852     -185686.61      26.330153     -185660.28     -22798.444      8003.528       16.868739      14.608757      32.477723     -8.4343697      0              0            
       550   304.84578     -185686.42      26.322146     -185660.09     -25275.158      8003.528       16.868739      14.608757      32.477723     -8.4343697      0              0            
       560   324.55357     -185687.94      28.02383      -185659.91     -25173.567      8003.528       16.868739      14.608757      32.477723     -8.4343697      0              0            
       570   323.52323     -185687.67      27.934864     -185659.74     -25854.312      8003.528       16.868739      14.608757      32.477723     -8.4343697      0              0            
       580   326.78896     -185687.77      28.216847     -185659.56     -26354.744      8003.528       16.868739      14.608757      32.477723     -8.4343697      0              0            
       590   321.8013      -185687.18      27.786184     -185659.39     -26248.059      8003.528       16.868739      14.608757      32.477723     -8.4343697      0              0            
       600   327.5994      -185687.51      28.286824     -185659.23     -27654.725      8003.528       16.868739      14.608757      32.477723     -8.4343697      0              0            
       610   324.27852     -185687.06      28.000081     -185659.06     -26581.113      8003.528       16.868739      14.608757      32.477723     -8.4343697      0              0            
       620   324.64059     -185686.95      28.031344     -185658.92     -28496.775      8003.528       16.868739      14.608757      32.477723     -8.4343697      0              0            
       630   315.18553     -185685.99      27.21494      -185658.77     -27259.785      8003.528       16.868739      14.608757      32.477723     -8.4343697      0              0            
       640   320.34409     -185686.29      27.660359     -185658.63     -29066.155      8003.528       16.868739      14.608757      32.477723     -8.4343697      0              0            
       650   316.09055     -185685.78      27.293085     -185658.49     -28710.796      8003.528       16.868739      14.608757      32.477723     -8.4343697      0              0            
       660   324.20181     -185686.34      27.993457     -185658.34     -29520.917      8003.528       16.868739      14.608757      32.477723     -8.4343697      0              0            
       670   320.2203      -185685.84      27.64967      -185658.19     -30375.209      8003.528       16.868739      14.608757      32.477723     -8.4343697      0              0            
       680   327.72805     -185686.35      28.297933     -185658.05     -29745.245      8003.528       16.868739      14.608757      32.477723     -8.4343697      0              0            
       690   320.59933     -185685.57      27.682398     -185657.89     -31014.311      8003.528       16.868739      14.608757      32.477723     -8.4343697      0              0            
       700   327.04089     -185685.99      28.2386       -185657.75     -30441.639      8003.528       16.868739      14.608757      32.477723     -8.4343697      0              0            
       710   329.71162     -185686.07      28.469206     -185657.6      -31817.034      8003.528       16.868739      14.608757      32.477723     -8.4343697      0              0            
       720   331.482       -185686.08      28.622071     -185657.46     -31312.36       8003.528       16.868739      14.608757      32.477723     -8.4343697      0              0            
       730   328.60319     -185685.7       28.373498     -185657.32     -31458.771      8003.528       16.868739      14.608757      32.477723     -8.4343697      0              0            
       740   341.65392     -185686.69      29.500373     -185657.19     -32220.684      8003.528       16.868739      14.608757      32.477723     -8.4343697      0              0            
       750   343.61224     -185686.73      29.669466     -185657.06     -31974.031      8003.528       16.868739      14.608757      32.477723     -8.4343697      0              0            
       760   338.93363     -185686.21      29.265487     -185656.95     -31970.191      8003.528       16.868739      14.608757      32.477723     -8.4343697      0              0            
       770   329.85994     -185685.32      28.482013     -185656.83     -31806.902      8003.528       16.868739      14.608757      32.477723     -8.4343697      0              0            
       780   336.34484     -185685.77      29.041957     -185656.73     -31817.786      8003.528       16.868739      14.608757      32.477723     -8.4343697      0              0            
       790   336.59522     -185685.69      29.063576     -185656.62     -31218.276      8003.528       16.868739      14.608757      32.477723     -8.4343697      0              0            
       800   340.81408     -185685.95      29.427857     -185656.53     -31974.664      8003.528       16.868739      14.608757      32.477723     -8.4343697      0              0            
       810   344.83852     -185686.2       29.77535      -185656.43     -30598.408      8003.528       16.868739      14.608757      32.477723     -8.4343697      0              0            
       820   339.20035     -185685.63      29.288518     -185656.34     -31765.727      8003.528       16.868739      14.608757      32.477723     -8.4343697      0              0            
       830   335.31042     -185685.2       28.952639     -185656.25     -29355.758      8003.528       16.868739      14.608757      32.477723     -8.4343697      0              0            
       840   334.23114     -185685.03      28.859448     -185656.17     -31266.969      8003.528       16.868739      14.608757      32.477723     -8.4343697      0              0            
       850   337.35087     -185685.22      29.128823     -185656.09     -28965.533      8003.528       16.868739      14.608757      32.477723     -8.4343697      0              0            
       860   339.3278      -185685.32      29.299522     -185656.02     -31422.07       8003.528       16.868739      14.608757      32.477723     -8.4343697      0              0            
       870   353.0883      -185686.44      30.487683     -185655.96     -29006.891      8003.528       16.868739      14.608757      32.477723     -8.4343697      0              0            
       880   353.36475     -185686.4       30.511554     -185655.89     -30685.424      8003.528       16.868739      14.608757      32.477723     -8.4343697      0              0            
       890   356.14586     -185686.6       30.751691     -185655.85     -28159.733      8003.528       16.868739      14.608757      32.477723     -8.4343697      0              0            
       900   344.46846     -185685.55      29.743397     -185655.81     -29304.607      8003.528       16.868739      14.608757      32.477723     -8.4343697      0              0            
       910   351.43554     -185686.13      30.344975     -185655.78     -27059.96       8003.528       16.868739      14.608757      32.477723     -8.4343697      0              0            
       920   344.31253     -185685.49      29.729933     -185655.76     -28394.418      8003.528       16.868739      14.608757      32.477723     -8.4343697      0              0            
       930   338.01742     -185684.94      29.186376     -185655.75     -26009.19       8003.528       16.868739      14.608757      32.477723     -8.4343697      0              0            
       940   331.45094     -185684.36      28.619389     -185655.74     -27069.697      8003.528       16.868739      14.608757      32.477723     -8.4343697      0              0            
       950   345.8156      -185685.59      29.859717     -185655.73     -25155.427      8003.528       16.868739      14.608757      32.477723     -8.4343697      0              0            
       960   341.08539     -185685.18      29.451283     -185655.73     -26665.517      8003.528       16.868739      14.608757      32.477723     -8.4343697      0              0            
       970   338.30612     -185684.96      29.211305     -185655.74     -23563.001      8003.528       16.868739      14.608757      32.477723     -8.4343697      0              0            
       980   315.63655     -185683         27.253883     -185655.75     -25206.597      8003.528       16.868739      14.608757      32.477723     -8.4343697      0              0            
       990   321.04891     -185683.48      27.721218     -185655.75     -22047.097      8003.528       16.868739      14.608757      32.477723     -8.4343697      0              0            
      1000   321.12883     -185683.48      27.728118     -185655.75     -24315.147      8003.528       16.868739      14.608757      32.477723     -8.4343697      0              0            
      1010   324.4578      -185683.76      28.015561     -185655.74     -21504.223      8003.528       16.868739      14.608757      32.477723     -8.4343697      0              0            
      1020   328.6556      -185684.11      28.378023     -185655.73     -23572.754      8003.528       16.868739      14.608757      32.477723     -8.4343697      0              0            
      1030   340.23015     -185685.11      29.377437     -185655.73     -21891.804      8003.528       16.868739      14.608757      32.477723     -8.4343697      0              0            
      1040   338.1709      -185684.93      29.199629     -185655.73     -23109.905      8003.528       16.868739      14.608757      32.477723     -8.4343697      0              0            
      1050   342.78259     -185685.34      29.597829     -185655.74     -21425.16       8003.528       16.868739      14.608757      32.477723     -8.4343697      0              0            
      1060   338.02183     -185684.96      29.186757     -185655.77     -22494.244      8003.528       16.868739      14.608757      32.477723     -8.4343697      0              0            
      1070   340.53479     -185685.19      29.403741     -185655.78     -22681.163      8003.528       16.868739      14.608757      32.477723     -8.4343697      0              0            
      1080   346.56588     -185685.75      29.9245       -185655.82     -21723.749      8003.528       16.868739      14.608757      32.477723     -8.4343697      0              0            
      1090   356.82748     -185686.66      30.810546     -185655.85     -24679.535      8003.528       16.868739      14.608757      32.477723     -8.4343697      0              0            
      1100   361.12866     -185687.08      31.181935     -185655.9      -21283.732      8003.528       16.868739      14.608757      32.477723     -8.4343697      0              0            
      1110   356.64932     -185686.77      30.795162     -185655.97     -25691.939      8003.528       16.868739      14.608757      32.477723     -8.4343697      0              0            
      1120   346.51625     -185685.95      29.920215     -185656.03     -20911.158      8003.528       16.868739      14.608757      32.477723     -8.4343697      0              0            
      1130   348.20812     -185686.18      30.0663       -185656.12     -25791.394      8003.528       16.868739      14.608757      32.477723     -8.4343697      0              0            
      1140   348.53503     -185686.31      30.094528     -185656.21     -21953.136      8003.528       16.868739      14.608757      32.477723     -8.4343697      0              0            
      1150   343.0191      -185685.92      29.61825      -185656.31     -24901.936      8003.528       16.868739      14.608757      32.477723     -8.4343697      0              0            
      1160   342.88961     -185686.01      29.60707      -185656.41     -22899.301      8003.528       16.868739      14.608757      32.477723     -8.4343697      0              0            
      1170   347.10032     -185686.49      29.970647     -185656.52     -24201.994      8003.528       16.868739      14.608757      32.477723     -8.4343697      0              0            
      1180   342.78565     -185686.22      29.598093     -185656.62     -24042.682      8003.528       16.868739      14.608757      32.477723     -8.4343697      0              0            
      1190   340.55063     -185686.15      29.405109     -185656.75     -23037.277      8003.528       16.868739      14.608757      32.477723     -8.4343697      0              0            
      1200   337.65534     -185686.02      29.155113     -185656.87     -24681.198      8003.528       16.868739      14.608757      32.477723     -8.4343697      0              0            
      1210   333.62863     -185685.79      28.807424     -185656.98     -22577.005      8003.528       16.868739      14.608757      32.477723     -8.4343697      0              0            
      1220   331.1825      -185685.7       28.59621      -185657.1      -24516.093      8003.528       16.868739      14.608757      32.477723     -8.4343697      0              0            
      1230   331.69272     -185685.87      28.640266     -185657.23     -21747.794      8003.528       16.868739      14.608757      32.477723     -8.4343697      0              0            
      1240   335.6632      -185686.32      28.9831       -185657.34     -24696.994      8003.528       16.868739      14.608757      32.477723     -8.4343697      0              0            
      1250   337.57454     -185686.62      29.148136     -185657.47     -21691.706      8003.528       16.868739      14.608757      32.477723     -8.4343697      0              0            
      1260   341.85736     -185687.1       29.51794      -185657.59     -23120.113      8003.528       16.868739      14.608757      32.477723     -8.4343697      0              0            
      1270   336.92823     -185686.79      29.09233      -185657.69     -21582.145      8003.528       16.868739      14.608757      32.477723     -8.4343697      0              0            
      1280   337.81562     -185686.98      29.168952     -185657.82     -20388.711      8003.528       16.868739      14.608757      32.477723     -8.4343697      0              0            
      1290   328.35122     -185686.27      28.351741     -185657.92     -22289.226      8003.528       16.868739      14.608757      32.477723     -8.4343697      0              0            
      1300   327.4027      -185686.3       28.269841     -185658.03     -18157.583      8003.528       16.868739      14.608757      32.477723     -8.4343697      0              0            
      1310   327.64248     -185686.43      28.290544     -185658.14     -21477.819      8003.528       16.868739      14.608757      32.477723     -8.4343697      0              0            
      1320   339.6939      -185687.58      29.331134     -185658.25     -17012.33       8003.528       16.868739      14.608757      32.477723     -8.4343697      0              0            
      1330   342.60366     -185687.94      29.582379     -185658.36     -22172.353      8003.528       16.868739      14.608757      32.477723     -8.4343697      0              0            
      1340   337.89555     -185687.64      29.175854     -185658.46     -15781.914      8003.528       16.868739      14.608757      32.477723     -8.4343697      0              0            
      1350   325.53866     -185686.67      28.108888     -185658.56     -20265.449      8003.528       16.868739      14.608757      32.477723     -8.4343697      0              0            
      1360   321.80819     -185686.44      27.786778     -185658.66     -15543.586      8003.528       16.868739      14.608757      32.477723     -8.4343697      0              0            
      1370   320.90786     -185686.45      27.709038     -185658.74     -18410.461      8003.528       16.868739      14.608757      32.477723     -8.4343697      0              0            
      1380   327.86877     -185687.14      28.310084     -185658.83     -15762.771      8003.528       16.868739      14.608757      32.477723     -8.4343697      0              0            
      1390   328.81394     -185687.29      28.391695     -185658.9      -17913.867      8003.528       16.868739      14.608757      32.477723     -8.4343697      0              0            
      1400   317.79249     -185686.42      27.440039     -185658.98     -15305.389      8003.528       16.868739      14.608757      32.477723     -8.4343697      0              0            
      1410   316.89852     -185686.43      27.362849     -185659.07     -16149.661      8003.528       16.868739      14.608757      32.477723     -8.4343697      0              0            
      1420   322.23149     -185686.96      27.823328     -185659.13     -16666.297      8003.528       16.868739      14.608757      32.477723     -8.4343697      0              0            
      1430   330.722       -185687.77      28.556448     -185659.21     -15254.34       8003.528       16.868739      14.608757      32.477723     -8.4343697      0              0            
      1440   325.35884     -185687.36      28.093362     -185659.27     -17166.776      8003.528       16.868739      14.608757      32.477723     -8.4343697      0              0            
      1450   318.22909     -185686.8       27.477738     -185659.33     -14441.122      8003.528       16.868739      14.608757      32.477723     -8.4343697      0              0            
      1460   313.89349     -185686.49      27.103377     -185659.39     -15337.536      8003.528       16.868739      14.608757      32.477723     -8.4343697      0              0            
      1470   312.77107     -185686.43      27.006461     -185659.42     -14996.199      8003.528       16.868739      14.608757      32.477723     -8.4343697      0              0            
      1480   310.51565     -185686.29      26.811715     -185659.47     -14301.606      8003.528       16.868739      14.608757      32.477723     -8.4343697      0              0            
      1490   313.25328     -185686.56      27.048098     -185659.51     -15544.176      8003.528       16.868739      14.608757      32.477723     -8.4343697      0              0            
      1500   313.63883     -185686.63      27.081389     -185659.55     -13408.293      8003.528       16.868739      14.608757      32.477723     -8.4343697      0              0            
      1510   316.96737     -185686.95      27.368794     -185659.58     -16248.779      8003.528       16.868739      14.608757      32.477723     -8.4343697      0              0            
      1520   322.9063      -185687.47      27.881595     -185659.59     -13861.206      8003.528       16.868739      14.608757      32.477723     -8.4343697      0              0            
      1530   333.03285     -185688.37      28.75598      -185659.62     -17124.128      8003.528       16.868739      14.608757      32.477723     -8.4343697      0              0            
      1540   324.59338     -185687.66      28.027267     -185659.63     -15083.753      8003.528       16.868739      14.608757      32.477723     -8.4343697      0              0            
      1550   317.14163     -185687.02      27.383841     -185659.64     -15978.488      8003.528       16.868739      14.608757      32.477723     -8.4343697      0              0            
      1560   318.49644     -185687.16      27.500822     -185659.66     -15713.938      8003.528       16.868739      14.608757      32.477723     -8.4343697      0              0            
      1570   329.70278     -185688.12      28.468443     -185659.65     -16452.93       8003.528       16.868739      14.608757      32.477723     -8.4343697      0              0            
      1580   330.19795     -185688.16      28.511198     -185659.65     -17109.628      8003.528       16.868739      14.608757      32.477723     -8.4343697      0              0            
      1590   326.94943     -185687.87      28.230702     -185659.64     -16482.118      8003.528       16.868739      14.608757      32.477723     -8.4343697      0              0            
      1600   330.53422     -185688.18      28.540234     -185659.64     -17965.098      8003.528       16.868739      14.608757      32.477723     -8.4343697      0              0            
      1610   332.56435     -185688.34      28.715527     -185659.62     -17155.275      8003.528       16.868739      14.608757      32.477723     -8.4343697      0              0            
      1620   340.97934     -185689.06      29.442126     -185659.62     -19393.669      8003.528       16.868739      14.608757      32.477723     -8.4343697      0              0            
      1630   324.85641     -185687.66      28.049979     -185659.61     -17168.679      8003.528       16.868739      14.608757      32.477723     -8.4343697      0              0            
      1640   321.83225     -185687.4       27.788855     -185659.61     -19725.084      8003.528       16.868739      14.608757      32.477723     -8.4343697      0              0            
      1650   319.16025     -185687.16      27.558139     -185659.6      -17572.325      8003.528       16.868739      14.608757      32.477723     -8.4343697      0              0            
      1660   326.86688     -185687.82      28.223575     -185659.6      -20955.091      8003.528       16.868739      14.608757      32.477723     -8.4343697      0              0            
      1670   319.64429     -185687.18      27.599935     -185659.58     -18085.983      8003.528       16.868739      14.608757      32.477723     -8.4343697      0              0            
      1680   329.14155     -185687.99      28.419982     -185659.57     -20606.065      8003.528       16.868739      14.608757      32.477723     -8.4343697      0              0            
      1690   334.6709      -185688.45      28.897419     -185659.55     -19701.539      8003.528       16.868739      14.608757      32.477723     -8.4343697      0              0            
      1700   341.38842     -185689.01      29.477448     -185659.54     -20668.452      8003.528       16.868739      14.608757      32.477723     -8.4343697      0              0            
      1710   324.63213     -185687.56      28.030613     -185659.53     -19963.266      8003.528       16.868739      14.608757      32.477723     -8.4343697      0              0            
      1720   313.48555     -185686.58      27.068153     -185659.51     -20000.299      8003.528       16.868739      14.608757      32.477723     -8.4343697      0              0            
      1730   306.20492     -185685.93      26.439501     -185659.49     -20122.851      8003.528       16.868739      14.608757      32.477723     -8.4343697      0              0            
      1740   318.76659     -185686.99      27.524149     -185659.46     -19883.613      8003.528       16.868739      14.608757      32.477723     -8.4343697      0              0            
      1750   324.50177     -185687.43      28.019357     -185659.41     -21250.506      8003.528       16.868739      14.608757      32.477723     -8.4343697      0              0            
      1760   330.18117     -185687.87      28.50975      -185659.36     -20212.964      8003.528       16.868739      14.608757      32.477723     -8.4343697      0              0            
      1770   337.545       -185688.46      29.145585     -185659.31     -21720.251      8003.528       16.868739      14.608757      32.477723     -8.4343697      0              0            
      1780   328.63247     -185687.62      28.376026     -185659.24     -21374.343      8003.528       16.868739      14.608757      32.477723     -8.4343697      0              0            
      1790   334.33598     -185688.06      28.8685       -185659.19     -21104.457      8003.528       16.868739      14.608757      32.477723     -8.4343697      0              0            
      1800   323.07069     -185687.03      27.89579      -185659.13     -21651.373      8003.528       16.868739      14.608757      32.477723     -8.4343697      0              0            
      1810   334.93158     -185688         28.919928     -185659.08     -20877.763      8003.528       16.868739      14.608757      32.477723     -8.4343697      0              0            
      1820   330.32472     -185687.54      28.522145     -185659.02     -21762.127      8003.528       16.868739      14.608757      32.477723     -8.4343697      0              0            
      1830   342.3268      -185688.52      29.558474     -185658.96     -21050.532      8003.528       16.868739      14.608757      32.477723     -8.4343697      0              0            
      1840   333.06483     -185687.66      28.758742     -185658.9      -21891.169      8003.528       16.868739      14.608757      32.477723     -8.4343697      0              0            
      1850   334.60557     -185687.73      28.891778     -185658.84     -20376.673      8003.528       16.868739      14.608757      32.477723     -8.4343697      0              0            
      1860   327.04397     -185687.01      28.238866     -185658.77     -21013.536      8003.528       16.868739      14.608757      32.477723     -8.4343697      0              0            
      1870   333.77068     -185687.53      28.819688     -185658.71     -21097.441      8003.528       16.868739      14.608757      32.477723     -8.4343697      0              0            
      1880   328.70202     -185687.03      28.382031     -185658.65     -20456.246      8003.528       16.868739      14.608757      32.477723     -8.4343697      0              0            
      1890   330.59849     -185687.14      28.545784     -185658.59     -22268.17       8003.528       16.868739      14.608757      32.477723     -8.4343697      0              0            
      1900   327.94507     -185686.85      28.316671     -185658.53     -19521.794      8003.528       16.868739      14.608757      32.477723     -8.4343697      0              0            
      1910   338.15743     -185687.68      29.198466     -185658.48     -22898.851      8003.528       16.868739      14.608757      32.477723     -8.4343697      0              0            
      1920   331.25729     -185687.02      28.602668     -185658.42     -20000.978      8003.528       16.868739      14.608757      32.477723     -8.4343697      0              0            
      1930   336.8373      -185687.46      29.084479     -185658.38     -22084.75       8003.528       16.868739      14.608757      32.477723     -8.4343697      0              0            
      1940   327.25121     -185686.58      28.25676      -185658.32     -21029.305      8003.528       16.868739      14.608757      32.477723     -8.4343697      0              0            
      1950   332.04585     -185686.95      28.670757     -185658.28     -20721.791      8003.528       16.868739      14.608757      32.477723     -8.4343697      0              0            
      1960   320.68175     -185685.91      27.689515     -185658.22     -22356.56       8003.528       16.868739      14.608757      32.477723     -8.4343697      0              0            
      1970   334.31463     -185687.04      28.866656     -185658.18     -20621.196      8003.528       16.868739      14.608757      32.477723     -8.4343697      0              0            
      1980   335.58889     -185687.09      28.976684     -185658.12     -23143.223      8003.528       16.868739      14.608757      32.477723     -8.4343697      0              0            
      1990   348.68674     -185688.2       30.107627     -185658.09     -21257.856      8003.528       16.868739      14.608757      32.477723     -8.4343697      0              0            
      2000   338.57972     -185687.27      29.234929     -185658.04     -23872.331      8003.528       16.868739      14.608757      32.477723     -8.4343697      0              0            
      2010   336.81689     -185687.09      29.082716     -185658        -21675.247      8003.528       16.868739      14.608757      32.477723     -8.4343697      0              0            
      2020   337.40155     -185687.1       29.133199     -185657.97     -24791.944      8003.528       16.868739      14.608757      32.477723     -8.4343697      0              0            
      2030   340.65435     -185687.35      29.414064     -185657.93     -23228.023      8003.528       16.868739      14.608757      32.477723     -8.4343697      0              0            
      2040   336.74718     -185686.98      29.076697     -185657.91     -24693.755      8003.528       16.868739      14.608757      32.477723     -8.4343697      0              0            
      2050   338.63508     -185687.11      29.239709     -185657.87     -25187.489      8003.528       16.868739      14.608757      32.477723     -8.4343697      0              0            
      2060   337.39365     -185686.99      29.132517     -185657.85     -24968.225      8003.528       16.868739      14.608757      32.477723     -8.4343697      0              0            
      2070   339.93545     -185687.19      29.351991     -185657.84     -27107.647      8003.528       16.868739      14.608757      32.477723     -8.4343697      0              0            
      2080   344.27245     -185687.55      29.726472     -185657.83     -25294.939      8003.528       16.868739      14.608757      32.477723     -8.4343697      0              0            
      2090   344.9503      -185687.6       29.785002     -185657.81     -28727.902      8003.528       16.868739      14.608757      32.477723     -8.4343697      0              0            
      2100   333.13551     -185686.58      28.764844     -185657.82     -25706.092      8003.528       16.868739      14.608757      32.477723     -8.4343697      0              0            
      2110   320.21096     -185685.45      27.648864     -185657.81     -28342.841      8003.528       16.868739      14.608757      32.477723     -8.4343697      0              0            
      2120   326.10486     -185685.97      28.157777     -185657.81     -26822.85       8003.528       16.868739      14.608757      32.477723     -8.4343697      0              0            
      2130   335.5141      -185686.77      28.970226     -185657.8      -29832.735      8003.528       16.868739      14.608757      32.477723     -8.4343697      0              0            
      2140   330.18615     -185686.32      28.51018      -185657.81     -27740.904      8003.528       16.868739      14.608757      32.477723     -8.4343697      0              0            
      2150   323.19387     -185685.73      27.906426     -185657.82     -30204.815      8003.528       16.868739      14.608757      32.477723     -8.4343697      0              0            
      2160   334.15258     -185686.69      28.852664     -185657.84     -28837.152      8003.528       16.868739      14.608757      32.477723     -8.4343697      0              0            
      2170   337.00734     -185686.95      29.09916      -185657.85     -30927.249      8003.528       16.868739      14.608757      32.477723     -8.4343697      0              0            
      2180   335.95929     -185686.87      29.008666     -185657.86     -30760.839      8003.528       16.868739      14.608757      32.477723     -8.4343697      0              0            
      2190   335.39316     -185686.84      28.959783     -185657.88     -30007.679      8003.528       16.868739      14.608757      32.477723     -8.4343697      0              0            
      2200   333.50115     -185686.68      28.796416     -185657.88     -31752.142      8003.528       16.868739      14.608757      32.477723     -8.4343697      0              0            
      2210   341.81187     -185687.43      29.514011     -185657.92     -30311.31       8003.528       16.868739      14.608757      32.477723     -8.4343697      0              0            
      2220   327.30275     -185686.19      28.261211     -185657.93     -31580.605      8003.528       16.868739      14.608757      32.477723     -8.4343697      0              0            
      2230   323.04123     -185685.86      27.893246     -185657.96     -30323.086      8003.528       16.868739      14.608757      32.477723     -8.4343697      0              0            
      2240   328.75949     -185686.37      28.386993     -185657.99     -31544.403      8003.528       16.868739      14.608757      32.477723     -8.4343697      0              0            
      2250   336.29861     -185687.07      29.037965     -185658.03     -31094.57       8003.528       16.868739      14.608757      32.477723     -8.4343697      0              0            
      2260   346.86593     -185688.03      29.950408     -185658.08     -30598.364      8003.528       16.868739      14.608757      32.477723     -8.4343697      0              0            
      2270   345.47906     -185687.96      29.830658     -185658.13     -32255.195      8003.528       16.868739      14.608757      32.477723     -8.4343697      0              0            
      2280   350.6559      -185688.48      30.277656     -185658.21     -30041.529      8003.528       16.868739      14.608757      32.477723     -8.4343697      0              0            
      2290   344.33896     -185688.01      29.732215     -185658.28     -31864.586      8003.528       16.868739      14.608757      32.477723     -8.4343697      0              0            
      2300   346.57486     -185688.3       29.925275     -185658.38     -29725.037      8003.528       16.868739      14.608757      32.477723     -8.4343697      0              0            
      2310   341.95289     -185688         29.526188     -185658.48     -31303.024      8003.528       16.868739      14.608757      32.477723     -8.4343697      0              0            
      2320   334.80253     -185687.51      28.908784     -185658.6      -29408.006      8003.528       16.868739      14.608757      32.477723     -8.4343697      0              0            
      2330   326.36588     -185686.9       28.180315     -185658.72     -29832.421      8003.528       16.868739      14.608757      32.477723     -8.4343697      0              0            
      2340   337.02661     -185687.95      29.100825     -185658.85     -29206.395      8003.528       16.868739      14.608757      32.477723     -8.4343697      0              0            
      2350   342.69158     -185688.58      29.589971     -185658.99     -30237.148      8003.528       16.868739      14.608757      32.477723     -8.4343697      0              0            
      2360   345.74894     -185688.99      29.853961     -185659.13     -30014.758      8003.528       16.868739      14.608757      32.477723     -8.4343697      0              0            
      2370   333.91407     -185688.1       28.832069     -185659.27     -28153.971      8003.528       16.868739      14.608757      32.477723     -8.4343697      0              0            
      2380   329.69024     -185687.87      28.46736      -185659.4      -29264.273      8003.528       16.868739      14.608757      32.477723     -8.4343697      0              0            
      2390   325.32884     -185687.62      28.090771     -185659.53     -26964.95       8003.528       16.868739      14.608757      32.477723     -8.4343697      0              0            
      2400   321.90074     -185687.44      27.794769     -185659.65     -29480.906      8003.528       16.868739      14.608757      32.477723     -8.4343697      0              0            
      2410   326.13611     -185687.93      28.160476     -185659.77     -26309.24       8003.528       16.868739      14.608757      32.477723     -8.4343697      0              0            
      2420   335.03939     -185688.81      28.929237     -185659.88     -28506.157      8003.528       16.868739      14.608757      32.477723     -8.4343697      0              0            
      2430   342.96041     -185689.61      29.613183     -185660        -27007.996      8003.528       16.868739      14.608757      32.477723     -8.4343697      0              0            
      2440   332.47807     -185688.82      28.708077     -185660.11     -28564.338      8003.528       16.868739      14.608757      32.477723     -8.4343697      0              0            
      2450   326.42442     -185688.41      28.18537      -185660.22     -25401.048      8003.528       16.868739      14.608757      32.477723     -8.4343697      0              0            
      2460   323.3519      -185688.23      27.920071     -185660.31     -27664.508      8003.528       16.868739      14.608757      32.477723     -8.4343697      0              0            
      2470   326.89545     -185688.63      28.226041     -185660.4      -24860.298      8003.528       16.868739      14.608757      32.477723     -8.4343697      0              0            
      2480   323.04268     -185688.37      27.893371     -185660.48     -26339.486      8003.528       16.868739      14.608757      32.477723     -8.4343697      0              0            
      2490   320.83391     -185688.25      27.702653     -185660.55     -24038.533      8003.528       16.868739      14.608757      32.477723     -8.4343697      0              0            
      2500   313.43018     -185687.67      27.063373     -185660.61     -25145.788      8003.528       16.868739      14.608757      32.477723     -8.4343697      0              0            
      2510   326.85677     -185688.89      28.222702     -185660.66     -23389.113      8003.528       16.868739      14.608757      32.477723     -8.4343697      0              0            
      2520   324.90037     -185688.76      28.053774     -185660.71     -25232.031      8003.528       16.868739      14.608757      32.477723     -8.4343697      0              0            
      2530   322.90593     -185688.63      27.881563     -185660.75     -23197.769      8003.528       16.868739      14.608757      32.477723     -8.4343697      0              0            
      2540   313.19144     -185687.82      27.042758     -185660.78     -24659.871      8003.528       16.868739      14.608757      32.477723     -8.4343697      0              0            
      2550   325.64043     -185688.93      28.117676     -185660.82     -22861.574      8003.528       16.868739      14.608757      32.477723     -8.4343697      0              0            
      2560   316.97549     -185688.21      27.369495     -185660.85     -25072.929      8003.528       16.868739      14.608757      32.477723     -8.4343697      0              0            
      2570   327.91151     -185689.19      28.313774     -185660.88     -22812.585      8003.528       16.868739      14.608757      32.477723     -8.4343697      0              0            
      2580   328.20525     -185689.24      28.339137     -185660.9      -25556.637      8003.528       16.868739      14.608757      32.477723     -8.4343697      0              0            
      2590   338.64366     -185690.16      29.24045      -185660.92     -23514.345      8003.528       16.868739      14.608757      32.477723     -8.4343697      0              0            
      2600   337.1351      -185690.05      29.110192     -185660.94     -25326.698      8003.528       16.868739      14.608757      32.477723     -8.4343697      0              0            
      2610   338.52363     -185690.19      29.230085     -185660.96     -24331.126      8003.528       16.868739      14.608757      32.477723     -8.4343697      0              0            
      2620   334.35445     -185689.86      28.870094     -185660.99     -24765.063      8003.528       16.868739      14.608757      32.477723     -8.4343697      0              0            
      2630   334.68543     -185689.91      28.898673     -185661.01     -24396.317      8003.528       16.868739      14.608757      32.477723     -8.4343697      0              0            
      2640   334.449       -185689.91      28.878258     -185661.03     -24440.979      8003.528       16.868739      14.608757      32.477723     -8.4343697      0              0            
      2650   330.17379     -185689.57      28.509112     -185661.06     -24413.476      8003.528       16.868739      14.608757      32.477723     -8.4343697      0              0            
      2660   326.07617     -185689.25      28.155301     -185661.09     -23083.633      8003.528       16.868739      14.608757      32.477723     -8.4343697      0              0            
      2670   320.57318     -185688.79      27.68014      -185661.11     -24464.194      8003.528       16.868739      14.608757      32.477723     -8.4343697      0              0            
      2680   327.31018     -185689.4       28.261852     -185661.14     -22400.523      8003.528       16.868739      14.608757      32.477723     -8.4343697      0              0            
      2690   327.84675     -185689.46      28.308182     -185661.15     -24539.249      8003.528       16.868739      14.608757      32.477723     -8.4343697      0              0            
      2700   327.24248     -185689.42      28.256006     -185661.16     -21529.379      8003.528       16.868739      14.608757      32.477723     -8.4343697      0              0            
      2710   330.31721     -185689.7       28.521496     -185661.18     -24083.473      8003.528       16.868739      14.608757      32.477723     -8.4343697      0              0            
      2720   332.34828     -185689.89      28.69687      -185661.19     -20992.172      8003.528       16.868739      14.608757      32.477723     -8.4343697      0              0            
      2730   332.56011     -185689.92      28.715161     -185661.21     -22970.153      8003.528       16.868739      14.608757      32.477723     -8.4343697      0              0            
      2740   321.88177     -185689.02      27.793132     -185661.22     -20842.041      8003.528       16.868739      14.608757      32.477723     -8.4343697      0              0            
      2750   316.68367     -185688.58      27.344298     -185661.23     -21051.295      8003.528       16.868739      14.608757      32.477723     -8.4343697      0              0            
      2760   314.59082     -185688.4       27.163589     -185661.24     -20237.253      8003.528       16.868739      14.608757      32.477723     -8.4343697      0              0            
      2770   318.12075     -185688.71      27.468383     -185661.24     -20313.564      8003.528       16.868739      14.608757      32.477723     -8.4343697      0              0            
      2780   315.12371     -185688.44      27.209602     -185661.23     -19377.257      8003.528       16.868739      14.608757      32.477723     -8.4343697      0              0            
      2790   318.53489     -185688.72      27.504142     -185661.22     -18852.997      8003.528       16.868739      14.608757      32.477723     -8.4343697      0              0            
      2800   315.7831      -185688.48      27.266537     -185661.21     -18497.329      8003.528       16.868739      14.608757      32.477723     -8.4343697      0              0            
      2810   318.58297     -185688.7       27.508294     -185661.19     -18798.973      8003.528       16.868739      14.608757      32.477723     -8.4343697      0              0            
      2820   317.82896     -185688.62      27.443188     -185661.18     -17316.033      8003.528       16.868739      14.608757      32.477723     -8.4343697      0              0            
      2830   320.77972     -185688.86      27.697974     -185661.16     -17768.493      8003.528       16.868739      14.608757      32.477723     -8.4343697      0              0            
      2840   317.71225     -185688.57      27.433111     -185661.13     -17214.046      8003.528       16.868739      14.608757      32.477723     -8.4343697      0              0            
      2850   318.77346     -185688.62      27.524742     -185661.1      -16280.227      8003.528       16.868739      14.608757      32.477723     -8.4343697      0              0            
      2860   330.87089     -185689.62      28.569304     -185661.06     -17638.076      8003.528       16.868739      14.608757      32.477723     -8.4343697      0              0            
      2870   330.80856     -185689.57      28.563922     -185661.01     -15110.282      8003.528       16.868739      14.608757      32.477723     -8.4343697      0              0            
      2880   321.65169     -185688.72      27.773265     -185660.95     -17232.995      8003.528       16.868739      14.608757      32.477723     -8.4343697      0              0            
      2890   318.57637     -185688.4       27.507724     -185660.9      -13793.654      8003.528       16.868739      14.608757      32.477723     -8.4343697      0              0            
      2900   319.31781     -185688.41      27.571744     -185660.84     -16370.814      8003.528       16.868739      14.608757      32.477723     -8.4343697      0              0            
      2910   325.36689     -185688.87      28.094057     -185660.77     -14092.66       8003.528       16.868739      14.608757      32.477723     -8.4343697      0              0            
      2920   317.34587     -185688.11      27.401476     -185660.71     -15339.196      8003.528       16.868739      14.608757      32.477723     -8.4343697      0              0            
      2930   318.73924     -185688.17      27.521788     -185660.65     -13676.507      8003.528       16.868739      14.608757      32.477723     -8.4343697      0              0            
      2940   323.50509     -185688.51      27.933299     -185660.57     -14984.417      8003.528       16.868739      14.608757      32.477723     -8.4343697      0              0            
      2950   337.45489     -185689.65      29.137805     -185660.51     -13562.389      8003.528       16.868739      14.608757      32.477723     -8.4343697      0              0            
      2960   337.25055     -185689.54      29.120161     -185660.42     -15806.657      8003.528       16.868739      14.608757      32.477723     -8.4343697      0              0            
      2970   336.60543     -185689.42      29.064457     -185660.35     -13515.323      8003.528       16.868739      14.608757      32.477723     -8.4343697      0              0            
      2980   322.07089     -185688.08      27.809461     -185660.27     -15352.412      8003.528       16.868739      14.608757      32.477723     -8.4343697      0              0            
      2990   320.20847     -185687.84      27.648649     -185660.2      -13429.924      8003.528       16.868739      14.608757      32.477723     -8.4343697      0              0            
      3000   323.635       -185688.05      27.944516     -185660.11     -15636.534      8003.528       16.868739      14.608757      32.477723     -8.4343697      0              0            
      3010   338.03015     -185689.21      29.187476     -185660.02     -13406.382      8003.528       16.868739      14.608757      32.477723     -8.4343697      0              0            
      3020   337.58303     -185689.08      29.148869     -185659.93     -15860.137      8003.528       16.868739      14.608757      32.477723     -8.4343697      0              0            
      3030   331.72007     -185688.48      28.642627     -185659.84     -13330.551      8003.528       16.868739      14.608757      32.477723     -8.4343697      0              0            
      3040   321.23509     -185687.48      27.737293     -185659.74     -14926.533      8003.528       16.868739      14.608757      32.477723     -8.4343697      0              0            
      3050   329.77229     -185688.12      28.474445     -185659.65     -13887.922      8003.528       16.868739      14.608757      32.477723     -8.4343697      0              0            
      3060   320.82968     -185687.25      27.702288     -185659.54     -14915.214      8003.528       16.868739      14.608757      32.477723     -8.4343697      0              0            
      3070   318.52772     -185686.95      27.503524     -185659.44     -14163.261      8003.528       16.868739      14.608757      32.477723     -8.4343697      0              0            
      3080   311.87426     -185686.27      26.929025     -185659.34     -15059.522      8003.528       16.868739      14.608757      32.477723     -8.4343697      0              0            
      3090   324.40854     -185687.24      28.011308     -185659.23     -14552.082      8003.528       16.868739      14.608757      32.477723     -8.4343697      0              0            
      3100   323.32063     -185687.03      27.917371     -185659.11     -16142.567      8003.528       16.868739      14.608757      32.477723     -8.4343697      0              0            
      3110   330.70428     -185687.55      28.554918     -185658.99     -14851.707      8003.528       16.868739      14.608757      32.477723     -8.4343697      0              0            
      3120   329.02019     -185687.28      28.409504     -185658.87     -17788.313      8003.528       16.868739      14.608757      32.477723     -8.4343697      0              0            
      3130   334.46769     -185687.64      28.879873     -185658.76     -15274.994      8003.528       16.868739      14.608757      32.477723     -8.4343697      0              0            
      3140   329.58515     -185687.09      28.458286     -185658.63     -18740.758      8003.528       16.868739      14.608757      32.477723     -8.4343697      0              0            
      3150   331.67499     -185687.16      28.638734     -185658.52     -15287.057      8003.528       16.868739      14.608757      32.477723     -8.4343697      0              0            
      3160   325.93226     -185686.54      28.142874     -185658.4      -19466.198      8003.528       16.868739      14.608757      32.477723     -8.4343697      0              0            
      3170   330.98278     -185686.87      28.578965     -185658.29     -16381.843      8003.528       16.868739      14.608757      32.477723     -8.4343697      0              0            
      3180   322.9346      -185686.07      27.884039     -185658.19     -19336.934      8003.528       16.868739      14.608757      32.477723     -8.4343697      0              0            
      3190   324.99899     -185686.15      28.06229      -185658.09     -17459.306      8003.528       16.868739      14.608757      32.477723     -8.4343697      0              0            
      3200   326.13733     -185686.15      28.160581     -185657.99     -19695.676      8003.528       16.868739      14.608757      32.477723     -8.4343697      0              0            
      3210   334.01858     -185686.74      28.841094     -185657.9      -19019.043      8003.528       16.868739      14.608757      32.477723     -8.4343697      0              0            
      3220   326.33623     -185685.98      28.177755     -185657.8      -19554.665      8003.528       16.868739      14.608757      32.477723     -8.4343697      0              0            
      3230   338.12486     -185686.93      29.195654     -185657.73     -19529.305      8003.528       16.868739      14.608757      32.477723     -8.4343697      0              0            
      3240   324.94598     -185685.71      28.057713     -185657.66     -20859.436      8003.528       16.868739      14.608757      32.477723     -8.4343697      0              0            
      3250   336.25782     -185686.65      29.034443     -185657.61     -18971.915      8003.528       16.868739      14.608757      32.477723     -8.4343697      0              0            
      3260   334.60632     -185686.45      28.891843     -185657.56     -21816.605      8003.528       16.868739      14.608757      32.477723     -8.4343697      0              0            
      3270   350.81885     -185687.82      30.291726     -185657.53     -20083.517      8003.528       16.868739      14.608757      32.477723     -8.4343697      0              0            
      3280   340.99537     -185686.95      29.44351      -185657.51     -22159.526      8003.528       16.868739      14.608757      32.477723     -8.4343697      0              0            
      3290   349.69592     -185687.69      30.194766     -185657.5      -21703.326      8003.528       16.868739      14.608757      32.477723     -8.4343697      0              0            
      3300   350.44854     -185687.75      30.259751     -185657.49     -21577.452      8003.528       16.868739      14.608757      32.477723     -8.4343697      0              0            
      3310   352.45074     -185687.93      30.432633     -185657.49     -22687.031      8003.528       16.868739      14.608757      32.477723     -8.4343697      0              0            
      3320   351.00409     -185687.81      30.307721     -185657.5      -21140.546      8003.528       16.868739      14.608757      32.477723     -8.4343697      0              0            
      3330   346.58769     -185687.45      29.926384     -185657.52     -24047.125      8003.528       16.868739      14.608757      32.477723     -8.4343697      0              0            
      3340   348.54464     -185687.64      30.095358     -185657.54     -21761.264      8003.528       16.868739      14.608757      32.477723     -8.4343697      0              0            
      3350   348.58693     -185687.66      30.09901      -185657.57     -23775.374      8003.528       16.868739      14.608757      32.477723     -8.4343697      0              0            
      3360   353.31581     -185688.12      30.507328     -185657.61     -22947.732      8003.528       16.868739      14.608757      32.477723     -8.4343697      0              0            
      3370   353.1448      -185688.14      30.492562     -185657.65     -24415.133      8003.528       16.868739      14.608757      32.477723     -8.4343697      0              0            
      3380   352.23712     -185688.11      30.414188     -185657.7      -22864.349      8003.528       16.868739      14.608757      32.477723     -8.4343697      0              0            
      3390   353.9202      -185688.31      30.559514     -185657.75     -24633.438      8003.528       16.868739      14.608757      32.477723     -8.4343697      0              0            
      3400   360.87787     -185688.97      31.16028      -185657.81     -23471.306      8003.528       16.868739      14.608757      32.477723     -8.4343697      0              0            
      3410   361.12103     -185689.05      31.181276     -185657.87     -25967.284      8003.528       16.868739      14.608757      32.477723     -8.4343697      0              0            
      3420   359.75814     -185689.01      31.063596     -185657.95     -24037.204      8003.528       16.868739      14.608757      32.477723     -8.4343697      0              0            
      3430   343.7004      -185687.7       29.677078     -185658.02     -25552.266      8003.528       16.868739      14.608757      32.477723     -8.4343697      0              0            
      3440   344.84418     -185687.88      29.775839     -185658.1      -24263.531      8003.528       16.868739      14.608757      32.477723     -8.4343697      0              0            
      3450   347.0738      -185688.17      29.968357     -185658.2      -26142.392      8003.528       16.868739      14.608757      32.477723     -8.4343697      0              0            
      3460   348.44603     -185688.39      30.086843     -185658.3      -25660.132      8003.528       16.868739      14.608757      32.477723     -8.4343697      0              0            
      3470   343.27542     -185688.04      29.640383     -185658.4      -25957.263      8003.528       16.868739      14.608757      32.477723     -8.4343697      0              0            
      3480   351.40695     -185688.86      30.342506     -185658.52     -26420.456      8003.528       16.868739      14.608757      32.477723     -8.4343697      0              0            
      3490   348.40171     -185688.72      30.083017     -185658.64     -27127.527      8003.528       16.868739      14.608757      32.477723     -8.4343697      0              0            
      3500   350.58627     -185689.04      30.271644     -185658.77     -26561.349      8003.528       16.868739      14.608757      32.477723     -8.4343697      0              0            
      3510   344.3877      -185688.63      29.736424     -185658.9      -28320.942      8003.528       16.868739      14.608757      32.477723     -8.4343697      0              0            
      3520   344.27515     -185688.73      29.726705     -185659.01     -26951.747      8003.528       16.868739      14.608757      32.477723     -8.4343697      0              0            
      3530   345.06352     -185688.92      29.794777     -185659.12     -28832.371      8003.528       16.868739      14.608757      32.477723     -8.4343697      0              0            
      3540   340.49913     -185688.62      29.400662     -185659.22     -27709.614      8003.528       16.868739      14.608757      32.477723     -8.4343697      0              0            
      3550   336.58339     -185688.39      29.062554     -185659.33     -28400.495      8003.528       16.868739      14.608757      32.477723     -8.4343697      0              0            
      3560   339.85259     -185688.79      29.344836     -185659.44     -29227.223      8003.528       16.868739      14.608757      32.477723     -8.4343697      0              0            
      3570   333.16959     -185688.31      28.767787     -185659.54     -28059.068      8003.528       16.868739      14.608757      32.477723     -8.4343697      0              0            
      3580   332.60518     -185688.36      28.719053     -185659.64     -31122.437      8003.528       16.868739      14.608757      32.477723     -8.4343697      0              0            
      3590   328.74472     -185688.12      28.385718     -185659.73     -27332.102      8003.528       16.868739      14.608757      32.477723     -8.4343697      0              0            
      3600   319.33383     -185687.37      27.573128     -185659.8      -31817.844      8003.528       16.868739      14.608757      32.477723     -8.4343697      0              0            
      3610   320.6429      -185687.55      27.68616      -185659.87     -27113.665      8003.528       16.868739      14.608757      32.477723     -8.4343697      0              0            
      3620   316.84386     -185687.28      27.358129     -185659.92     -32822.676      8003.528       16.868739      14.608757      32.477723     -8.4343697      0              0            
      3630   313.21003     -185687.02      27.044364     -185659.98     -27663.407      8003.528       16.868739      14.608757      32.477723     -8.4343697      0              0            
      3640   308.27215     -185686.64      26.617998     -185660.02     -32053.145      8003.528       16.868739      14.608757      32.477723     -8.4343697      0              0            
      3650   322.7641      -185687.94      27.869317     -185660.07     -28942.173      8003.528       16.868739      14.608757      32.477723     -8.4343697      0              0            
      3660   321.85701     -185687.9       27.790994     -185660.11     -32824.899      8003.528       16.868739      14.608757      32.477723     -8.4343697      0              0            
      3670   327.05101     -185688.39      28.239474     -185660.15     -29327.506      8003.528       16.868739      14.608757      32.477723     -8.4343697      0              0            
      3680   318.69626     -185687.69      27.518076     -185660.17     -32730.801      8003.528       16.868739      14.608757      32.477723     -8.4343697      0              0            
      3690   325.34411     -185688.29      28.09209      -185660.2      -29473.108      8003.528       16.868739      14.608757      32.477723     -8.4343697      0              0            
      3700   315.31465     -185687.42      27.226088     -185660.19     -32964.896      8003.528       16.868739      14.608757      32.477723     -8.4343697      0              0            
      3710   321.78113     -185687.99      27.784442     -185660.21     -29502.108      8003.528       16.868739      14.608757      32.477723     -8.4343697      0              0            
      3720   316.31935     -185687.51      27.31284      -185660.2      -31681.695      8003.528       16.868739      14.608757      32.477723     -8.4343697      0              0            
      3730   317.98759     -185687.65      27.456886     -185660.19     -30337.655      8003.528       16.868739      14.608757      32.477723     -8.4343697      0              0            
      3740   312.8701      -185687.2       27.015012     -185660.19     -30646.262      8003.528       16.868739      14.608757      32.477723     -8.4343697      0              0            
      3750   317.04914     -185687.55      27.375854     -185660.17     -30903.018      8003.528       16.868739      14.608757      32.477723     -8.4343697      0              0            
      3760   322.65622     -185688.02      27.860002     -185660.16     -29978.94       8003.528       16.868739      14.608757      32.477723     -8.4343697      0              0            
      3770   324.09283     -185688.14      27.984047     -185660.15     -31371.91       8003.528       16.868739      14.608757      32.477723     -8.4343697      0              0            
      3780   332.36098     -185688.83      28.697967     -185660.13     -29757.323      8003.528       16.868739      14.608757      32.477723     -8.4343697      0              0            
[...]
    209040   318.49939     -185697.15      27.501078     -185669.65     -25835.027      8003.528       16.868739      14.608757      32.477723     -8.4343697      0              0            
    209050   320.13172     -185697.27      27.642022     -185669.63     -26156.012      8003.528       16.868739      14.608757      32.477723     -8.4343697      0              0            
    209060   322.60898     -185697.45      27.855923     -185669.59     -24850.666      8003.528       16.868739      14.608757      32.477723     -8.4343697      0              0            
    209070   321.96385     -185697.37      27.800218     -185669.57     -27301.934      8003.528       16.868739      14.608757      32.477723     -8.4343697      0              0            
    209080   328.27614     -185697.88      28.345258     -185669.54     -23682.326      8003.528       16.868739      14.608757      32.477723     -8.4343697      0              0            
    209090   321.14386     -185697.24      27.729416     -185669.51     -28235.975      8003.528       16.868739      14.608757      32.477723     -8.4343697      0              0            
    209100   329.24314     -185697.91      28.428754     -185669.48     -23126.969      8003.528       16.868739      14.608757      32.477723     -8.4343697      0              0            
    209110   315.69608     -185696.69      27.259023     -185669.44     -28422.004      8003.528       16.868739      14.608757      32.477723     -8.4343697      0              0            
    209120   319.59317     -185696.99      27.595521     -185669.4      -22297.808      8003.528       16.868739      14.608757      32.477723     -8.4343697      0              0            
    209130   311.33073     -185696.23      26.882094     -185669.35     -27649.397      8003.528       16.868739      14.608757      32.477723     -8.4343697      0              0            
    209140   320.05955     -185696.93      27.63579      -185669.29     -23382.896      8003.528       16.868739      14.608757      32.477723     -8.4343697      0              0            
    209150   310.3438      -185696.02      26.796876     -185669.22     -25575.474      8003.528       16.868739      14.608757      32.477723     -8.4343697      0              0            
    209160   323.05896     -185697.05      27.894777     -185669.15     -25050.252      8003.528       16.868739      14.608757      32.477723     -8.4343697      0              0            
    209170   316.71461     -185696.41      27.346969     -185669.07     -23766.234      8003.528       16.868739      14.608757      32.477723     -8.4343697      0              0            
    209180   318.8187      -185696.49      27.528648     -185668.96     -26084.942      8003.528       16.868739      14.608757      32.477723     -8.4343697      0              0            
    209190   318.75092     -185696.39      27.522796     -185668.87     -22914.419      8003.528       16.868739      14.608757      32.477723     -8.4343697      0              0            
    209200   327.29932     -185697.01      28.260914     -185668.75     -26465.797      8003.528       16.868739      14.608757      32.477723     -8.4343697      0              0            
    209210   320.60643     -185696.32      27.683012     -185668.64     -22979.752      8003.528       16.868739      14.608757      32.477723     -8.4343697      0              0            
    209220   310.86262     -185695.36      26.841675     -185668.51     -25075          8003.528       16.868739      14.608757      32.477723     -8.4343697      0              0            
    209230   317.89249     -185695.85      27.448674     -185668.41     -23325.283      8003.528       16.868739      14.608757      32.477723     -8.4343697      0              0            
    209240   328.36626     -185696.63      28.353039     -185668.28     -25496.028      8003.528       16.868739      14.608757      32.477723     -8.4343697      0              0            
    209250   338.39842     -185697.38      29.219275     -185668.16     -24179.471      8003.528       16.868739      14.608757      32.477723     -8.4343697      0              0            
    209260   334.08858     -185696.87      28.847138     -185668.02     -25021.57       8003.528       16.868739      14.608757      32.477723     -8.4343697      0              0            
    209270   342.13959     -185697.45      29.542309     -185667.91     -25027.366      8003.528       16.868739      14.608757      32.477723     -8.4343697      0              0            
    209280   333.04306     -185696.55      28.756862     -185667.79     -24521.757      8003.528       16.868739      14.608757      32.477723     -8.4343697      0              0            
    209290   338.06586     -185696.88      29.190559     -185667.69     -24240.175      8003.528       16.868739      14.608757      32.477723     -8.4343697      0              0            
    209300   327.77086     -185695.88      28.30163      -185667.58     -24505.751      8003.528       16.868739      14.608757      32.477723     -8.4343697      0              0            
    209310   329.67379     -185695.95      28.46594      -185667.48     -23100.642      8003.528       16.868739      14.608757      32.477723     -8.4343697      0              0            
    209320   323.32462     -185695.31      27.917715     -185667.39     -25217.431      8003.528       16.868739      14.608757      32.477723     -8.4343697      0              0            
    209330   328.25833     -185695.64      28.343721     -185667.29     -21522.285      8003.528       16.868739      14.608757      32.477723     -8.4343697      0              0            
    209340   330.70448     -185695.76      28.554935     -185667.21     -25910.622      8003.528       16.868739      14.608757      32.477723     -8.4343697      0              0            
    209350   335.56112     -185696.1       28.974286     -185667.13     -21006.143      8003.528       16.868739      14.608757      32.477723     -8.4343697      0              0            
    209360   333.13238     -185695.82      28.764575     -185667.05     -25745.375      8003.528       16.868739      14.608757      32.477723     -8.4343697      0              0            
    209370   336.28846     -185696.02      29.037089     -185666.99     -20733.761      8003.528       16.868739      14.608757      32.477723     -8.4343697      0              0            
    209380   341.92154     -185696.45      29.523481     -185666.93     -24861.766      8003.528       16.868739      14.608757      32.477723     -8.4343697      0              0            
    209390   341.42233     -185696.35      29.480376     -185666.87     -22126.557      8003.528       16.868739      14.608757      32.477723     -8.4343697      0              0            
    209400   333.82022     -185695.64      28.823966     -185666.82     -22231.595      8003.528       16.868739      14.608757      32.477723     -8.4343697      0              0            
    209410   327.10955     -185695.01      28.244528     -185666.76     -23474.704      8003.528       16.868739      14.608757      32.477723     -8.4343697      0              0            
    209420   331.40102     -185695.34      28.615078     -185666.72     -20209.445      8003.528       16.868739      14.608757      32.477723     -8.4343697      0              0            
    209430   326.7641      -185694.88      28.2147       -185666.67     -24001.622      8003.528       16.868739      14.608757      32.477723     -8.4343697      0              0            
    209440   330.34986     -185695.15      28.524316     -185666.62     -19771.158      8003.528       16.868739      14.608757      32.477723     -8.4343697      0              0            
    209450   329.3256      -185695.01      28.435874     -185666.58     -23786.484      8003.528       16.868739      14.608757      32.477723     -8.4343697      0              0            
    209460   329.44761     -185694.98      28.44641      -185666.53     -19492.815      8003.528       16.868739      14.608757      32.477723     -8.4343697      0              0            
    209470   326.97343     -185694.72      28.232775     -185666.49     -23277.677      8003.528       16.868739      14.608757      32.477723     -8.4343697      0              0            
    209480   325.26888     -185694.54      28.085594     -185666.45     -19822.69       8003.528       16.868739      14.608757      32.477723     -8.4343697      0              0            
    209490   320.47767     -185694.09      27.671893     -185666.41     -22534.216      8003.528       16.868739      14.608757      32.477723     -8.4343697      0              0            
    209500   314.46679     -185693.53      27.152879     -185666.38     -19259.706      8003.528       16.868739      14.608757      32.477723     -8.4343697      0              0            
    209510   323.14667     -185694.24      27.90235      -185666.34     -22259.448      8003.528       16.868739      14.608757      32.477723     -8.4343697      0              0            
    209520   326.69145     -185694.51      28.208427     -185666.3      -20342.753      8003.528       16.868739      14.608757      32.477723     -8.4343697      0              0            
    209530   325.6043      -185694.38      28.114556     -185666.26     -21864.789      8003.528       16.868739      14.608757      32.477723     -8.4343697      0              0            
    209540   325.56279     -185694.33      28.110972     -185666.22     -20658.569      8003.528       16.868739      14.608757      32.477723     -8.4343697      0              0            
    209550   329.75452     -185694.66      28.47291      -185666.18     -20950.853      8003.528       16.868739      14.608757      32.477723     -8.4343697      0              0            
    209560   331.76065     -185694.78      28.646131     -185666.13     -22079.917      8003.528       16.868739      14.608757      32.477723     -8.4343697      0              0            
    209570   337.11298     -185695.2       29.108282     -185666.09     -20106.552      8003.528       16.868739      14.608757      32.477723     -8.4343697      0              0            
    209580   333.93998     -185694.89      28.834307     -185666.06     -22284.191      8003.528       16.868739      14.608757      32.477723     -8.4343697      0              0            
    209590   328.67794     -185694.4       28.379952     -185666.02     -19376.07       8003.528       16.868739      14.608757      32.477723     -8.4343697      0              0            
    209600   325.77068     -185694.12      28.128923     -185665.99     -21297.706      8003.528       16.868739      14.608757      32.477723     -8.4343697      0              0            
    209610   331.12175     -185694.56      28.590965     -185665.97     -21022.355      8003.528       16.868739      14.608757      32.477723     -8.4343697      0              0            
    209620   333.5241      -185694.74      28.798398     -185665.94     -19364.624      8003.528       16.868739      14.608757      32.477723     -8.4343697      0              0            
    209630   336.18469     -185694.95      29.028129     -185665.92     -22214.852      8003.528       16.868739      14.608757      32.477723     -8.4343697      0              0            
    209640   340.21072     -185695.28      29.375758     -185665.9      -19052.242      8003.528       16.868739      14.608757      32.477723     -8.4343697      0              0            
    209650   338.98054     -185695.16      29.269538     -185665.89     -21852.372      8003.528       16.868739      14.608757      32.477723     -8.4343697      0              0            
    209660   339.70228     -185695.2       29.331858     -185665.87     -18899.291      8003.528       16.868739      14.608757      32.477723     -8.4343697      0              0            
    209670   340.49387     -185695.26      29.400208     -185665.86     -21622.434      8003.528       16.868739      14.608757      32.477723     -8.4343697      0              0            
    209680   339.83835     -185695.2       29.343606     -185665.85     -19051.92       8003.528       16.868739      14.608757      32.477723     -8.4343697      0              0            
    209690   343.43396     -185695.5       29.654072     -185665.85     -21942.857      8003.528       16.868739      14.608757      32.477723     -8.4343697      0              0            
    209700   356.47277     -185696.64      30.779919     -185665.86     -18663.68       8003.528       16.868739      14.608757      32.477723     -8.4343697      0              0            
    209710   348.36257     -185695.94      30.079637     -185665.86     -21494.392      8003.528       16.868739      14.608757      32.477723     -8.4343697      0              0            
    209720   344.58006     -185695.62      29.753033     -185665.87     -18667.319      8003.528       16.868739      14.608757      32.477723     -8.4343697      0              0            
    209730   346.02143     -185695.76      29.877489     -185665.89     -21900.85       8003.528       16.868739      14.608757      32.477723     -8.4343697      0              0            
    209740   354.42659     -185696.51      30.603239     -185665.91     -19067.03       8003.528       16.868739      14.608757      32.477723     -8.4343697      0              0            
    209750   349.20336     -185696.11      30.152236     -185665.95     -20838.101      8003.528       16.868739      14.608757      32.477723     -8.4343697      0              0            
    209760   336.6027      -185695.06      29.064222     -185665.99     -20847.174      8003.528       16.868739      14.608757      32.477723     -8.4343697      0              0            
    209770   335.68801     -185695.03      28.985242     -185666.05     -19025.024      8003.528       16.868739      14.608757      32.477723     -8.4343697      0              0            
    209780   331.87672     -185694.74      28.656153     -185666.09     -21386.143      8003.528       16.868739      14.608757      32.477723     -8.4343697      0              0            
    209790   339.29699     -185695.45      29.296862     -185666.15     -18427.125      8003.528       16.868739      14.608757      32.477723     -8.4343697      0              0            
    209800   341.10894     -185695.66      29.453317     -185666.21     -22535.461      8003.528       16.868739      14.608757      32.477723     -8.4343697      0              0            
    209810   332.74288     -185695.01      28.730943     -185666.27     -19406.413      8003.528       16.868739      14.608757      32.477723     -8.4343697      0              0            
    209820   323.80704     -185694.3       27.95937      -185666.34     -20737.917      8003.528       16.868739      14.608757      32.477723     -8.4343697      0              0            
    209830   328.40903     -185694.78      28.356733     -185666.42     -20497.153      8003.528       16.868739      14.608757      32.477723     -8.4343697      0              0            
    209840   334.82557     -185695.41      28.910774     -185666.5      -21353.863      8003.528       16.868739      14.608757      32.477723     -8.4343697      0              0            
    209850   335.14645     -185695.52      28.93848      -185666.58     -20988.776      8003.528       16.868739      14.608757      32.477723     -8.4343697      0              0            
    209860   334.26387     -185695.53      28.862273     -185666.67     -21286.589      8003.528       16.868739      14.608757      32.477723     -8.4343697      0              0            
    209870   335.19373     -185695.69      28.942563     -185666.75     -20925.947      8003.528       16.868739      14.608757      32.477723     -8.4343697      0              0            
    209880   343.84781     -185696.54      29.689807     -185666.85     -22602.935      8003.528       16.868739      14.608757      32.477723     -8.4343697      0              0            
    209890   333.17585     -185695.7       28.768328     -185666.93     -21144.69       8003.528       16.868739      14.608757      32.477723     -8.4343697      0              0            
    209900   326.00809     -185695.17      28.149422     -185667.02     -21822.663      8003.528       16.868739      14.608757      32.477723     -8.4343697      0              0            
    209910   330.0316      -185695.6       28.496835     -185667.1      -20805.276      8003.528       16.868739      14.608757      32.477723     -8.4343697      0              0            
    209920   337.98806     -185696.38      29.183841     -185667.19     -22540.119      8003.528       16.868739      14.608757      32.477723     -8.4343697      0              0            
    209930   335.5453      -185696.25      28.972919     -185667.28     -21702.031      8003.528       16.868739      14.608757      32.477723     -8.4343697      0              0            
    209940   324.54409     -185695.4       28.023012     -185667.38     -20892.991      8003.528       16.868739      14.608757      32.477723     -8.4343697      0              0            
    209950   323.51893     -185695.4       27.934494     -185667.46     -22231.691      8003.528       16.868739      14.608757      32.477723     -8.4343697      0              0            
    209960   328.18775     -185695.9       28.337627     -185667.56     -19759.734      8003.528       16.868739      14.608757      32.477723     -8.4343697      0              0            
    209970   331.90024     -185696.31      28.658184     -185667.65     -24274.285      8003.528       16.868739      14.608757      32.477723     -8.4343697      0              0            
    209980   332.1663      -185696.43      28.681158     -185667.75     -18412.121      8003.528       16.868739      14.608757      32.477723     -8.4343697      0              0            
    209990   324.99522     -185695.9       28.061964     -185667.84     -25133.271      8003.528       16.868739      14.608757      32.477723     -8.4343697      0              0            
    210000   320.88229     -185695.65      27.70683      -185667.94     -17432.971      8003.528       16.868739      14.608757      32.477723     -8.4343697      0              0            
Loop time of 17796.4 on 1 procs for 210000 steps with 669 atoms

Performance: 0.510 ns/day, 47.080 hours/ns, 11.800 timesteps/s
101.0% CPU use with 1 MPI tasks x 1 OpenMP threads

MPI task timing breakdown:
Section |  min time  |  avg time  |  max time  |%varavg| %total
---------------------------------------------------------------
Pair    | 17760      | 17760      | 17760      |   0.0 | 99.80
Neigh   | 18.626     | 18.626     | 18.626     |   0.0 |  0.10
Comm    | 2.1583     | 2.1583     | 2.1583     |   0.0 |  0.01
Output  | 12.405     | 12.405     | 12.405     |   0.0 |  0.07
Modify  | 1.9923     | 1.9923     | 1.9923     |   0.0 |  0.01
Other   |            | 0.7859     |            |       |  0.00

Nlocal:            669 ave         669 max         669 min
Histogram: 1 0 0 0 0 0 0 0 0 0
Nghost:           2705 ave        2705 max        2705 min
Histogram: 1 0 0 0 0 0 0 0 0 0
Neighs:              0 ave           0 max           0 min
Histogram: 1 0 0 0 0 0 0 0 0 0
FullNghs:        81418 ave       81418 max       81418 min
Histogram: 1 0 0 0 0 0 0 0 0 0

Total # of neighbors = 81418
Ave neighs/atom = 121.70105
Neighbor list builds = 10594
Dangerous builds = 0
Total wall time: 4:56:37
