system.data (written by ASE) 

669 	 atoms 
3  atom types
0.0       16.86873937198628  xlo xhi
0.0      14.608756825958874  ylo yhi
0.0      32.477723351489757  zlo zhi
    -8.4343696859931345                       0                       0  xy xz yz


Atoms 

     1   1      2.7347953130999998      9.6079788367999992      8.7706683377448798
     2   2            2.2724855575           10.4799096725      8.8804357467448796
     3   2      2.7394151187000002      9.5314304248999999      7.7689210240448796
     4   1      5.5393613766999996      9.6069022174000001      8.3858188877448789
     5   2      4.5819000655000002      9.6625326575999999       8.649268752644879
     6   2      5.9397614541000001      10.470148012299999      8.6608235802448803
     7   1      5.4334460711999997      4.7942801358000002      8.3803247622448787
     8   2      4.4769462286000001      4.8675032544999999      8.6414581282448779
     9   2              5.86759801             5.643126165      8.6530215996448803
    10   1      1.2849960574999999      7.2243153852999997      8.4592308485448804
    11   2     0.33111089840000002            7.2911586629      8.7163127118448784
    12   2      1.7050795379000001            8.0867627913      8.7118217909448781
    13   1      6.9490381400999999      7.1690965352999996      8.7697918865448798
    14   2            6.4629810531      8.0299516516999994      8.8556499250448795
    15   2      6.9741071143999998      7.0768616988000002      7.7688238734448793
    16   1      2.6545523797000001            4.7459048981      8.7697747890448774
    17   2      2.1762162044000002      5.6089386895000004      8.8861524068448787
    18   2      2.6563251918000002      4.6773288010999998      7.7660263994448782
    19   1      1.3627122333999999           12.0927779009      8.4583264415448802
    20   2     0.40718653589999998           12.1344856746      8.7164701784448795
    21   2      1.7566279763999999           12.9665728414      8.7131561880448771
    22   1            9.7232779939      7.2335521472000002      8.3801738708448781
    23   2      8.7689888442000008      7.2908190161000004      8.6546769399448777
    24   2           10.1418825444      8.0971946803999995      8.6373719373448772
    25   1            1.2747222051      2.3623880596000002      8.4634545862448789
    26   2            0.3233183496      2.4285614617000002      8.7244124371448777
    27   2            1.6893153688      3.2293919424999999      8.7167408612448796
    28   1      6.8725555071000004      2.3055130676000002      8.7719605644448784
    29   2      6.3590712532999998            3.1466971922      8.8687997453448801
    30   2            6.9792007243      2.2704542169000002      7.7735158303448779
    31   1      6.9134500603999998      12.104314709000001      8.8344900075448791
    32   2      6.4170582855999996           12.9507938698      8.9416195664448779
    33   2             6.936945819      12.040588811699999      7.8316818901448793
    34   1           -1.5573414422            7.1694002415       8.770376821544879
    35   2     -2.0487950325000002      8.0293890662000003        8.86574864854488
    36   2           -1.4750364394      7.1204105327000002      7.7710233157448796
    37   1            11.131608906      4.8015820951999997      8.7718923029448774
    38   2      10.650363305500001      5.6652668110000004      8.8536352510448779
    39   2            11.119178005      4.6816556922999997      7.7750207168448791
    40   1           -1.4499844514           11.9833015423      8.7736485558448791
    41   2     -1.9476880804000001           12.8305240213      8.8804344120448775
    42   2           -1.4091325037           11.9168284462       7.771328865844878
    43   1      9.7239217463000003      2.3594642010000002      8.5382684353448788
    44   2            8.7685469153      2.4215797167000002      8.7818839737448791
    45   2      10.127956467700001      3.2319135053000001      8.7735041157448777
    46   1     -2.8932142518999999      9.6012982561999998      8.4582561188448793
    47   2           -3.8454570359      9.6860392182999995      8.7190320517448789
    48   2           -2.4579044013           10.4577838045      8.7073227414448802
    49   1      5.5006550701999997   -0.078997889700000004      8.3770774606448803
    50   2      4.5496806680999997   0.0035741787000000001      8.6471094408448792
    51   2      5.9245669322000003     0.78814691540000004      8.6243260741448786
    52   1     -2.9394538685999998      4.7993499136000004      8.3797948483448792
    53   2     -3.8977586721000002      4.8762899316999997      8.6349994319448804
    54   2     -2.5153525189999999      5.6640953505000002       8.638795752644878
    55   1      2.6626482980000001  -0.0090845999000000004      8.7697094772448771
    56   2            2.1615684088     0.84312145530000004      8.8863126555448773
    57   2      2.7067942683999999   -0.047772554699999997      7.7676739724448796
    58   1           11.1305173351   -0.063388562300000006      8.7694559040448787
    59   2           10.6443036958     0.79380683900000004      8.9093786892448783
    60   2      11.086981482500001           -0.1293228407      7.7672828549448782
    61   1     -1.5968729370999999      2.3642802272000001      8.7699271478448786
    62   2     -2.0896110023999999      3.2221442588999998      8.8600976296448799
    63   2           -1.4813499876      2.3322149110999999      7.7720772073448794
    64   1     -5.7046673280000002      9.6122690283000001       8.772107687744878
    65   2     -6.1798723336999997           10.4726016792      8.8843013803448798
    66   2     -5.6480015617000001      9.5643968689999994      7.7685427504448787
    67   1     -7.1127802328999996      12.163204716499999      8.3814881821448779
    68   2     -8.0603456156999993           12.2210512844      8.6647295856448778
    69   2           -6.7050454597      13.037520366700001      8.6274543587448775
    70   1      13.896641843699999           -0.0066840373        8.30298743444488
    71   2      12.938183846699999    0.046963641899999999      8.5741228412448791
    72   2      14.306650335600001     0.86543829220000001      8.5647978919448775
    73   1      6.8010386974000001            7.4322306051      23.641074945344879
    74   2      7.7880675672999997      7.4273316338999997      23.543043209244878
    75   2      6.7234265768999997      7.4178876132999996       24.64170175714488
    76   1      5.4253439747999996      9.8126810036999998      24.024309496744877
    77   2      5.9712702456000004      9.0306054247999992      23.742984126544879
    78   2      5.9456544639000004           10.6150685457      23.756759221244877
    79   1      1.3282306585999999      7.1767357265999996      24.018814717544878
    80   2      1.8952791307000001      6.4025132579999999      23.761891771644876
    81   2      1.8157711218999999      7.9877198787000001      23.720018441344877
    82   1      5.5497945452000002      4.8790704365000002      24.017326468044878
    83   2      6.1419016175000003      4.1266972162000002      23.751178705544877
    84   2            6.0276176091      5.7055492794999996      23.751274749044878
    85   1      2.5503888349000001      9.6757917812999992      23.640116852844876
    86   2      3.5360499704000001      9.7228577203000004      23.541093553644878
    87   2      2.4739201413999998      9.6564490217000003      24.641694621444877
    88   1      2.7759107098000002      4.8024327074000004      23.639535788444878
    89   2      3.7653355360999998            4.8281401254      23.541816403144878
    90   2            2.7036245796      4.8071759917000003      24.642405720244877
    91   1      9.6478349791000007      7.3711931677999996      24.019336824244878
    92   2      10.186068451300001      6.5948889249000002      23.731458138044879
    93   2      10.196334030099999      8.1634288482000006      23.761780056444877
    94   1      1.2164245339999999           12.1191883249      24.014864927944878
    95   2            1.7486138589      11.320119870099999      23.753731717244879
    96   2      1.7307440482000001           12.8955845037      23.708225297544878
    97   1      1.5192430046000001      2.3640529584999999      24.024447172844877
    98   2      2.0656441393999998      1.5630670682000001      23.800716314544879
    99   2            2.0485605136      3.1585085202999998      23.745477662144879
   100   1     -1.4476745414000001      7.1050568759999999      23.640260405144879
   101   2    -0.46040212759999999      7.1040653550000004      23.530508899144877
   102   2           -1.5065674477      7.1783243502999996      24.640126894244879
   103   1      6.8361642642999998           12.2422041563      23.638271632944878
   104   2            7.8167469743      12.197620192900001      23.506431890344878
   105   2      6.7898988652999996      12.267086454399999      24.639836912444878
   106   1      7.1016122571000002            2.5659589641      23.638985173744878
   107   2      8.0885284579000007      2.6131677494000001      23.570969406444878
   108   2      7.0017731847000002            2.5380870002      24.638436175444877
   109   1            -1.633713701           12.0441146566      23.637738554244876
   110   2    -0.64405305209999997           12.0433557456      23.584989595944879
   111   2     -1.7684323824999999           12.0189607762      24.629098311244878
   112   1      11.245645505100001      5.0009773069000003      23.707448825644878
   113   2           12.2201355015      4.8952044987000001      23.561764365444876
   114   2      11.237346801399999      5.1629486596999996      24.700250981644878
   115   1     -2.9302337805000001      9.5471127978000005      23.942037422344878
   116   2     -2.3740238253000001      8.7654107010000004      23.701769925344877
   117   2     -2.4157893985999999           10.3460444232      23.661964148444877
   118   1      9.8823957702000005      2.6341743280999999       24.18068973884488
   119   2           10.4329887507             1.844599052      23.885543559644876
   120   2           10.4135411912      3.4496525880000002      23.945710385744878
   121   1     -2.8116238221000001      4.7459261357000004      24.097006525144877
   122   2           -2.2487249637      3.9624678949000001      23.858217438644878
   123   2     -2.2796711583999998      5.5396426266000001      23.809233813844877
   124   1      5.7329128879000004    0.062983649000000003      24.021084448844878
   125   2      6.2080862002000003    -0.76917775089999996      23.767618941244876
   126   2      6.3016309229000003     0.82410253010000001      23.745078132944879
   127   1           -1.2531548198            2.4344109099      23.705354975044877
   128   2    -0.27603654319999998      2.4127187989999999      23.530900436144879
   129   2           -1.2418391216      2.4245628843000002      24.711696952044878
   130   1           -5.7395231374      9.6728460617999996      23.639327755244878
   131   2     -4.7595600257999999      9.6081856975999997      23.492032690344878
   132   2     -5.7597949918999998      9.7237307500999997      24.642478624944879
   133   1      2.9209412399999999   -0.065835998199999995      23.635787261544877
   134   2      3.9034015054000002  -0.0073852220000000003      23.523798970144878
   135   2      2.8618161284000001           -0.1595977532      24.631346718544879
   136   1      11.205187818400001     0.33028039450000002      23.637266341244878
   137   2           12.1950206549            0.3420094494      23.565505842844878
   138   2           11.0991977528            0.1192362538      24.610568086544877
   139   1           14.0176250294     0.19114006729999999      24.022155619644877
   140   2           14.4768867847    -0.64093690260000002      23.743743164844879
   141   2      14.638430849500001     0.93187338409999998      23.785090868644879
   142   1     -7.1442440079000002      12.119435059300001      23.943581984944878
   143   2     -6.6229232662999999           11.3114866399      23.704562611544876
   144   2           -6.5736009248      12.878155121800001      23.673850117844879
   145   1     -6.6181125413000004     -11.930924732699999      11.402800290944878
   146   2     -6.8146604741000001          -12.3327275353       10.50209032154488
   147   2     -6.3504087587000004          -11.0157103579      11.152783585544878
   148   1          -14.7518565102      42.674962070399999      15.855863725744879
   149   2          -14.2331725429      43.322847346300001      15.189826190744878
   150   2          -14.1661282544      42.145254626400003      16.410600243444879
   151   1          -17.5589158541           31.6042828394      12.083139688044877
   152   2     -17.481606468399999           30.8528586475      11.428029163844879
   153   2     -16.722642091800001      32.125770260400003      11.879399148144877
   154   1      18.662828444100001           18.3718724804      15.000132654344878
   155   2      19.335540051999999           18.1719078713      15.713169011844879
   156   2      19.171607126800001      18.354122908499999      14.184416488444878
   157   1     -10.020737801599999            0.2934151599      14.112548866444879
   158   2     -9.8486455211999999     0.79484423979999996      14.945556655844879
   159   2          -10.5905809551     0.84952381720000003      13.530332190144879
   160   1          -12.6561805492      4.6574538626999997      20.580213384444878
   161   2     -12.104771663899999            5.4529592702       20.79824919094488
   162   2     -12.906118191499999      4.8452719497999999      19.645246874044879
   163   1     -5.2587726093000002      40.691902922200001      17.494708026244879
   164   2     -4.3032474733999999      40.989000459300001      17.416543173444879
   165   2     -5.2322448931999999           40.0168838966      18.282591729044878
   166   1      8.1209163822000008           11.9984711075      20.461324140844876
   167   2      8.6539733472999991           12.1308338068      19.638969897344879
   168   2      7.1703158344000002           12.0232275524      20.230645219344879
   169   1     -5.8774082531999996      40.143755537300002      15.123071451944877
   170   2     -5.6414754486999996      40.155980201699997      16.197267147044879
   171   2     -5.0429743112000001      40.047719444899997       14.61550027144488
   172   1           18.9138599393      22.029260577399999      12.882692591644879
   173   2      17.895299491100001            21.870046914       12.97845909584488
   174   2      19.228575969800001      22.409295689899999       13.74451067234488
   175   1     -19.980256167099999      12.829735020899999      16.794110717844877
   176   2     -19.849318191599998      13.643055452600001      17.364965092144878
   177   2     -19.115509016800001      12.578202861299999      16.421147624544879
   178   1     -19.405811094200001      8.5008213984999994      18.383151097544879
   179   2          -19.1230807259      7.8738416632000003      19.111132704844877
   180   2          -20.0491107486      9.1207792862999995      18.810613842744878
   181   1      8.0557855538999998      26.893248134499999       16.47127832334488
   182   2      8.8622815394999996      27.494905439899998       16.25298277954488
   183   2      8.3414400269000009           26.0475248654      16.118346040644877
   184   1           -0.4018422841           23.5116769302      20.504785229144879
   185   2     0.55854141980000005      23.261437779800001      20.709581359944877
   186   2    -0.40655179969999999      24.478175123900002      20.623878273144879
   187   1     0.98407600200000001      18.347723834500002      18.660549386244877
   188   2               1.7242715           17.8943157918      18.234591265444877
   189   2     0.32236493399999999      17.670750312999999      18.915216902544877
   190   1      19.618867681899999           20.8317681312      18.645184176644879
   191   2           18.7617200149      21.070769224399999      18.222103132844879
   192   2      20.263794459100001      21.332580162599999      18.078138768844877
   193   1          -11.2480589782      29.629924257700001       18.58680873504488
   194   2          -10.5913345441      30.376551162399998      18.749166576944877
   195   2          -11.8550670416           29.5969579442      19.381275846444879
   196   1      2.8754991693999998      51.729163906099998      15.790614104844877
   197   2      2.5051674373999999           52.4736303615      16.283364109144877
   198   2      3.7547907773000002      51.580995176199998       16.21028550664488
   199   1     -17.688690566399998      16.624684473199999      19.674487320144877
   200   2     -18.443779377599999      16.995094905199998      20.171744455944879
   201   2          -17.1634016591      16.108420849800002      20.391860798644878
   202   1            6.9412598639            13.326836857      12.403682631744879
   203   2      6.8416970726999997           13.8493690709       13.20667469034488
   204   2             7.842748286           12.9697478777      12.563535985844879
   205   1      7.6929429166999999           27.9978394878      18.800727551044879
   206   2      6.8684713872999996      28.542804457500001      18.808544296244879
   207   2      7.7810538023999998      27.500511381999999      17.953054735744878
   208   1      9.6695351464999995      20.569154186900001      20.785825685644877
   209   2           10.0652236933           20.8338956638      19.932787074644878
   210   2           10.4669989637           20.1796355394      21.221363935244877
   211   1      3.1083308381000001           15.2868873688      14.329873608944879
   212   2      4.0518241135000004      15.362650326400001       14.03425953394488
   213   2      2.6372178493999998      15.501689406900001      13.513792576244878
   214   1      29.730834524900001            10.719434391      12.999593075844878
   215   2           29.5817179764           10.7404409522      12.076547214644879
   216   2      30.472103296899999           11.3498672602       13.24831691934488
   217   1          -29.8299586226      8.2574762207999992       11.43440304614488
   218   2     -30.721840965999998      8.6816966099999995      11.226214267044877
   219   2     -30.154721101100002      7.4031249471000002      11.732807305244879
   220   1           -2.3896729926      3.2580770777999999      15.563335168044876
   221   2     -1.5784516499000001            2.8553145111      15.931744137144879
   222   2           -1.9736451873      3.8105228977999999      14.861718393444878
   223   1     -4.6579421389000002      11.995009141600001      21.258381115744879
   224   2     -5.5892058904999997           12.2598251638      21.404278911644877
   225   2     -4.2416790759999996      12.828888896900001      20.965167252044878
   226   1           -0.5337415378      31.648462282899999      17.307732271044877
   227   2    -0.22592932439999999      32.044387780299999      18.173742192744879
   228   2     0.25792426000000002      31.530457967299999      16.787432021844879
   229   1      6.4903736886000001     -1.1107919319999999       10.91709994114488
   230   2      6.0696771008999999     -1.4936509043999999      11.683243991244879
   231   2      6.1883238907000004    -0.19156875579999999       11.00434173394488
   232   1          -12.4231068553            10.743717194       13.40106715854488
   233   2     -12.731949907000001      9.9413545453999994      12.979650000344879
   234   2     -12.403423163499999           11.4631366343       12.71048701424488
   235   1      13.649119322100001      19.306053511599998      11.767159663644879
   236   2           14.5121000218      19.589352935499999      12.124422302844877
   237   2      13.108225254100001      19.599285757800001      12.569911534944879
   238   1     -22.896569014499999           -1.6965035083      20.850431158044877
   239   2     -23.087842370099999     -2.2277083558999999      20.014985978544878
   240   2     -21.927998499499999           -1.9316810437      20.924522702744877
   241   1      4.3242076844000001      21.799726894900001      22.041936888544878
   242   2      5.0659970122000004           22.2626443612      21.613075447644878
   243   2      4.3416655969000004      20.861666203999999      21.723859843344879
   244   1     -6.3020615589000002     -7.3899671725999996      18.337466881544877
   245   2     -5.6143310095999999     -7.7143069893999998      17.724593218544879
   246   2     -6.9889363597000003     -7.0030951977000004      17.769974643144877
   247   1           20.0437954157    -0.39947346880000001      15.634696063144879
   248   2      19.273237673099999    -0.95496691600000005      15.442766850344878
   249   2      20.773589987800001    -0.99870881720000004      15.794799325144879
   250   1     -6.4999868417000002      9.6185522944000006      11.472142120844879
   251   2           -6.4704280532      8.8092309984000003      12.077247728944879
   252   2     -7.2607930828000002      9.4049157943000008      10.907088294344877
   253   1           -6.3450000462      19.130526963099999      16.018163945144877
   254   2     -6.9666775080000001      19.831682490199999      16.198441806144878
   255   2     -6.0618052152999997      18.656344203500002      16.869259184644879
   256   1            1.8982422179      30.324656131899999      19.701854500444878
   257   2            1.3323733114           30.3383957301      20.513107123344877
   258   2      1.4601001600000001      29.654546055299999      19.114614783644878
   259   1     -16.631479026899999      1.7444541677000001       14.57563470024488
   260   2     -16.961408414400001            1.8020005391      13.655860045844879
   261   2     -15.702430426699999             1.922711635      14.416565975844879
   262   1      31.809074361099999           21.6191022651      15.649815934844877
   263   2      32.504448517900002      21.057186532900001      16.060067554144879
   264   2            31.738138994            22.202530184      16.413355924744877
   265   1     -2.8398537790999998      18.457279354200001       16.11794449854488
   266   2     -3.4488812711999999      18.358107306000001      15.362794483144878
   267   2           -2.0565739739      17.954231899700002      15.867111254044879
   268   1            3.0337936523      32.169031663399998      17.865735030744879
   269   2      2.5618939083000001      31.334498932799999      18.102111974444878
   270   2      3.9632478816000001      31.926787102599999      17.662098689344877
   271   1           18.1453429542      34.942075133199999      12.461255228744879
   272   2      18.613832002100001      34.969024868299996      13.314197138044879
   273   2      17.842686659600002           35.7707929412      12.156728380644878
   274   1      8.2891410575000002      21.375085381800002      15.518957646044878
   275   2      8.1328603338000001      20.510536311900001      15.092898969744876
   276   2      7.6067639251000001      21.385674314999999      16.220367257344879
   277   1     -2.8275545168999998      8.1508515239000001      13.787000345944879
   278   2           -2.7573498256            7.8000916426      14.684530712944881
   279   2     -3.4498775292000001      8.9196499774000007      13.849058128544879
   280   1          -13.0224314579      6.5770708103000004       14.71271211104488
   281   2          -12.0564886213      6.4416173350000001      14.863765598244878
   282   2     -13.375474837400001            6.0305481342      15.396972058144879
   283   1      16.800787705099999            29.485886205      10.596235504344879
   284   2      17.693344941500001      29.188294281000001      10.937689781744879
   285   2      16.091908744600001      28.904926985900001      10.978986015044878
   286   1      9.7431920011000006     0.81742129590000001      17.778425404544876
   287   2      9.0853544604999996            0.2413946522      18.269939484544878
   288   2           10.0025536536    0.055581859400000003      17.129310560944877
   289   1     -4.3330766736999999      14.805864617099999      20.811866825344879
   290   2     -5.1526193362999999      15.185321398799999      20.384383190144877
   291   2     -3.8657119397000002      15.638501568200001      21.128661860144877
   292   1     0.27465740049999998     -8.8649761178999995      17.074559026844877
   293   2     0.89799333889999999     -9.1481885042000002      16.386752791044877
   294   2             0.471103461     -9.6111211187999999      17.798781404944879
   295   1      15.192014031099999      40.583131459999997       20.35694171884488
   296   2           15.5697307499      41.304341585800003      19.831107381244877
   297   2      15.015544693700001           41.0663508114      21.218915080344878
   298   1      3.7165276757000001     -7.5409750431000004      10.772175057944878
   299   2      3.7610955008000002     -6.6512302693000001      10.440295843044879
   300   2      3.0441681276999999     -7.3931372629999998      11.483989942944877
   301   1     -3.1914710359999998     -2.0394758426999999      21.028554657544877
   302   2     -3.0411238918999999     -2.1936408422999998      22.001483132844879
   303   2     -3.1862707083999999           -1.0612827423      20.907282675944877
   304   1      23.965618532299999      8.9121603078000007      12.161313615044879
   305   2      22.999272085699999      9.1164827119999998      12.006475966844878
   306   2      24.268897403699999      9.2923999516000002       12.99727734434488
   307   1      12.416780215699999      54.717209474000001      17.327078985544876
   308   2           13.1485884472      54.956243847499998      16.737645538344879
   309   2           11.7477972966      54.369759658100001      16.596669544944877
   310   1           -2.5846069611           16.3383210583       11.84162791314488
   311   2     -2.8140112859999999            17.265239764       11.70437394274488
   312   2     -3.5044212190000001      16.030310055699999      12.060721248244878
   313   1           17.3874748082      9.3361147983000006      17.312101058344879
   314   2      16.514146115799999      9.1543785817999996      17.735757166944879
   315   2      17.754278900599999           10.0465726483      17.887725475644878
   316   1      9.5849693979000001           11.8562888406      12.976687207044879
   317   2      9.6684785739999999           11.0609761026      12.476086045944879
   318   2           10.1379869517           11.8080179227       13.82257908294488
   319   1     0.32796194610000001    -0.32909034279999999      21.395149784744877
   320   2            0.1233270548           -1.2669194041      21.015625482144877
   321   2     0.40289901090000002    -0.51715247880000004      22.314030425844877
   322   1     -5.3805966967999996      23.437668024499999      20.158586964644879
   323   2     -5.7223703712000002      22.709213664499998      19.596811088444877
   324   2     -4.5054069354999999      23.093575721499999      20.461100176144878
   325   1     -2.2941787223999999      4.6858725440000004      17.951962484244877
   326   2     -2.3638465878999999      4.0950630456999999      18.714319074144878
   327   2     -2.0787258351000002      4.0841300871000001      17.218250893844878
   328   1           22.6959792466           14.7974712758      14.682306204444878
   329   2      22.697181890700001            14.766608087      15.653988196644878
   330   2      22.884004550499998      15.734614802599999      14.527549479544877
   331   1      2.7626043557000002              15.7130613      20.159467139244878
   332   2      2.3298527924000001           15.6477071054      19.211161794444877
   333   2            2.8183999306           14.7610189723      20.358279862644878
   334   1           14.6102191026     0.32188672489999998      20.224074463344877
   335   2      15.552839347300001            0.2465037155      20.521473439744877
   336   2      14.404881833699999            1.2433800658      20.077209888344878
   337   1     -5.2172100823000003      4.3514636835999996       12.71009570054488
   338   2     -4.6477867923999998            5.1320603534       12.89558141304488
   339   2     -5.8858633899999999      4.4795229303999999       12.01138011944488
   340   1     -2.0726611098999999      12.193549836900001      13.980685583744879
   341   2     -2.0053818801999999           13.1883881157      13.937307850144879
   342   2     -1.1898760284000001           11.8295314606      13.746046706844879
   343   1      6.2423902772000002           14.8519082627      17.451502504344877
   344   2      6.7883622168000004           15.6104313167      17.774861122244879
   345   2      6.0812379649999997           14.4813189846      18.375014287744879
   346   1     -7.2377437752000002    -0.83726190330000005       11.17913860804488
   347   2     -7.3520094923999997   -0.063228394199999996      11.800676403244879
   348   2     -8.1865564671000008           -1.1387713516      10.942607599744878
   349   1     -3.1501252278999998     -7.1546453435000004      20.961866886444877
   350   2           -2.5065764845     -6.8871687959000001      21.670620673244876
   351   2           -2.8177603516     -6.6276530671999998      20.226457573744877
   352   1           11.9359683979      15.577692606299999       13.20033782844488
   353   2           11.4772638905           14.9101660843      12.608061493244879
   354   2      11.784162177800001      15.095321306600001       14.07456803764488
   355   1      2.1488317776999999           10.0055662108      15.384535036744879
   356   2      2.2906671374999998      9.0880843305999992      15.076243483944879
   357   2            1.3671093122      9.9544514622999998      15.959069289444876
   358   1      7.6917025078999997           19.3891568998      13.835901750844879