system.data (written by ASE) 

669 	 atoms 
3  atom types
0.0       16.86873937198628  xlo xhi
0.0      14.608756825958874  ylo yhi
0.0      32.477723351489757  zlo zhi
    -8.4343696859931345                       0                       0  xy xz yz


Atoms 

     1   1              2.73479531      9.6079788399999995        8.77066834074488
     2   2      2.2724855599999998             10.47990967      8.8804357507448799
     3   2      2.7394151199999999      9.5314304199999995      7.7689210207448793
     4   1      5.5393613799999999      9.6069022200000003      8.3858188907448792
     5   2      4.5819000699999997      9.6625326600000001      8.6492687507448771
     6   2      5.9397614499999998      10.470148010000001      8.6608235807448786
     7   1      5.4334460699999996      4.7942801399999997      8.3803247607448803
     8   2      4.4769462300000002      4.8675032500000004      8.6414581307448799
     9   2              5.86759801      5.6431261599999996      8.6530216007448786
    10   1      1.2849960600000001      7.2243153900000001      8.4592308507448806
    11   2     0.33111089999999999      7.2911586599999998      8.7163127107448801
    12   2      1.7050795400000001      8.0867627899999999      8.7118217907448781
    13   1      6.9490381399999999              7.16909654      8.7697918907448802
    14   2      6.4629810499999998      8.0299516499999992      8.8556499207448773
    15   2      6.9741071100000003      7.0768617000000003      7.7688238707448791
    16   1      2.6545523800000002      4.7459049000000002      8.7697747907448793
    17   2      2.1762161999999998      5.6089386899999996      8.8861524107448773
    18   2              2.65632519      4.6773287999999997      7.7660264007448783
    19   1      1.3627122300000001              12.0927779      8.4583264407448802
    20   2     0.40718653999999999             12.13448567      8.7164701807448779
    21   2              1.75662798             12.96657284      8.7131561907448791
    22   1      9.7232779899999997      7.2335521500000004      8.3801738707448798
    23   2      8.7689888400000005      7.2908190199999998      8.6546769407448778
    24   2      10.141882539999999      8.0971946799999994      8.6373719407448775
    25   1              1.27472221      2.3623880599999998      8.4634545907448775
    26   2     0.32331834999999998      2.4285614600000001       8.724412440744878
    27   2      1.6893153700000001      3.2293919400000002      8.7167408607448778
    28   1      6.8725555099999998      2.3055130699999999      8.7719605607448798
    29   2      6.3590712500000004      3.1466971899999998      8.8687997507448806
    30   2      6.9792007199999997              2.27045422       7.773515830744878
    31   1      6.9134500599999997      12.104314710000001      8.8344900107448794
    32   2      6.4170582899999999             12.95079387        8.94161957074488
    33   2              6.93694582      12.040588809999999      7.8316818907448793
    34   1     -1.5573414400000001      7.1694002399999999      8.7703768207448789
    35   2             -2.04879503      8.0293890700000006      8.8657486507448802
    36   2             -1.47503644              7.12041053      7.7710233207448782
    37   1      11.131608910000001      4.8015821000000001      8.7718923007448772
    38   2      10.650363309999999      5.6652668100000003      8.8536352507448797
    39   2      11.119178010000001      4.6816556900000004      7.7750207207448794
    40   1     -1.4499844500000001      11.983301539999999      8.7736485607448778
    41   2             -1.94768808             12.83052402      8.8804344107448792
    42   2     -1.4091324999999999      11.916828450000001      7.7713288707448784
    43   1      9.7239217500000006      2.3594642000000001      8.5382684407448792
    44   2      8.7685469200000004              2.42157972      8.7818839707448788
    45   2      10.127956470000001              3.23191351      8.7735041207448781
    46   1     -2.8932142500000002      9.6012982600000001      8.4582561207448776
    47   2     -3.8454570399999999      9.6860392199999996      8.7190320507448789
    48   2     -2.4579043999999999              10.4577838      8.7073227407448783
    49   1      5.5006550699999996   -0.078997890000000001      8.3770774607448786
    50   2      4.5496806699999999   0.0035741800000000002      8.6471094407448774
    51   2      5.9245669300000001     0.78814691999999997      8.6243260707448783
    52   1     -2.9394538699999999      4.7993499100000001      8.3797948507448794
    53   2             -3.89775867      4.8762899300000004      8.6349994307448803
    54   2             -2.51535252      5.6640953500000002      8.6387957507448796
    55   1      2.6626482999999999              -0.0090846      8.7697094807448792
    56   2      2.1615684100000001     0.84312145999999999      8.8863126607448777
    57   2      2.7067942700000001   -0.047772549999999997      7.7676739707448794
    58   1      11.130517340000001   -0.063388559999999997      8.7694559007448802
    59   2              10.6443037     0.79380684000000001      8.9093786907448802
    60   2             11.08698148    -0.12932283999999999      7.7672828507448797
    61   1     -1.5968729399999999      2.3642802299999999      8.7699271507448806
    62   2     -2.0896110000000001      3.2221442599999999      8.8600976307448782
    63   2             -1.48134999      2.3322149099999998      7.7720772107448797
    64   1     -5.7046673300000004      9.6122690300000002      8.7721076907448783
    65   2     -6.1798723300000002             10.47260168      8.8843013807448799
    66   2             -5.64800156      9.5643968699999995      7.7685427507448788
    67   1     -7.1127802300000003             12.16320472      8.3814881807448778
    68   2     -8.0603456199999997      12.221051279999999        8.66472959074488
    69   2             -6.70504546      13.037520369999999      8.6274543607448777
    70   1      13.896641839999999  -0.0066840399999999996      8.3029874307448779
    71   2             12.93818385    0.046963640000000001      8.5741228407448773
    72   2      14.306650339999999     0.86543829000000005      8.5647978907448774
    73   1      6.8010387000000003      7.4322306100000004       23.64107495074488
    74   2      7.7880675699999999      7.4273316300000003       23.54304321074488
    75   2      6.7234265799999999      7.4178876100000002       24.64170176074488
    76   1      5.4253439700000001      9.8126809999999995      24.024309500744881
    77   2      5.9712702499999999      9.0306054200000005       23.74298413074488
    78   2      5.9456544600000001             10.61506855      23.756759220744879
    79   1              1.32823066      7.1767357299999999      24.018814720744881
    80   2              1.89527913      6.4025132600000001      23.761891770744878
    81   2              1.81577112      7.9877198800000002       23.72001844074488
    82   1      5.5497945499999997      4.8790704399999996       24.01732647074488
    83   2      6.1419016199999996      4.1266972199999996      23.751178710744881
    84   2      6.0276176100000001      5.7055492799999996       23.75127475074488
    85   1      2.5503888300000002      9.6757917800000008      23.640116850744878
    86   2      3.5360499700000001      9.7228577200000004      23.541093550744879
    87   2      2.4739201400000002      9.6564490200000002      24.641694620744879
    88   1      2.7759107099999998      4.8024327099999997       23.63953579074488
    89   2      3.7653355400000001      4.8281401300000004      23.541816400744878
    90   2      2.7036245800000001      4.8071759900000002      24.642405720744879
    91   1      9.6478349800000007      7.3711931699999997      24.019336820744879
    92   2             10.18606845      6.5948889199999998      23.731458140744881
    93   2      10.196334029999999      8.1634288500000007      23.761780060744879
    94   1      1.2164245300000001      12.119188319999999      24.014864930744881
    95   2      1.7486138600000001      11.320119869999999      23.753731720744881
    96   2              1.73074405              12.8955845      23.708225300744878
    97   1      1.5192429999999999              2.36405296      24.024447170744878
    98   2      2.0656441399999999              1.56306707      23.800716310744878
    99   2      2.0485605100000002      3.1585085199999998      23.745477660744879
   100   1             -1.44767454      7.1050568800000002      23.640260400744879
   101   2    -0.46040213000000002      7.1040653599999999      23.530508900744881
   102   2     -1.5065674499999999      7.1783243499999996      24.640126890744881
   103   1      6.8361642600000003             12.24220416      23.638271630744878
   104   2      7.8167469699999996             12.19762019      23.506431890744881
   105   2              6.78989887      12.267086450000001      24.639836910744879
   106   1      7.1016122599999996      2.5659589600000001      23.638985170744881
   107   2      8.0885284599999991      2.6131677500000001       23.57096941074488
   108   2      7.0017731799999998                2.538087      24.638436180744879
   109   1     -1.6337136999999999             12.04411466      23.637738550744881
   110   2    -0.64405305000000002             12.04335575       23.58498960074488
   111   2     -1.7684323799999999             12.01896078       24.62909831074488
   112   1      11.245645509999999      5.0009773099999997       23.70744883074488
   113   2              12.2201355      4.8952045000000002      23.561764370744879
   114   2      11.237346799999999      5.1629486599999996       24.70025098074488
   115   1             -2.93023378      9.5471128000000007      23.942037420744878
   116   2     -2.3740238300000001      8.7654107000000003      23.701769930744881
   117   2              -2.4157894             10.34604442      23.661964150744879
   118   1      9.8823957700000005              2.63417433      24.180689740744878
   119   2             10.43298875              1.84459905      23.885543560744878
   120   2             10.41354119      3.4496525899999999      23.945710390744878
   121   1     -2.8116238199999999      4.7459261399999999       24.09700652074488
   122   2     -2.2487249600000001      3.9624678900000001       23.85821744074488
   123   2     -2.2796711599999999      5.5396426300000003      23.809233810744878
   124   1      5.7329128899999997    0.062983650000000002       24.02108445074488
   125   2      6.2080862000000003    -0.76917774999999999      23.767618940744878
   126   2              6.30163092              0.82410253      23.745078130744879
   127   1             -1.25315482              2.43441091      23.705354970744878
   128   2             -0.27603654      2.4127187999999999       23.53090044074488
   129   2     -1.2418391200000001      2.4245628799999999       24.71169695074488
   130   1     -5.7395231400000002      9.6728460599999995       23.63932776074488
   131   2     -4.7595600300000003      9.6081856999999999      23.492032690744878
   132   2     -5.7597949899999996      9.7237307499999996      24.642478620744878
   133   1      2.9209412399999999   -0.065836000000000006       23.63578726074488
   134   2      3.9034015100000001  -0.0073852199999999996      23.523798970744881
   135   2      2.8618161299999998    -0.15959775000000001       24.63134672074488
   136   1      11.205187820000001     0.33028038999999998       23.63726634074488
   137   2             12.19502065     0.34200944999999999       23.56550584074488
   138   2             11.09919775              0.11923625      24.610568090744881
   139   1             14.01762503              0.19114007      24.022155620744879
   140   2      14.476886779999999    -0.64093690000000003      23.743743160744881
   141   2      14.638430850000001     0.93187337999999997      23.785090870744881
   142   1     -7.1442440100000004      12.119435060000001      23.943581980744881
   143   2     -6.6229232700000003             11.31148664       23.70456261074488
   144   2     -6.5736009199999996      12.878155120000001      23.673850120744881
   145   1     -6.6181125400000003     -11.930924729999999      11.402800290744878
   146   2     -6.8146604699999997            -12.33272754       10.50209032074488
   147   2     -6.3504087599999997            -11.01571036      11.152783590744878
   148   1            -14.75185651      42.674962069999999      15.855863730744879
   149   2            -14.23317254      43.322847350000004      15.189826190744881
   150   2            -14.16612825      42.145254629999997      16.410600240744881
   151   1     -17.558915850000002             31.60428284      12.083139690744879
   152   2     -17.481606469999999      30.852858650000002      11.428029160744877
   153   2     -16.722642090000001      32.125770260000003      11.879399150744877
   154   1      18.662828439999998             18.37187248      15.000132650744881
   155   2      19.335540049999999      18.171907869999998      15.713169010744881
   156   2      19.171607130000002      18.354122910000001       14.18441649074488
   157   1     -10.020737799999999     0.29341516000000001      14.112548870744877
   158   2     -9.8486455199999998     0.79484423999999998      14.945556660744881
   159   2            -10.59058096     0.84952382000000004      13.530332190744879
   160   1            -12.65618055      4.6574538600000004       20.58021338074488
   161   2     -12.104771660000001              5.45295927       20.79824919074488
   162   2     -12.906118190000001      4.8452719499999999      19.645246870744881
   163   1     -5.2587726100000003      40.691902919999997      17.494708030744881
   164   2     -4.3032474699999996             40.98900046       17.41654317074488
   165   2     -5.2322448899999996      40.016883900000003       18.28259173074488
   166   1      8.1209163800000006      11.998471110000001      20.461324140744878
   167   2      8.6539733499999993             12.13083381      19.638969900744879
   168   2      7.1703158299999998             12.02322755      20.230645220744879
   169   1     -5.8774082500000002      40.143755540000001      15.123071450744881
   170   2     -5.6414754499999997      40.155980200000002      16.197267150744878
   171   2             -5.04297431      40.047719440000002      14.615500270744878
   172   1      18.913859939999998      22.029260579999999      12.882692590744877
   173   2      17.895299489999999      21.870046909999999      12.978459100744878
   174   2      19.228575970000001             22.40929569       13.74451067074488
   175   1     -19.980256170000001      12.829735019999999      16.794110720744879
   176   2     -19.849318190000002             13.64305545      17.364965090744878
   177   2     -19.115509020000001      12.578202859999999      16.421147620744879
   178   1            -19.40581109      8.5008213999999995      18.383151100744879
   179   2     -19.123080730000002      7.8738416600000001      19.111132700744879
   180   2     -20.049110750000001      9.1207792899999998      18.810613840744878
   181   1      8.0557855499999995             26.89324813      16.471278320744879
   182   2      8.8622815399999997             27.49490544       16.25298278074488
   183   2      8.3414400299999993             26.04752487      16.118346040744878
   184   1             -0.40184228             23.51167693      20.504785230744879
   185   2     0.55854141999999996      23.261437780000001      20.709581360744881
   186   2    -0.40655180000000002             24.47817512      20.623878270744878
   187   1     0.98407599999999995             18.34772383       18.66054939074488
   188   2               1.7242715             17.89431579      18.234591270744879
   189   2     0.32236492999999999      17.670750309999999       18.91521690074488
   190   1      19.618867680000001             20.83176813      18.645184180744881
   191   2      18.761720010000001      21.070769219999999       18.22210313074488
   192   2             20.26379446      21.332580159999999      18.078138770744879
   193   1            -11.24805898      29.629924259999999      18.586808730744881
   194   2            -10.59133454      30.376551160000002       18.74916658074488
   195   2            -11.85506704      29.596957939999999      19.381275850744881
   196   1      2.8754991699999999      51.729163909999997      15.790614100744879
   197   2      2.5051674400000001      52.473630360000001      16.283364110744881
   198   2              3.75479078      51.580995180000002      16.210285510744878
   199   1     -17.688690569999999      16.624684469999998       19.67448732074488
   200   2     -18.443779379999999      16.995094909999999      20.171744460744879
   201   2     -17.163401660000002      16.108420850000002       20.39186080074488
   202   1      6.9412598599999997             13.32683686      12.403682630744878
   203   2      6.8416970700000004             13.84936907       13.20667469074488
   204   2      7.8427482900000003             12.96974788      12.563535990744878
   205   1      7.6929429200000001             27.99783949      18.800727550744881
   206   2      6.8684713899999998      28.542804459999999      18.808544300744881
   207   2      7.7810537999999996      27.500511379999999      17.953054740744879
   208   1      9.6695351499999997      20.569154189999999      20.785825690744879
   209   2             10.06522369             20.83389566       19.93278707074488
   210   2             10.46699896             20.17963554      21.221363930744879
   211   1      3.1083308399999998      15.286887370000001       14.32987361074488
   212   2      4.0518241100000001      15.362650329999999       14.03425953074488
   213   2      2.6372178499999999      15.501689409999999       13.51379258074488
   214   1      29.730834519999998             10.71943439       12.99959308074488
   215   2      29.581717980000001             10.74044095      12.076547210744877
   216   2      30.472103300000001             11.34986726       13.24831692074488
   217   1     -29.829958619999999      8.2574762199999991       11.43440305074488
   218   2     -30.721840969999999      8.6816966099999995       11.22621427074488
   219   2             -30.1547211      7.4031249499999996      11.732807300744877
   220   1     -2.3896729900000002      3.2580770800000001      15.563335170744878
   221   2     -1.5784516500000001      2.8553145099999999      15.931744140744879
   222   2             -1.97364519               3.8105229       14.86171839074488
   223   1     -4.6579421400000003      11.995009140000001      21.258381120744879
   224   2     -5.5892058899999997             12.25982516      21.404278910744878
   225   2     -4.2416790799999999      12.828888900000001       20.96516725074488
   226   1    -0.53374153999999996             31.64846228      17.307732270744879
   227   2    -0.22592931999999999      32.044387780000001      18.173742190744878
   228   2     0.25792426000000002      31.530457970000001       16.78743202074488
   229   1      6.4903736900000002             -1.11079193       10.91709994074488
   230   2      6.0696770999999998              -1.4936509      11.683243990744877
   231   2      6.1883238900000004             -0.19156876       11.00434173074488
   232   1     -12.423106860000001             10.74371719       13.40106716074488
   233   2     -12.731949910000001      9.9413545499999998      12.979650000744879
   234   2     -12.403423159999999      11.463136629999999      12.710487010744878
   235   1             13.64911932      19.306053510000002      11.767159660744881
   236   2             14.51210002      19.589352940000001      12.124422300744879
   237   2             13.10822525      19.599285760000001      12.569911530744879
   238   1            -22.89656901     -1.6965035100000001      20.850431160744879
   239   2     -23.087842370000001     -2.2277083599999998      20.014985980744878
   240   2     -21.927998500000001             -1.93168104       20.92452270074488
   241   1      4.3242076799999998      21.799726889999999      22.041936890744878
   242   2      5.0659970100000002      22.262644359999999       21.61307545074488
   243   2      4.3416655999999998      20.861666199999998      21.723859840744879
   244   1     -6.3020615600000003     -7.3899671700000003      18.337466880744881
   245   2     -5.6143310099999999     -7.7143069899999999      17.724593220744879
   246   2     -6.9889363600000003     -7.0030951999999997      17.769974640744881
   247   1      20.043795419999999             -0.39947347      15.634696060744879
   248   2             19.27323767    -0.95496692000000005      15.442766850744881
   249   2      20.773589990000001    -0.99870882000000005      15.794799320744879
   250   1             -6.49998684      9.6185522900000002      11.472142120744881
   251   2     -6.4704280499999998      8.8092310000000005       12.07724773074488
   252   2             -7.26079308      9.4049157900000004      10.907088290744881
   253   1     -6.3450000500000003      19.130526960000001      16.018163940744881
   254   2     -6.9666775100000002      19.831682489999999      16.198441810744878
   255   2     -6.0618052200000001      18.656344199999999       16.86925918074488
   256   1              1.89824222      30.324656130000001      19.701854500744879
   257   2      1.3323733099999999      30.338395729999998      20.513107120744881
   258   2      1.4601001600000001      29.654546060000001       19.11461478074488
   259   1     -16.631479030000001              1.74445417      14.575634700744878
   260   2     -16.961408410000001      1.8020005400000001      13.655860050744877
   261   2            -15.70243043              1.92271163      14.416565980744878
   262   1             31.80907436      21.619102269999999      15.649815930744879
   263   2      32.504448519999997      21.057186529999999      16.060067550744879
   264   2      31.738138989999999             22.20253018       16.41335592074488
   265   1     -2.8398537799999999             18.45727935       16.11794450074488
   266   2     -3.4488812700000002      18.358107310000001      15.362794480744881
   267   2     -2.0565739700000001              17.9542319       15.86711125074488
   268   1      3.0337936499999998      32.169031660000002      17.865735030744879
   269   2      2.5618939100000002      31.334498929999999      18.102111970744879
   270   2      3.9632478799999999      31.926787099999999       17.66209869074488
   271   1             18.14534295      34.942075129999999      12.461255230744879
   272   2      18.613831999999999      34.969024869999998      13.314197140744877
   273   2      17.842686659999998             35.77079294       12.15672838074488
   274   1      8.2891410600000004      21.375085380000002      15.518957650744881
   275   2      8.1328603299999997      20.510536309999999       15.09289897074488
   276   2      7.6067639299999996      21.385674309999999      16.220367260744879
   277   1     -2.8275545200000001      8.1508515199999998      13.787000350744879
   278   2     -2.7573498299999999      7.8000916399999998       14.68453071074488
   279   2     -3.4498775300000002      8.9196499800000009      13.849058130744879
   280   1            -13.02243146      6.5770708100000004      14.712712110744878
   281   2            -12.05648862      6.4416173399999996       14.86376560074488
   282   2     -13.375474840000001      6.0305481299999997      15.396972060744879
   283   1      16.800787710000002      29.485886199999999      10.596235500744879
   284   2      17.693344939999999      29.188294280000001      10.937689780744879
   285   2      16.091908740000001             28.90492699       10.97898601074488
   286   1      9.7431920000000005     0.81742130000000002      17.778425400744879
   287   2      9.0853544599999996     0.24139464999999999      18.269939480744881
   288   2      10.002553649999999    0.055581859999999997       17.12931056074488
   289   1     -4.3330766699999996      14.805864619999999      20.811866830744879
   290   2     -5.1526193400000002      15.185321399999999      20.384383190744881
   291   2     -3.8657119400000002      15.638501570000001      21.128661860744881
   292   1               0.2746574     -8.8649761199999997      17.074559030744879
   293   2     0.89799333999999997     -9.1481884999999998      16.386752790744879
   294   2     0.47110345999999997             -9.61112112      17.798781400744879
   295   1      15.192014029999999      40.583131459999997      20.356941720744878
   296   2             15.56973075             41.30434159      19.831107380744879
   297   2             15.01554469      41.066350810000003      21.218915080744878
   298   1              3.71652768     -7.5409750400000002      10.772175060744878
   299   2      3.7610955000000001     -6.6512302700000001      10.440295840744877
   300   2      3.0441681300000001     -7.3931372599999996       11.48398994074488
   301   1     -3.1914710400000001     -2.0394758400000002      21.028554660744881
   302   2     -3.0411238900000002             -2.19364084       22.00148313074488
   303   2     -3.1862707100000001             -1.06128274      20.907282680744881
   304   1             23.96561853      8.9121603100000009       12.16131361074488
   305   2      22.999272090000002      9.1164827099999997       12.00647597074488
   306   2              24.2688974      9.2923999500000001       12.99727734074488
   307   1             12.41678022             54.71720947       17.32707899074488
   308   2             13.14858845             54.95624385      16.737645540744879
   309   2              11.7477973             54.36975966       16.59666954074488
   310   1     -2.5846069599999999      16.338321059999998      11.841627910744879
   311   2     -2.8140112899999998             17.26523976       11.70437394074488
   312   2     -3.5044212199999998      16.030310060000001       12.06072125074488
   313   1      17.387474810000001      9.3361148000000007       17.31210106074488
   314   2      16.514146119999999      9.1543785799999995      17.735757170744879
   315   2      17.754278899999999             10.04657265       17.88772548074488
   316   1      9.5849694000000003      11.856288839999999      12.976687210744878
   317   2      9.6684785699999996              11.0609761      12.476086050744879
   318   2             10.13798695      11.808017919999999       13.82257908074488
   319   1              0.32796195    -0.32909033999999998       21.39514978074488
   320   2     0.12332704999999999     -1.2669193999999999       21.01562548074488
   321   2              0.40289901    -0.51715248000000003      22.314030430744879
   322   1     -5.3805966999999999             23.43766802      20.158586960744881
   323   2     -5.7223703700000002             22.70921366      19.596811090744879
   324   2     -4.5054069400000003             23.09357572      20.461100180744879
   325   1     -2.2941787200000001      4.6858725400000001      17.951962480744879
   326   2     -2.3638465900000001      4.0950630500000003      18.714319070744878
   327   2     -2.0787258400000002      4.0841300900000004       17.21825089074488
   328   1      22.695979250000001             14.79747128      14.682306200744879
   329   2             22.69718189             14.76660809       15.65398820074488
   330   2             22.88400455      15.734614799999999      14.527549480744877
   331   1      2.7626043600000001              15.7130613       20.15946714074488
   332   2      2.3298527899999999      15.647707110000001      19.211161790744878
   333   2              2.81839993             14.76101897      20.358279860744879
   334   1              14.6102191     0.32188672000000002       20.22407446074488
   335   2      15.552839349999999     0.24650372000000001      20.521473440744881
   336   2      14.404881830000001      1.2433800699999999      20.077209890744879
   337   1     -5.2172100800000001      4.3514636800000002       12.71009570074488
   338   2     -4.6477867899999996      5.1320603499999997      12.895581410744878
   339   2     -5.8858633899999999      4.4795229299999999      12.011380120744878
   340   1     -2.0726611099999999      12.193549839999999      13.980685580744879
   341   2     -2.0053818799999998      13.188388120000001       13.93730785074488
   342   2             -1.18987603             11.82953146      13.746046710744878
   343   1      6.2423902800000004             14.85190826       17.45150250074488
   344   2      6.7883622199999998             15.61043132       17.77486112074488
   345   2      6.0812379600000002      14.481318979999999      18.375014290744879
   346   1     -7.2377437799999997              -0.8372619      11.179138610744879
   347   2     -7.3520094900000004   -0.063228389999999995       11.80067640074488
   348   2     -8.1865564699999993     -1.1387713500000001      10.942607600744878
   349   1             -3.15012523     -7.1546453400000001      20.961866890744879
   350   2     -2.5065764800000001     -6.8871688000000004      21.670620670744881
   351   2     -2.8177603499999999             -6.62765307      20.226457570744881
   352   1              11.9359684             15.57769261      13.200337830744878
   353   2             11.47726389             14.91016608       12.60806149074488
   354   2      11.784162179999999      15.095321309999999      14.074568040744879
   355   1      2.1488317800000001             10.00556621      15.384535040744879
   356   2              2.29066714      9.0880843299999992      15.076243480744878
   357   2              1.36710931      9.9544514599999996      15.959069290744878
   358   1      7.6917025099999998              19.3891569      13.835901750744878