 DBCSR| CPU Multiplication driver                                           XSMM
 DBCSR| Multrec recursion limit                                              512
 DBCSR| Multiplication stack size                                           1000
 DBCSR| Maximum elements for images                                    UNLIMITED
 DBCSR| Multiplicative factor virtual images                                   1
 DBCSR| Use multiplication densification                                       T
 DBCSR| Multiplication size stacks                                             3
 DBCSR| Use memory pool for CPU allocation                                     F
 DBCSR| Number of 3D layers                                               SINGLE
 DBCSR| Use MPI memory allocation                                              F
 DBCSR| Use RMA algorithm                                                      F
 DBCSR| Use Communication thread                                               T
 DBCSR| Communication thread load                                             87
 DBCSR| MPI: My node id                                                        0
 DBCSR| MPI: Number of nodes                                                 128
 DBCSR| OMP: Current number of threads                                         1
 DBCSR| OMP: Max number of threads                                             1
 DBCSR| Split modifier for TAS multiplication algorithm                  1.0E+00


  **** **** ******  **  PROGRAM STARTED AT               2023-12-03 03:16:52.223
 ***** ** ***  *** **   PROGRAM STARTED ON                                 cu001
 **    ****   ******    PROGRAM STARTED BY                                 jxzhu
 ***** **    ** ** **   PROGRAM PROCESS ID                                 55662
  **** **  *******  **  PROGRAM STARTED IN /public/home/jxzhu/tmp_calc/5d35a315d
                                           26d54480fd8fdb9c264a27b0a7639c4/calc/
                                           002500.000/search_hi.000000

 CP2K| version string:                                       CP2K version 2022.1
 CP2K| source code revision number:                                  git:2caeb6f
 CP2K| cp2kflags: omp libint fftw3 libxc elpa parallel mpi3 scalapack cosma xsmm
 CP2K|             plumed2 spglib mkl sirius libvori libbqb
 CP2K| is freely available from                            https://www.cp2k.org/
 CP2K| Program compiled at                           Mon Jul 3 17:37:06 CST 2023
 CP2K| Program compiled on                                                 mu003
 CP2K| Program compiled for                                                local
 CP2K| Data directory path                             /public/home/jxzhu/basis/
 CP2K| Input file name                                                 input.inp
 
 GLOBAL| Force Environment number                                              1
 GLOBAL| Basis set file name                                        BASIS_MOLOPT
 GLOBAL| Potential file name                                      GTH_POTENTIALS
 GLOBAL| MM Potential file name                                     MM_POTENTIAL
 GLOBAL| Coordinate file name                                          coord.xyz
 GLOBAL| Method name                                                        CP2K
 GLOBAL| Project name                                                       cp2k
 GLOBAL| Run type                                                   ENERGY_FORCE
 GLOBAL| FFT library                                                       FFTW3
 GLOBAL| Diagonalization library                                            ELPA
 GLOBAL| Minimum number of eigenvectors for ELPA usage                        16
 GLOBAL| Orthonormality check for eigenvectors                          DISABLED
 GLOBAL| Matrix multiplication library                                     COSMA
 GLOBAL| All-to-all communication in single precision                          F
 GLOBAL| FFTs using library dependent lengths                                  T
 GLOBAL| Grid backend                                                       AUTO
 GLOBAL| Global print level                                               MEDIUM
 GLOBAL| MPI I/O enabled                                                       T
 GLOBAL| Total number of message passing processes                           128
 GLOBAL| Number of threads for this process                                    1
 GLOBAL| This output is from process                                           0
 GLOBAL| Stack size for threads created by OpenMP (OMP_STACKSIZE)        default
 GLOBAL| CPU model name                 Intel(R) Xeon(R) Gold 6338 CPU @ 2.00GHz
 GLOBAL| CPUID                                                              1003

 MEMORY| system memory details [Kb]
 MEMORY|                        rank 0           min           max       average
 MEMORY| MemTotal            263619172     263619172     263619172     263619172
 MEMORY| MemFree             218824552     215879696     218825792     217352245
 MEMORY| Buffers                    20            20            36            28
 MEMORY| Cached                1514108        658636       1514108       1086372
 MEMORY| Slab                  1387424       1387424       1419040       1403232
 MEMORY| SReclaimable           241664        230312        241664        235988
 MEMORY| MemLikelyFree       220580344     216768680     220581584     218674633


 *** Fundamental physical constants (SI units) ***

 *** Literature: B. J. Mohr and B. N. Taylor,
 ***             CODATA recommended values of the fundamental physical
 ***             constants: 2006, Web Version 5.1
 ***             http://physics.nist.gov/constants

 Speed of light in vacuum [m/s]                             2.99792458000000E+08
 Magnetic constant or permeability of vacuum [N/A**2]       1.25663706143592E-06
 Electric constant or permittivity of vacuum [F/m]          8.85418781762039E-12
 Planck constant (h) [J*s]                                  6.62606896000000E-34
 Planck constant (h-bar) [J*s]                              1.05457162825177E-34
 Elementary charge [C]                                      1.60217648700000E-19
 Electron mass [kg]                                         9.10938215000000E-31
 Electron g factor [ ]                                     -2.00231930436220E+00
 Proton mass [kg]                                           1.67262163700000E-27
 Fine-structure constant                                    7.29735253760000E-03
 Rydberg constant [1/m]                                     1.09737315685270E+07
 Avogadro constant [1/mol]                                  6.02214179000000E+23
 Boltzmann constant [J/K]                                   1.38065040000000E-23
 Atomic mass unit [kg]                                      1.66053878200000E-27
 Bohr radius [m]                                            5.29177208590000E-11

 *** Conversion factors ***

 [u] -> [a.u.]                                              1.82288848426455E+03
 [Angstrom] -> [Bohr] = [a.u.]                              1.88972613288564E+00
 [a.u.] = [Bohr] -> [Angstrom]                              5.29177208590000E-01
 [a.u.] -> [s]                                              2.41888432650478E-17
 [a.u.] -> [fs]                                             2.41888432650478E-02
 [a.u.] -> [J]                                              4.35974393937059E-18
 [a.u.] -> [N]                                              8.23872205491840E-08
 [a.u.] -> [K]                                              3.15774647902944E+05
 [a.u.] -> [kJ/mol]                                         2.62549961709828E+03
 [a.u.] -> [kcal/mol]                                       6.27509468713739E+02
 [a.u.] -> [Pa]                                             2.94210107994716E+13
 [a.u.] -> [bar]                                            2.94210107994716E+08
 [a.u.] -> [atm]                                            2.90362800883016E+08
 [a.u.] -> [eV]                                             2.72113838565563E+01
 [a.u.] -> [Hz]                                             6.57968392072181E+15
 [a.u.] -> [1/cm] (wave numbers)                            2.19474631370540E+05
 [a.u./Bohr**2] -> [1/cm]                                   5.14048714338585E+03
 

 CELL_TOP| Volume [angstrom^3]:                                     17614.982639
 CELL_TOP| Vector a [angstrom    16.869     0.000     0.000   |a| =    16.869000
 CELL_TOP| Vector b [angstrom    -8.434    14.609     0.000   |b| =    16.869015
 CELL_TOP| Vector c [angstrom     0.000     0.000    71.478   |c| =    71.478000
 CELL_TOP| Angle (b,c), alpha [degree]:                                90.000000
 CELL_TOP| Angle (a,c), beta  [degree]:                                90.000000
 CELL_TOP| Angle (a,b), gamma [degree]:                               119.999970
 CELL_TOP| Numerically orthorhombic:                                          NO
 
 GENERATE|  Preliminary Number of Bonds generated:                             0
 GENERATE|  Achieved consistency in connectivity generation.

 CELL| Volume [angstrom^3]:                                         17614.982639
 CELL| Vector a [angstrom]:      16.869     0.000     0.000   |a| =    16.869000
 CELL| Vector b [angstrom]:      -8.434    14.609     0.000   |b| =    16.869015
 CELL| Vector c [angstrom]:       0.000     0.000    71.478   |c| =    71.478000
 CELL| Angle (b,c), alpha [degree]:                                    90.000000
 CELL| Angle (a,c), beta  [degree]:                                    90.000000
 CELL| Angle (a,b), gamma [degree]:                                   119.999970
 CELL| Numerically orthorhombic:                                              NO

 CELL_REF| Volume [angstrom^3]:                                     17614.982639
 CELL_REF| Vector a [angstrom    16.869     0.000     0.000   |a| =    16.869000
 CELL_REF| Vector b [angstrom    -8.434    14.609     0.000   |b| =    16.869015
 CELL_REF| Vector c [angstrom     0.000     0.000    71.478   |c| =    71.478000
 CELL_REF| Angle (b,c), alpha [degree]:                                90.000000
 CELL_REF| Angle (a,c), beta  [degree]:                                90.000000
 CELL_REF| Angle (a,b), gamma [degree]:                               119.999970
 CELL_REF| Numerically orthorhombic:                                          NO

 *******************************************************************************
 *******************************************************************************
 **                                                                           **
 **     #####                         ##              ##                      **
 **    ##   ##            ##          ##              ##                      **
 **   ##     ##                       ##            ######                    **
 **   ##     ##  ##   ##  ##   #####  ##  ##   ####   ##    #####    #####    **
 **   ##     ##  ##   ##  ##  ##      ## ##   ##      ##   ##   ##  ##   ##   **
 **   ##  ## ##  ##   ##  ##  ##      ####     ###    ##   ######   ######    **
 **    ##  ###   ##   ##  ##  ##      ## ##      ##   ##   ##       ##        **
 **     #######   #####   ##   #####  ##  ##  ####    ##    #####   ##        **
 **           ##                                                    ##        **
 **                                                                           **
 **                                                ... make the atoms dance   **
 **                                                                           **
 **            Copyright (C) by CP2K developers group (2000-2022)             **
 **                      J. Chem. Phys. 152, 194103 (2020)                    **
 **                                                                           **
 *******************************************************************************

 DFT| Spin restricted Kohn-Sham (RKS) calculation                            RKS
 DFT| Multiplicity                                                             1
 DFT| Number of spin states                                                    1
 DFT| Charge                                                                   0
 DFT| Self-interaction correction (SIC)                                       NO
 DFT| Cutoffs: density                                              1.000000E-10
 DFT|          gradient                                             1.000000E-10
 DFT|          tau                                                  1.000000E-10
 DFT|          cutoff_smoothing_range                               0.000000E+00
 DFT| XC density smoothing                                                  NONE
 DFT| XC derivatives                                                          PW

 FUNCTIONAL| PBE:
 FUNCTIONAL| J.P.Perdew, K.Burke, M.Ernzerhof, Phys. Rev. Letter, vol. 77, n 18,
 FUNCTIONAL|  pp. 3865-3868, (1996){spin unpolarized}                           

 vdW POTENTIAL|                                                   Pair Potential
 vdW POTENTIAL|          DFT-D3 (Version 3.1)
 vdW POTENTIAL|          Potential Form: S. Grimme et al, JCP 132: 154104 (2010)
 vdW POTENTIAL|          Zero Damping
 vdW POTENTIAL|          Cutoff Radius [Bohr]:                             20.00
 vdW POTENTIAL|          s6 Scaling Factor:                               1.0000
 vdW POTENTIAL|          sr6 Scaling Factor:                              1.2170
 vdW POTENTIAL|          s8 Scaling Factor:                               0.7220
 vdW POTENTIAL|          Cutoff for CN calculation:                   0.1000E-05

 QS| Method:                                                                 GPW
 QS| Density plane wave grid type                        NON-SPHERICAL FULLSPACE
 QS| Number of grid levels:                                                    4
 QS| Density cutoff [a.u.]:                                                200.0
 QS| Multi grid cutoff [a.u.]: 1) grid level                               200.0
 QS|                           2) grid level                                66.7
 QS|                           3) grid level                                22.2
 QS|                           4) grid level                                 7.4
 QS| Grid level progression factor:                                          3.0
 QS| Relative density cutoff [a.u.]:                                        20.0
 QS| Interaction thresholds: eps_pgf_orb:                                3.2E-07
 QS|                         eps_filter_matrix:                          0.0E+00
 QS|                         eps_core_charge:                            1.0E-15
 QS|                         eps_rho_gspace:                             1.0E-13
 QS|                         eps_rho_rspace:                             1.0E-13
 QS|                         eps_gvg_rspace:                             3.2E-07
 QS|                         eps_ppl:                                    1.0E-02
 QS|                         eps_ppnl:                                   3.2E-09


 ATOMIC KIND INFORMATION

  1. Atomic kind: O                                     Number of atoms:     101

     Orbital Basis Set                                        DZVP-MOLOPT-SR-GTH

       Number of orbital shell sets:                                           1
       Number of orbital shells:                                               5
       Number of primitive Cartesian functions:                                5
       Number of Cartesian basis functions:                                   14
       Number of spherical basis functions:                                   13
       Norm type:                                                              2

       Normalised Cartesian orbitals:

                        Set   Shell   Orbital            Exponent    Coefficient

                          1       1    2s               10.389228       0.396646
                                                         3.849621       0.208811
                                                         1.388401      -0.301641
                                                         0.496955      -0.274061
                                                         0.162492      -0.033677

                          1       2    3s               10.389228       0.303673
                                                         3.849621       0.240943
                                                         1.388401      -0.313066
                                                         0.496955      -0.043055
                                                         0.162492       0.213991

                          1       3    3px              10.389228      -1.530415
                                                         3.849621      -1.371928
                                                         1.388401      -0.761951
                                                         0.496955      -0.253695
                                                         0.162492      -0.035541
                          1       3    3py              10.389228      -1.530415
                                                         3.849621      -1.371928
                                                         1.388401      -0.761951
                                                         0.496955      -0.253695
                                                         0.162492      -0.035541
                          1       3    3pz              10.389228      -1.530415
                                                         3.849621      -1.371928
                                                         1.388401      -0.761951
                                                         0.496955      -0.253695
                                                         0.162492      -0.035541

                          1       4    4px              10.389228      -0.565392
                                                         3.849621      -0.038231
                                                         1.388401      -0.382373
                                                         0.496955       0.179070
                                                         0.162492       0.122714
                          1       4    4py              10.389228      -0.565392
                                                         3.849621      -0.038231
                                                         1.388401      -0.382373
                                                         0.496955       0.179070
                                                         0.162492       0.122714
                          1       4    4pz              10.389228      -0.565392
                                                         3.849621      -0.038231
                                                         1.388401      -0.382373
                                                         0.496955       0.179070
                                                         0.162492       0.122714

                          1       5    4dx2             10.389228       1.867377
                                                         3.849621       0.670994
                                                         1.388401       1.353441
                                                         0.496955       0.273538
                                                         0.162492       0.006620
                          1       5    4dxy             10.389228       3.234392
                                                         3.849621       1.162195
                                                         1.388401       2.344229
                                                         0.496955       0.473781
                                                         0.162492       0.011466
                          1       5    4dxz             10.389228       3.234392
                                                         3.849621       1.162195
                                                         1.388401       2.344229
                                                         0.496955       0.473781
                                                         0.162492       0.011466
                          1       5    4dy2             10.389228       1.867377
                                                         3.849621       0.670994
                                                         1.388401       1.353441
                                                         0.496955       0.273538
                                                         0.162492       0.006620
                          1       5    4dyz             10.389228       3.234392
                                                         3.849621       1.162195
                                                         1.388401       2.344229
                                                         0.496955       0.473781
                                                         0.162492       0.011466
                          1       5    4dz2             10.389228       1.867377
                                                         3.849621       0.670994
                                                         1.388401       1.353441
                                                         0.496955       0.273538
                                                         0.162492       0.006620

       Atomic covalent radius [Angstrom]:                                  0.730

       Atomic van der Waals radius [Angstrom]:                             1.520

     GTH Potential information for                                    GTH-PBE-q6

       Description:                       Goedecker-Teter-Hutter pseudopotential
                                           Goedecker et al., PRB 54, 1703 (1996)
                                          Hartwigsen et al., PRB 58, 3641 (1998)
                                                      Krack, TCA 114, 145 (2005)

       Gaussian exponent of the core charge distribution:               8.360253
       Electronic configuration (s p d ...):                               2   4

       Parameters of the local part of the GTH pseudopotential:

                          rloc        C1          C2          C3          C4
                        0.244554  -16.667215    2.487311

       Parameters of the non-local part of the GTH pseudopotential:

                   l      r(l)      h(i,j,l)

                   0    0.220956   18.337458
                   1    0.211332

  2. Atomic kind: H                                     Number of atoms:     202

     Orbital Basis Set                                        DZVP-MOLOPT-SR-GTH

       Number of orbital shell sets:                                           1
       Number of orbital shells:                                               3
       Number of primitive Cartesian functions:                                5
       Number of Cartesian basis functions:                                    5
       Number of spherical basis functions:                                    5
       Norm type:                                                              2

       Normalised Cartesian orbitals:

                        Set   Shell   Orbital            Exponent    Coefficient

                          1       1    2s               10.068468      -0.133023
                                                         2.680223      -0.177618
                                                         0.791502      -0.258419
                                                         0.239116      -0.107525
                                                         0.082193      -0.014019

                          1       2    3s               10.068468       0.344673
                                                         2.680223       1.819821
                                                         0.791502      -0.999069
                                                         0.239116       0.017430
                                                         0.082193       0.082660

                          1       3    3px              10.068468       0.155326
                                                         2.680223       0.367157
                                                         0.791502       0.311480
                                                         0.239116       0.080105
                                                         0.082193       0.033440
                          1       3    3py              10.068468       0.155326
                                                         2.680223       0.367157
                                                         0.791502       0.311480
                                                         0.239116       0.080105
                                                         0.082193       0.033440
                          1       3    3pz              10.068468       0.155326
                                                         2.680223       0.367157
                                                         0.791502       0.311480
                                                         0.239116       0.080105
                                                         0.082193       0.033440

       Atomic covalent radius [Angstrom]:                                  0.320

       Atomic van der Waals radius [Angstrom]:                             1.090

     GTH Potential information for                                    GTH-PBE-q1

       Description:                       Goedecker-Teter-Hutter pseudopotential
                                           Goedecker et al., PRB 54, 1703 (1996)
                                          Hartwigsen et al., PRB 58, 3641 (1998)
                                                      Krack, TCA 114, 145 (2005)

       Gaussian exponent of the core charge distribution:              12.500000
       Electronic configuration (s p d ...):                                   1

       Parameters of the local part of the GTH pseudopotential:

                          rloc        C1          C2          C3          C4
                        0.200000   -4.178900    0.724463

  3. Atomic kind: Pt                                    Number of atoms:     216

     Orbital Basis Set                      DZVP-A5-Q10-323-MOL-T1-DERIVED_SET-1

       Number of orbital shell sets:                                           1
       Number of orbital shells:                                               6
       Number of primitive Cartesian functions:                                5
       Number of Cartesian basis functions:                                   23
       Number of spherical basis functions:                                   20
       Norm type:                                                              2

       Normalised Cartesian orbitals:

                        Set   Shell   Orbital            Exponent    Coefficient

                          1       1    2s                2.521825       0.177473
                                                         1.453920      -0.063399
                                                         0.614053      -0.407089
                                                         0.232656       0.262254
                                                         0.074788       0.047371

                          1       2    3s                2.521825      -0.049056
                                                         1.453920       0.044904
                                                         0.614053      -0.009756
                                                         0.232656      -0.144709
                                                         0.074788       0.144085

                          1       3    3px               2.521825      -0.317572
                                                         1.453920       0.534826
                                                         0.614053      -0.489458
                                                         0.232656       0.245631
                                                         0.074788       0.018221
                          1       3    3py               2.521825      -0.317572
                                                         1.453920       0.534826
                                                         0.614053      -0.489458
                                                         0.232656       0.245631
                                                         0.074788       0.018221
                          1       3    3pz               2.521825      -0.317572
                                                         1.453920       0.534826
                                                         0.614053      -0.489458
                                                         0.232656       0.245631
                                                         0.074788       0.018221

                          1       4    4dx2              2.521825       3.008522
                                                         1.453920      -1.224251
                                                         0.614053       0.225691
                                                         0.232656       0.125144
                                                         0.074788      -0.015348
                          1       4    4dxy              2.521825       5.210912
                                                         1.453920      -2.120465
                                                         0.614053       0.390909
                                                         0.232656       0.216756
                                                         0.074788      -0.026584
                          1       4    4dxz              2.521825       5.210912
                                                         1.453920      -2.120465
                                                         0.614053       0.390909
                                                         0.232656       0.216756
                                                         0.074788      -0.026584
                          1       4    4dy2              2.521825       3.008522
                                                         1.453920      -1.224251
                                                         0.614053       0.225691
                                                         0.232656       0.125144
                                                         0.074788      -0.015348
                          1       4    4dyz              2.521825       5.210912
                                                         1.453920      -2.120465
                                                         0.614053       0.390909
                                                         0.232656       0.216756
                                                         0.074788      -0.026584
                          1       4    4dz2              2.521825       3.008522
                                                         1.453920      -1.224251
                                                         0.614053       0.225691
                                                         0.232656       0.125144
                                                         0.074788      -0.015348

                          1       5    5dx2              2.521825       0.698026
                                                         1.453920      -1.511486
                                                         0.614053      -0.335394
                                                         0.232656      -0.025564
                                                         0.074788      -0.002699
                          1       5    5dxy              2.521825       1.209017
                                                         1.453920      -2.617970
                                                         0.614053      -0.580920
                                                         0.232656      -0.044277
                                                         0.074788      -0.004674
                          1       5    5dxz              2.521825       1.209017
                                                         1.453920      -2.617970
                                                         0.614053      -0.580920
                                                         0.232656      -0.044277
                                                         0.074788      -0.004674
                          1       5    5dy2              2.521825       0.698026
                                                         1.453920      -1.511486
                                                         0.614053      -0.335394
                                                         0.232656      -0.025564
                                                         0.074788      -0.002699
                          1       5    5dyz              2.521825       1.209017
                                                         1.453920      -2.617970
                                                         0.614053      -0.580920
                                                         0.232656      -0.044277
                                                         0.074788      -0.004674
                          1       5    5dz2              2.521825       0.698026
                                                         1.453920      -1.511486
                                                         0.614053      -0.335394
                                                         0.232656      -0.025564
                                                         0.074788      -0.002699

                          1       6    6dx2              2.521825       0.831079
                                                         1.453920      -0.709226
                                                         0.614053      -0.137351
                                                         0.232656       0.068642
                                                         0.074788       0.011745
                          1       6    6dxy              2.521825       1.439472
                                                         1.453920      -1.228415
                                                         0.614053      -0.237899
                                                         0.232656       0.118891
                                                         0.074788       0.020343
                          1       6    6dxz              2.521825       1.439472
                                                         1.453920      -1.228415
                                                         0.614053      -0.237899
                                                         0.232656       0.118891
                                                         0.074788       0.020343
                          1       6    6dy2              2.521825       0.831079
                                                         1.453920      -0.709226
                                                         0.614053      -0.137351
                                                         0.232656       0.068642
                                                         0.074788       0.011745
                          1       6    6dyz              2.521825       1.439472
                                                         1.453920      -1.228415
                                                         0.614053      -0.237899
                                                         0.232656       0.118891
                                                         0.074788       0.020343
                          1       6    6dz2              2.521825       0.831079
                                                         1.453920      -0.709226
                                                         0.614053      -0.137351
                                                         0.232656       0.068642
                                                         0.074788       0.011745

       Atomic covalent radius [Angstrom]:                                  1.300

       Atomic van der Waals radius [Angstrom]:                             1.750

     GTH Potential information for                                   GTH-PBE-q10

       Description:                       Goedecker-Teter-Hutter pseudopotential
                                           Goedecker et al., PRB 54, 1703 (1996)
                                          Hartwigsen et al., PRB 58, 3641 (1998)
                                                      Krack, TCA 114, 145 (2005)

       Gaussian exponent of the core charge distribution:               1.317676
       Electronic configuration (s p d ...):                           1   0   9

       Parameters of the local part of the GTH pseudopotential:

                          rloc        C1          C2          C3          C4
                        0.616000   11.313635

       Parameters of the non-local part of the GTH pseudopotential:

                   l      r(l)      h(i,j,l)

                   0    0.550904    4.733491   -1.784594
                                   -1.784594    2.303901
                   1    0.674138    2.534798   -1.778066
                                   -1.778066    2.103836
                   2    0.457392   -7.264011    2.558665
                                    2.558665   -2.901253


 MOLECULE KIND INFORMATION


 All atoms are their own molecule, skipping detailed information


 TOTAL NUMBERS AND MAXIMUM NUMBERS

  Total number of            - Atomic kinds:                                   3
                             - Atoms:                                        519
                             - Shell sets:                                   519
                             - Shells:                                      2407
                             - Primitive Cartesian functions:               2595
                             - Cartesian basis functions:                   7392
                             - Spherical basis functions:                   6643

  Maximum angular momentum of- Orbital basis functions:                        2
                             - Local part of the GTH pseudopotential:          2
                             - Non-local part of the GTH pseudopotential:      4


 MODULE QUICKSTEP:  ATOMIC COORDINATES IN angstrom

 Atom  Kind  Element       X           Y           Z          Z(eff)       Mass
    1   1 O    8      18.090002   27.560001   39.827998       6.0000     15.9994
    2   2 H    1      17.790001   28.350000   40.268001       1.0000      1.0079
    3   2 H    1      17.420002   27.440002   39.027999       1.0000      1.0079
    4   1 O    8     -17.500002    4.670000   33.307998       6.0000     15.9994
    5   2 H    1     -17.330000    5.050000   32.408000       1.0000      1.0079
    6   2 H    1     -17.580002    3.680000   33.177999       1.0000      1.0079
    7   1 O    8      19.660000   12.730000   38.677999       6.0000     15.9994
    8   2 H    1      20.020000   12.660000   37.687999       1.0000      1.0079
    9   2 H    1      19.440001   11.810001   38.897998       1.0000      1.0079
   10   1 O    8     -20.410002  -21.150000   35.177999       6.0000     15.9994
   11   2 H    1     -21.000002  -20.930002   35.907998       1.0000      1.0079
   12   2 H    1     -20.490000  -22.110003   34.937999       1.0000      1.0079
   13   1 O    8      -5.210000  -16.300001   29.327998       6.0000     15.9994
   14   2 H    1      -4.850000  -15.410002   29.518001       1.0000      1.0079
   15   2 H    1      -6.250000  -16.190001   29.518001       1.0000      1.0079
   16   1 O    8       1.220000   20.400002   30.657998       6.0000     15.9994
   17   2 H    1       1.280000   20.559999   31.617999       1.0000      1.0079
   18   2 H    1       1.930000   19.720001   30.367999       1.0000      1.0079
   19   1 O    8     -17.810001   23.370001   29.987998       6.0000     15.9994
   20   2 H    1     -18.090002   22.510002   29.478000       1.0000      1.0079
   21   2 H    1     -18.640001   23.900002   29.937999       1.0000      1.0079
   22   1 O    8       5.790000  -16.020000   33.667999       6.0000     15.9994
   23   2 H    1       5.300000  -16.620001   34.307998       1.0000      1.0079
   24   2 H    1       5.180000  -16.040001   32.887998       1.0000      1.0079
   25   1 O    8     -21.770000   43.640003   33.827998       6.0000     15.9994
   26   2 H    1     -21.370001   43.000000   33.167999       1.0000      1.0079
   27   2 H    1      -4.540000   43.460003   34.748000       1.0000      1.0079
   28   1 O    8     -11.780001    6.270000   35.487998       6.0000     15.9994
   29   2 H    1     -20.290001   21.660002   36.027999       1.0000      1.0079
   30   2 H    1     -11.430000    6.550000   34.617999       1.0000      1.0079
   31   1 O    8       1.760000   11.280001   30.367999       6.0000     15.9994
   32   2 H    1       1.400000   10.440001   30.067996       1.0000      1.0079
   33   2 H    1       1.590000   11.230000   31.327998       1.0000      1.0079
   34   1 O    8     -26.980001   -4.480000   30.447997       6.0000     15.9994
   35   2 H    1     -26.220001   -4.110000   29.978000       1.0000      1.0079
   36   2 H    1     -26.950001   -5.450000   30.338001       1.0000      1.0079
   37   1 O    8     -30.190001   12.400000   32.308000       6.0000     15.9994
   38   2 H    1     -38.460003   26.870001   31.347999       1.0000      1.0079
   39   2 H    1     -30.090000   11.430000   32.638000       1.0000      1.0079
   40   1 O    8     -32.830002    8.280001   34.388000       6.0000     15.9994
   41   2 H    1     -33.670002    8.230000   33.958000       1.0000      1.0079
   42   2 H    1     -32.330002    7.400000   34.327998       1.0000      1.0079
   43   1 O    8     -12.630000   -4.100000   29.257999       6.0000     15.9994
   44   2 H    1     -11.610001   -4.090000   29.437999       1.0000      1.0079
   45   2 H    1     -13.010001   -3.170000   29.498000       1.0000      1.0079
   46   1 O    8     -31.850002   14.330001   32.607999       6.0000     15.9994
   47   2 H    1     -31.380003   13.480000   32.548000       1.0000      1.0079
   48   2 H    1     -31.310001   15.110001   32.237998       1.0000      1.0079
   49   1 O    8       6.750000   -6.040000   33.237998       6.0000     15.9994
   50   2 H    1       7.030000   -5.090000   33.287998       1.0000      1.0079
   51   2 H    1       6.090000   -6.130000   33.967998       1.0000      1.0079
   52   1 O    8      -6.560000   20.330000   33.988000       6.0000     15.9994
   53   2 H    1      -6.350000   19.780001   34.797998       1.0000      1.0079
   54   2 H    1      -7.470000   19.940001   33.708000       1.0000      1.0079
   55   1 O    8       5.150001   -7.160000   30.447997       6.0000     15.9994
   56   2 H    1       5.300000   -8.100000   30.257999       1.0000      1.0079
   57   2 H    1       5.190001   -7.080000   31.458000       1.0000      1.0079
   58   1 O    8     -20.540001   12.330000   32.527999       6.0000     15.9994
   59   2 H    1     -21.020000   11.490001   32.527999       1.0000      1.0079
   60   2 H    1     -20.220001   12.490001   31.567998       1.0000      1.0079
   61   1 O    8       1.950000    6.850000   37.987998       6.0000     15.9994
   62   2 H    1       2.440000    6.250000   37.437999       1.0000      1.0079
   63   2 H    1       1.160000    6.310000   38.288001       1.0000      1.0079
   64   1 O    8      24.810001   11.430000   33.027999       6.0000     15.9994
   65   2 H    1      24.000000   11.960001   33.317998       1.0000      1.0079
   66   2 H    1      24.490002   10.530001   33.208000       1.0000      1.0079
   67   1 O    8      38.180000    6.500000   29.917999       6.0000     15.9994
   68   2 H    1      38.450005    7.050000   29.147998       1.0000      1.0079
   69   2 H    1      39.070004    6.020000   30.108001       1.0000      1.0079
   70   1 O    8      15.270000   41.800003   36.298000       6.0000     15.9994
   71   2 H    1      14.320001   42.140003   36.287999       1.0000      1.0079
   72   2 H    1      32.090000   40.919998   36.707998       1.0000      1.0079
   73   1 O    8     -14.590001   33.900002   29.927997       6.0000     15.9994
   74   2 H    1     -13.780001   34.150002   30.408000       1.0000      1.0079
   75   2 H    1     -14.340000   33.930000   28.937999       1.0000      1.0079
   76   1 O    8       4.200000   -0.920000   36.377998       6.0000     15.9994
   77   2 H    1       3.600000   -1.580000   36.798000       1.0000      1.0079
   78   2 H    1       4.150000   -0.080000   36.917999       1.0000      1.0079
   79   1 O    8      -0.510000   32.290001   37.257999       6.0000     15.9994
   80   2 H    1      -1.060000   31.550003   37.607999       1.0000      1.0079
   81   2 H    1      -0.610000   32.850002   38.068000       1.0000      1.0079
   82   1 O    8       7.640000    5.740000   36.307998       6.0000     15.9994
   83   2 H    1      -0.900000   20.790001   37.218000       1.0000      1.0079
   84   2 H    1       6.670001    5.660000   36.068000       1.0000      1.0079
   85   1 O    8      18.210001   -4.350000   29.327998       6.0000     15.9994
   86   2 H    1      17.390001   -4.860000   29.498000       1.0000      1.0079
   87   2 H    1      18.870001   -5.030000   29.617999       1.0000      1.0079
   88   1 O    8      16.120001    2.130000   32.727998       6.0000     15.9994
   89   2 H    1      15.570001    2.020000   31.897998       1.0000      1.0079
   90   2 H    1      15.480001    1.670000   33.337999       1.0000      1.0079
   91   1 O    8      -6.200000    2.090000   36.367999       6.0000     15.9994
   92   2 H    1      -6.220000    1.100000   36.107999       1.0000      1.0079
   93   2 H    1      -6.380000    2.160000   37.327998       1.0000      1.0079
   94   1 O    8       1.540000   -8.310000   39.538001       6.0000     15.9994
   95   2 H    1       0.590000   -8.140000   39.538001       1.0000      1.0079
   96   2 H    1       1.970000   -7.510000   39.178001       1.0000      1.0079
   97   1 O    8      13.500000   -6.090000   36.748000       6.0000     15.9994
   98   2 H    1      13.160001   -6.230001   37.687999       1.0000      1.0079
   99   2 H    1      14.460001   -5.700001   36.958000       1.0000      1.0079
  100   1 O    8      -6.880000  -12.080001   30.968000       6.0000     15.9994
  101   2 H    1      -6.850000  -12.060001   31.917999       1.0000      1.0079
  102   2 H    1      -6.630001  -11.190001   30.638000       1.0000      1.0079
  103   1 O    8      37.140003  -12.450000   32.318000       6.0000     15.9994
  104   2 H    1      38.120003  -12.510000   32.108001       1.0000      1.0079
  105   2 H    1      37.200005  -12.200001   33.317998       1.0000      1.0079
  106   1 O    8     -35.000004   24.510002   37.208000       6.0000     15.9994
  107   2 H    1     -18.250000   24.630001   38.158000       1.0000      1.0079
  108   2 H    1     -34.040001   24.290001   36.978000       1.0000      1.0079
  109   1 O    8      27.210003  -12.630000   33.918001       6.0000     15.9994
  110   2 H    1      26.250002  -12.660000   33.617997       1.0000      1.0079
  111   2 H    1      27.470001  -13.530001   33.958000       1.0000      1.0079
  112   1 O    8       4.760000   12.700001   29.967998       6.0000     15.9994
  113   2 H    1       4.590000   13.580000   29.697997       1.0000      1.0079
  114   2 H    1       4.340000   12.090001   29.377998       1.0000      1.0079
  115   1 O    8      -0.190000   13.690001   38.547998       6.0000     15.9994
  116   2 H    1       0.820000   13.650000   38.477998       1.0000      1.0079
  117   2 H    1      -0.550000   13.470001   37.668001       1.0000      1.0079
  118   1 O    8     -15.960001    8.720000   29.827998       6.0000     15.9994
  119   2 H    1     -15.160000    8.300000   30.268001       1.0000      1.0079
  120   2 H    1     -15.750000    8.620001   28.867999       1.0000      1.0079
  121   1 O    8       2.460000   -6.490001   30.487998       6.0000     15.9994
  122   2 H    1       2.110000   -7.330000   30.237998       1.0000      1.0079
  123   2 H    1       3.420000   -6.630001   30.388000       1.0000      1.0079
  124   1 O    8      30.350000   -9.400001   38.927999       6.0000     15.9994
  125   2 H    1      30.290001  -10.250001   39.347999       1.0000      1.0079
  126   2 H    1      29.690001   -9.490001   38.187999       1.0000      1.0079
  127   1 O    8      -4.700000   -6.270000   39.347999       6.0000     15.9994
  128   2 H    1      -5.470000   -6.820001   38.907998       1.0000      1.0079
  129   2 H    1      -4.670000   -6.750000   40.257999       1.0000      1.0079
  130   1 O    8     -21.000002   45.150002   30.437999       6.0000     15.9994
  131   2 H    1     -20.559999   45.330002   31.307998       1.0000      1.0079
  132   2 H    1     -21.900002   45.530006   30.597999       1.0000      1.0079
  133   1 O    8     -11.110001  -13.270000   38.267999       6.0000     15.9994
  134   2 H    1     -11.510000  -12.730000   38.988000       1.0000      1.0079
  135   2 H    1     -11.570001  -13.120001   37.388000       1.0000      1.0079
  136   1 O    8      12.660000   29.740002   29.088001       6.0000     15.9994
  137   2 H    1      21.450003   15.870001   29.647998       1.0000      1.0079
  138   2 H    1      -5.230000   29.780003   29.257999       1.0000      1.0079
  139   1 O    8      -1.820000   -5.910000   32.437999       6.0000     15.9994
  140   2 H    1      -2.680000   -5.420001   32.267997       1.0000      1.0079
  141   2 H    1      -1.420000   -6.040000   31.588001       1.0000      1.0079
  142   1 O    8      -2.490000   20.790001   32.968000       6.0000     15.9994
  143   2 H    1      -2.280000   21.700001   32.647998       1.0000      1.0079
  144   2 H    1      -1.680000   20.180000   32.867999       1.0000      1.0079
  145   1 O    8     -29.790001    1.450000   37.787998       6.0000     15.9994
  146   2 H    1     -30.660002    1.860000   37.417999       1.0000      1.0079
  147   2 H    1     -29.010000    2.000000   37.388000       1.0000      1.0079
  148   1 O    8     -14.020000   -2.790000   37.937999       6.0000     15.9994
  149   2 H    1     -14.460001   -2.190000   38.588001       1.0000      1.0079
  150   2 H    1     -13.320000   -3.210000   38.518001       1.0000      1.0079
  151   1 O    8      -3.630000   -4.790000   29.997997       6.0000     15.9994
  152   2 H    1      -3.730000   -4.840000   29.047996       1.0000      1.0079
  153   2 H    1      -4.560000   -4.660000   30.277999       1.0000      1.0079
  154   1 O    8      -1.700000  -19.260002   37.227998       6.0000     15.9994
  155   2 H    1      -2.060000  -19.780001   36.448001       1.0000      1.0079
  156   2 H    1      -0.760000  -19.600000   37.197997       1.0000      1.0079
  157   1 O    8       5.040000   -8.920000   38.007999       6.0000     15.9994
  158   2 H    1       4.250000   -8.200001   37.978000       1.0000      1.0079
  159   2 H    1       5.210000   -9.180000   37.108001       1.0000      1.0079
  160   1 O    8       3.660000   10.240001   35.597999       6.0000     15.9994
  161   2 H    1       2.730000   10.190001   36.058000       1.0000      1.0079
  162   2 H    1       4.280000    9.710001   36.107999       1.0000      1.0079
  163   1 O    8      22.800003   48.410000   29.917999       6.0000     15.9994
  164   2 H    1      22.850000   48.440002   28.888000       1.0000      1.0079
  165   2 H    1      23.730001   48.780003   30.077998       1.0000      1.0079
  166   1 O    8     -27.360001  -13.630000   35.027999       6.0000     15.9994
  167   2 H    1     -28.130001  -13.060001   34.838001       1.0000      1.0079
  168   2 H    1     -27.620001  -14.560001   34.738000       1.0000      1.0079
  169   1 O    8     -13.780001    5.020000   36.558000       6.0000     15.9994
  170   2 H    1     -12.950001    5.260000   36.037999       1.0000      1.0079
  171   2 H    1     -13.940001    4.010000   36.667999       1.0000      1.0079
  172   1 O    8      -7.340000   -3.660000   33.117999       6.0000     15.9994
  173   2 H    1      -7.180000   -4.610000   33.287998       1.0000      1.0079
  174   2 H    1      -8.320000   -3.520000   33.157998       1.0000      1.0079
  175   1 O    8     -18.300001   15.470000   35.327998       6.0000     15.9994
  176   2 H    1     -17.480000   15.140000   35.728000       1.0000      1.0079
  177   2 H    1     -18.210001   16.420000   35.447999       1.0000      1.0079
  178   1 O    8       4.700000   20.900002   33.228000       6.0000     15.9994
  179   2 H    1       3.770000   20.510002   33.217998       1.0000      1.0079
  180   2 H    1      13.730000    5.520000   33.077998       1.0000      1.0079
  181   1 O    8      -2.180000   13.440001   30.257999       6.0000     15.9994
  182   2 H    1      -1.840000   14.140000   30.877998       1.0000      1.0079
  183   2 H    1      -2.580000   13.890000   29.428001       1.0000      1.0079
  184   1 O    8     -22.160000    9.630001   32.597999       6.0000     15.9994
  185   2 H    1     -21.709999    9.140000   33.337999       1.0000      1.0079
  186   2 H    1     -22.330000    8.900001   31.917999       1.0000      1.0079
  187   1 O    8      27.180002    6.060000   33.447997       6.0000     15.9994
  188   2 H    1      26.910002    5.440001   34.197999       1.0000      1.0079
  189   2 H    1      26.990002    7.040000   33.667999       1.0000      1.0079
  190   1 O    8      -5.650000    3.830000   29.807998       6.0000     15.9994
  191   2 H    1      -5.180000    4.090000   29.007999       1.0000      1.0079
  192   2 H    1      -5.040000    3.660000   30.537999       1.0000      1.0079
  193   1 O    8      13.660001  -12.130001   32.857997       6.0000     15.9994
  194   2 H    1      13.460001  -12.800001   33.558000       1.0000      1.0079
  195   2 H    1      12.940001  -11.360001   32.798000       1.0000      1.0079
  196   1 O    8     -12.500000  -16.550001   36.458000       6.0000     15.9994
  197   2 H    1     -12.690001  -17.480000   36.197999       1.0000      1.0079
  198   2 H    1     -11.520000  -16.500000   36.818000       1.0000      1.0079
  199   1 O    8     -20.920000   32.050003   34.757999       6.0000     15.9994
  200   2 H    1     -20.540001   32.870003   35.087999       1.0000      1.0079
  201   2 H    1     -21.720001   31.780003   35.387998       1.0000      1.0079
  202   1 O    8      10.380001   17.300001   36.718000       6.0000     15.9994
  203   2 H    1      10.200001   16.950001   35.767999       1.0000      1.0079
  204   2 H    1       9.420000   17.390001   37.117999       1.0000      1.0079
  205   1 O    8       6.910000   41.690002   37.478000       6.0000     15.9994
  206   2 H    1       6.920000   40.690002   37.057998       1.0000      1.0079
  207   2 H    1       7.610001   42.270004   37.048000       1.0000      1.0079
  208   1 O    8      -1.180000   -8.680000   29.767997       6.0000     15.9994
  209   2 H    1      -9.540001    5.490000   28.877998       1.0000      1.0079
  210   2 H    1      -0.270000   -8.750001   30.117999       1.0000      1.0079
  211   1 O    8      18.990000   16.970001   39.078000       6.0000     15.9994
  212   2 H    1      10.730000   30.740002   39.617999       1.0000      1.0079
  213   2 H    1      10.640000   32.300003   39.757999       1.0000      1.0079
  214   1 O    8      17.880001    9.130000   36.978000       6.0000     15.9994
  215   2 H    1      18.370001    8.310000   37.268001       1.0000      1.0079
  216   2 H    1      17.780001    9.020000   35.998000       1.0000      1.0079
  217   1 O    8      -2.210000    4.780000   35.837999       6.0000     15.9994
  218   2 H    1      -1.860000    5.600000   35.468000       1.0000      1.0079
  219   2 H    1      -1.460000    4.400000   36.298000       1.0000      1.0079
  220   1 O    8     -40.580002   29.960001   29.437999       6.0000     15.9994
  221   2 H    1     -41.030003   30.800001   29.557998       1.0000      1.0079
  222   2 H    1     -41.260002   29.180002   29.397998       1.0000      1.0079
  223   1 O    8      -1.630000   -4.980001   39.708000       6.0000     15.9994
  224   2 H    1      -0.790000   -4.650001   40.168001       1.0000      1.0079
  225   2 H    1      -2.360000   -4.440001   40.057998       1.0000      1.0079
  226   1 O    8      -0.030000    5.760000   30.607999       6.0000     15.9994
  227   2 H    1       0.870000    5.440001   30.248000       1.0000      1.0079
  228   2 H    1      -0.040000    6.690001   30.347999       1.0000      1.0079
  229   1 O    8      14.280001  -27.299999   30.717998       6.0000     15.9994
  230   2 H    1      15.000001  -27.700003   30.097999       1.0000      1.0079
  231   2 H    1      14.230001  -26.370001   30.338001       1.0000      1.0079
  232   1 O    8       7.720000    1.840000   39.178001       6.0000     15.9994
  233   2 H    1       7.750000    0.860000   38.988000       1.0000      1.0079
  234   2 H    1       8.700001    2.150000   39.208000       1.0000      1.0079
  235   1 O    8     -16.590000   29.230001   36.648000       6.0000     15.9994
  236   2 H    1     -17.130001   29.810001   36.047998       1.0000      1.0079
  237   2 H    1     -16.110001   28.610001   36.017997       1.0000      1.0079
  238   1 O    8      16.260000   17.050001   30.398002       6.0000     15.9994
  239   2 H    1      16.500000   17.820000   30.947997       1.0000      1.0079
  240   2 H    1      16.120001   16.260000   31.047998       1.0000      1.0079
  241   1 O    8      -7.540000    4.160000   35.147998       6.0000     15.9994
  242   2 H    1      -8.270000    4.610000   35.667999       1.0000      1.0079
  243   2 H    1      -7.170000    3.340000   35.607999       1.0000      1.0079
  244   1 O    8       7.240000   11.580001   30.347999       6.0000     15.9994
  245   2 H    1       6.350000   12.080001   30.187999       1.0000      1.0079
  246   2 H    1       7.570000   11.400002   31.318000       1.0000      1.0079
  247   1 O    8      37.740002    9.790000   32.867999       6.0000     15.9994
  248   2 H    1      37.460003    9.850000   33.787999       1.0000      1.0079
  249   2 H    1      37.130001    9.100000   32.378000       1.0000      1.0079
  250   1 O    8       7.110000  -22.270000   38.848001       6.0000     15.9994
  251   2 H    1       6.250000  -22.770002   38.988000       1.0000      1.0079
  252   2 H    1       6.860001  -21.340000   39.007999       1.0000      1.0079
  253   1 O    8      -0.700000   34.700005   39.027999       6.0000     15.9994
  254   2 H    1      -0.530000   34.830002   39.937999       1.0000      1.0079
  255   2 H    1      -1.560000   35.110001   38.787999       1.0000      1.0079
  256   1 O    8       2.320000  -14.870001   35.257999       6.0000     15.9994
  257   2 H    1       2.970000  -15.490000   35.597999       1.0000      1.0079
  258   2 H    1       2.110000  -14.910001   34.327998       1.0000      1.0079
  259   1 O    8       2.700000    7.760000   31.458000       6.0000     15.9994
  260   2 H    1       2.080000    7.070000   31.628000       1.0000      1.0079
  261   2 H    1       3.480000    7.420001   30.947997       1.0000      1.0079
  262   1 O    8      -7.090001    9.550000   36.857999       6.0000     15.9994
  263   2 H    1     -15.590000   23.860001   35.937999       1.0000      1.0079
  264   2 H    1      -6.610000   10.420000   36.967998       1.0000      1.0079
  265   1 O    8     -27.560001    2.900000   37.218000       6.0000     15.9994
  266   2 H    1     -26.940002    2.510000   37.857997       1.0000      1.0079
  267   2 H    1     -27.630003    3.810000   37.548000       1.0000      1.0079
  268   1 O    8       9.820001  -16.820000   34.978000       6.0000     15.9994
  269   2 H    1      10.700001  -16.680000   34.527999       1.0000      1.0079
  270   2 H    1       9.230001  -17.090000   34.237998       1.0000      1.0079
  271   1 O    8     -24.410002    8.800000   33.857999       6.0000     15.9994
  272   2 H    1     -25.300003    8.660001   33.398000       1.0000      1.0079
  273   2 H    1     -23.800001    9.260000   33.237998       1.0000      1.0079
  274   1 O    8     -12.920000    4.800000   32.408000       6.0000     15.9994
  275   2 H    1     -12.160001    5.420001   32.717998       1.0000      1.0079
  276   2 H    1     -13.650000    5.040000   33.017999       1.0000      1.0079
  277   1 O    8      14.150001   17.960001   29.208000       6.0000     15.9994
  278   2 H    1      13.460001   17.300001   29.478000       1.0000      1.0079
  279   2 H    1      15.020000   17.630001   29.617999       1.0000      1.0079
  280   1 O    8      -1.560000   11.400002   33.937999       6.0000     15.9994
  281   2 H    1      -2.310000   11.910001   33.458000       1.0000      1.0079
  282   2 H    1      -1.400000   11.930000   34.757999       1.0000      1.0079
  283   1 O    8       7.710000   29.340002   32.017999       6.0000     15.9994
  284   2 H    1       7.550001   29.530001   32.927997       1.0000      1.0079
  285   2 H    1       8.710001   29.270000   32.108001       1.0000      1.0079
  286   1 O    8       4.780000  -34.010002   39.187999       6.0000     15.9994
  287   2 H    1       5.730000  -33.910004   39.067998       1.0000      1.0079
  288   2 H    1       4.680000  -34.210003   40.147998       1.0000      1.0079
  289   1 O    8      -5.040000    8.000000   37.838001       6.0000     15.9994
  290   2 H    1      -4.490000    8.590000   38.437999       1.0000      1.0079
  291   2 H    1      -5.860000    8.470000   37.647998       1.0000      1.0079
  292   1 O    8      -8.690001   15.680000   29.787998       6.0000     15.9994
  293   2 H    1      -7.960001   16.190001   30.268001       1.0000      1.0079
  294   2 H    1      -8.710001   16.100002   28.897998       1.0000      1.0079
  295   1 O    8       0.560000   -1.470000   29.327998       6.0000     15.9994
  296   2 H    1     -16.600000   -0.560000   29.597999       1.0000      1.0079
  297   2 H    1      -0.120000   -2.220000   29.728000       1.0000      1.0079
  298   1 O    8     -17.620001   18.440001   32.798000       6.0000     15.9994
  299   2 H    1     -17.110001   18.400000   33.667999       1.0000      1.0079
  300   2 H    1     -18.400000   17.840000   32.937999       1.0000      1.0079
  301   1 O    8       0.230000   13.060001   29.228000       6.0000     15.9994
  302   2 H    1      -0.720000   13.000001   29.627998       1.0000      1.0079
  303   2 H    1       0.740000   12.310000   29.678001       1.0000      1.0079
  304   3 Pt  78       1.670000    1.010000   26.917999      10.0000    195.0840
  305   3 Pt  78       4.530000    1.090000   26.907996      10.0000    195.0840
  306   3 Pt  78       7.260000    0.960000   26.687999      10.0000    195.0840
  307   3 Pt  78      10.130000    0.900000   26.837997      10.0000    195.0840
  308   3 Pt  78      12.960000    0.880000   26.977996      10.0000    195.0840
  309   3 Pt  78      15.740002    0.910000   26.757999      10.0000    195.0840
  310   3 Pt  78       2.950000    3.320000   26.977996      10.0000    195.0840
  311   3 Pt  78       6.090000    3.310000   26.928001      10.0000    195.0840
  312   3 Pt  78       8.800000    3.330000   26.757999      10.0000    195.0840
  313   3 Pt  78      11.590000    3.260000   26.967998      10.0000    195.0840
  314   3 Pt  78      14.320001    3.420000   26.807998      10.0000    195.0840
  315   3 Pt  78       0.180000    3.370000   26.837997      10.0000    195.0840
  316   3 Pt  78       4.560000    5.660000   26.837997      10.0000    195.0840
  317   3 Pt  78       7.400000    5.770000   26.697997      10.0000    195.0840
  318   3 Pt  78      10.190001    5.800000   26.998000      10.0000    195.0840
  319   3 Pt  78      13.000001    5.770000   26.847999      10.0000    195.0840
  320   3 Pt  78      -1.140000    5.730000   26.767997      10.0000    195.0840
  321   3 Pt  78       1.650000    5.690000   26.837997      10.0000    195.0840
  322   3 Pt  78       5.860000    8.260000   26.948001      10.0000    195.0840
  323   3 Pt  78       8.640000    8.250000   26.858001      10.0000    195.0840
  324   3 Pt  78      11.460000    8.170000   26.767997      10.0000    195.0840
  325   3 Pt  78      -2.660000    8.280001   26.827998      10.0000    195.0840
  326   3 Pt  78       0.240000    8.300000   26.747997      10.0000    195.0840
  327   3 Pt  78       3.030000    8.090000   26.917999      10.0000    195.0840
  328   3 Pt  78       7.220001   10.630001   26.917999      10.0000    195.0840
  329   3 Pt  78       9.930000   10.660001   26.967998      10.0000    195.0840
  330   3 Pt  78      -3.970000   10.800000   26.937999      10.0000    195.0840
  331   3 Pt  78      -1.180000   10.610001   26.948001      10.0000    195.0840
  332   3 Pt  78       1.700000   10.630001   26.627998      10.0000    195.0840
  333   3 Pt  78       4.440001   10.710001   26.877998      10.0000    195.0840
  334   3 Pt  78       8.640000   13.110001   27.027999      10.0000    195.0840
  335   3 Pt  78      -5.350000   13.230000   26.948001      10.0000    195.0840
  336   3 Pt  78      -2.590000   13.110001   26.888000      10.0000    195.0840
  337   3 Pt  78       0.190000   13.110001   26.788001      10.0000    195.0840
  338   3 Pt  78       3.180000   13.150001   26.747997      10.0000    195.0840
  339   3 Pt  78       5.880000   13.050001   26.777999      10.0000    195.0840
  340   3 Pt  78       0.200000    1.630000   24.507999      10.0000    195.0840
  341   3 Pt  78       2.970000    1.630000   24.607997      10.0000    195.0840
  342   3 Pt  78       5.840001    1.590000   24.417999      10.0000    195.0840
  343   3 Pt  78       8.640000    1.500000   24.448001      10.0000    195.0840
  344   3 Pt  78      11.450001    1.580000   24.548000      10.0000    195.0840
  345   3 Pt  78      14.200001    1.620000   24.428001      10.0000    195.0840
  346   3 Pt  78       1.580000    3.980000   24.458000      10.0000    195.0840
  347   3 Pt  78       4.410000    4.070000   24.537998      10.0000    195.0840
  348   3 Pt  78       7.150001    3.970000   24.527999      10.0000    195.0840
  349   3 Pt  78      10.060000    3.960000   24.377998      10.0000    195.0840
  350   3 Pt  78      12.850000    4.100000   24.428001      10.0000    195.0840
  351   3 Pt  78      -1.180000    4.060000   24.407996      10.0000    195.0840
  352   3 Pt  78       3.040000    6.440001   24.397998      10.0000    195.0840
  353   3 Pt  78       5.810000    6.490001   24.487998      10.0000    195.0840
  354   3 Pt  78       8.620001    6.350000   24.448001      10.0000    195.0840
  355   3 Pt  78      11.620001    6.450000   24.458000      10.0000    195.0840
  356   3 Pt  78      -2.420000    6.590000   24.407996      10.0000    195.0840
  357   3 Pt  78       0.340000    6.440001   24.437999      10.0000    195.0840
  358   3 Pt  78       4.480000    8.900001   24.537998      10.0000    195.0840
  359   3 Pt  78       7.210000    8.870000   24.507999      10.0000    195.0840
  360   3 Pt  78      10.080000    8.940001   24.537998      10.0000    195.0840
  361   3 Pt  78      -3.960000    8.930000   24.518001      10.0000    195.0840
  362   3 Pt  78      -1.130000    8.920000   24.428001      10.0000    195.0840
  363   3 Pt  78       1.660000    8.820001   24.467998      10.0000    195.0840
  364   3 Pt  78       5.760000   11.300000   24.428001      10.0000    195.0840
  365   3 Pt  78       8.600000   11.320001   24.647998      10.0000    195.0840
  366   3 Pt  78      -5.480001   11.400002   24.717998      10.0000    195.0840
  367   3 Pt  78      -2.640000   11.260000   24.577998      10.0000    195.0840
  368   3 Pt  78       0.140000   11.340000   24.417999      10.0000    195.0840
  369   3 Pt  78       3.010000   11.360001   24.347999      10.0000    195.0840
  370   3 Pt  78       7.180000   13.740001   24.437999      10.0000    195.0840
  371   3 Pt  78      -6.830000   13.850001   24.658000      10.0000    195.0840
  372   3 Pt  78      -3.960000   13.830000   24.607997      10.0000    195.0840
  373   3 Pt  78      -1.260000   13.680000   24.458000      10.0000    195.0840
  374   3 Pt  78       1.610000   13.770000   24.458000      10.0000    195.0840
  375   3 Pt  78       4.330000   13.860001   24.377998      10.0000    195.0840
  376   3 Pt  78      -8.270000   14.560001   22.208000      10.0000    195.0840
  377   3 Pt  78      -5.460000   14.480001   22.347999      10.0000    195.0840
  378   3 Pt  78      -2.580000   14.430000   22.217998      10.0000    195.0840
  379   3 Pt  78       0.170000   14.370001   22.108001      10.0000    195.0840
  380   3 Pt  78       2.970000   14.490002   22.097999      10.0000    195.0840
  381   3 Pt  78       5.830000   14.500000   22.077998      10.0000    195.0840
  382   3 Pt  78       1.600000    2.460000   22.178001      10.0000    195.0840
  383   3 Pt  78       4.370000    2.380000   22.178001      10.0000    195.0840
  384   3 Pt  78       7.240000    2.360000   21.998000      10.0000    195.0840
  385   3 Pt  78      10.010000    2.170000   22.138000      10.0000    195.0840
  386   3 Pt  78      12.900001    2.330000   22.027995      10.0000    195.0840
  387   3 Pt  78      -1.180000    2.370000   22.167999      10.0000    195.0840
  388   3 Pt  78       3.080000    4.770000   22.208000      10.0000    195.0840
  389   3 Pt  78       5.800000    4.790000   22.147998      10.0000    195.0840
  390   3 Pt  78       8.670000    4.790000   22.108001      10.0000    195.0840
  391   3 Pt  78      11.390000    4.800000   22.108001      10.0000    195.0840
  392   3 Pt  78      -2.630000    4.770000   22.147998      10.0000    195.0840
  393   3 Pt  78       0.230000    4.780000   22.147998      10.0000    195.0840
  394   3 Pt  78       4.470000    7.270000   22.127998      10.0000    195.0840
  395   3 Pt  78       7.220001    7.160000   22.157996      10.0000    195.0840
  396   3 Pt  78      10.010000    7.320001   22.287998      10.0000    195.0840
  397   3 Pt  78      -4.120000    7.190001   22.108001      10.0000    195.0840
  398   3 Pt  78      -1.170000    7.190001   22.068000      10.0000    195.0840
  399   3 Pt  78       1.650000    7.090001   22.197997      10.0000    195.0840
  400   3 Pt  78       5.840001    9.710001   22.147998      10.0000    195.0840
  401   3 Pt  78       8.610001    9.660000   22.257999      10.0000    195.0840
  402   3 Pt  78      -5.400000    9.690001   22.307998      10.0000    195.0840
  403   3 Pt  78      -2.600000    9.590000   22.287998      10.0000    195.0840
  404   3 Pt  78       0.290000    9.610001   22.117999      10.0000    195.0840
  405   3 Pt  78       3.050000    9.640000   22.108001      10.0000    195.0840
  406   3 Pt  78       7.210000   12.120000   22.108001      10.0000    195.0840
  407   3 Pt  78      -6.890000   12.120000   22.298000      10.0000    195.0840
  408   3 Pt  78      -3.980000   12.070000   22.227996      10.0000    195.0840
  409   3 Pt  78      -1.210000   11.960001   22.227996      10.0000    195.0840
  410   3 Pt  78       1.570000   12.060001   22.007999      10.0000    195.0840
  411   3 Pt  78       4.380000   12.150001   22.138000      10.0000    195.0840
  412   3 Pt  78       1.570000    0.730000   20.010000      10.0000    195.0840
  413   3 Pt  78       4.450000    0.670000   20.010000      10.0000    195.0840
  414   3 Pt  78       7.220001    0.700000   19.860000      10.0000    195.0840
  415   3 Pt  78       9.900001    0.660000   19.760000      10.0000    195.0840
  416   3 Pt  78      12.780001    0.640000   19.790000      10.0000    195.0840
  417   3 Pt  78      15.580001    0.670000   19.840000      10.0000    195.0840
  418   3 Pt  78       3.010000    3.010000   19.900000      10.0000    195.0840
  419   3 Pt  78       5.750000    3.190000   19.810000      10.0000    195.0840
  420   3 Pt  78       8.540000    3.180000   19.780000      10.0000    195.0840
  421   3 Pt  78      11.320001    3.090000   19.760000      10.0000    195.0840
  422   3 Pt  78      14.210001    3.100000   19.740000      10.0000    195.0840
  423   3 Pt  78       0.200000    3.040000   19.770000      10.0000    195.0840
  424   3 Pt  78       4.400000    5.560000   19.840000      10.0000    195.0840
  425   3 Pt  78       7.150001    5.710001   19.820000      10.0000    195.0840
  426   3 Pt  78       9.930000    5.610001   19.860000      10.0000    195.0840
  427   3 Pt  78      12.710000    5.420001   19.890000      10.0000    195.0840
  428   3 Pt  78      -1.250000    5.470000   19.870000      10.0000    195.0840
  429   3 Pt  78       1.690000    5.480001   19.910000      10.0000    195.0840
  430   3 Pt  78       5.800000    8.040000   19.840000      10.0000    195.0840
  431   3 Pt  78       8.610001    8.070001   19.860000      10.0000    195.0840
  432   3 Pt  78      11.370001    7.960001   19.860000      10.0000    195.0840
  433   3 Pt  78      -2.700000    7.940001   19.830000      10.0000    195.0840
  434   3 Pt  78       0.150000    7.880001   19.800000      10.0000    195.0840
  435   3 Pt  78       3.040000    8.030001   19.860000      10.0000    195.0840
  436   3 Pt  78       7.200000   10.559999   19.900000      10.0000    195.0840
  437   3 Pt  78       9.950001   10.450001   20.000000      10.0000    195.0840
  438   3 Pt  78      -4.040000   10.290001   19.970000      10.0000    195.0840
  439   3 Pt  78      -1.240000   10.320001   19.820000      10.0000    195.0840
  440   3 Pt  78       1.490000   10.450001   19.750000      10.0000    195.0840
  441   3 Pt  78       4.310000   10.410000   19.890000      10.0000    195.0840
  442   3 Pt  78       8.590000   12.890000   19.880000      10.0000    195.0840
  443   3 Pt  78      -5.520000   12.810000   20.120000      10.0000    195.0840
  444   3 Pt  78      -2.660000   12.830001   19.880000      10.0000    195.0840
  445   3 Pt  78       0.070000   12.770000   19.800000      10.0000    195.0840
  446   3 Pt  78       2.880000   12.880001   19.720000      10.0000    195.0840
  447   3 Pt  78       5.640000   12.920000   19.790000      10.0000    195.0840
  448   3 Pt  78       0.070000    1.430000   17.510000      10.0000    195.0840
  449   3 Pt  78       2.890000    1.410000   17.660000      10.0000    195.0840
  450   3 Pt  78       5.680000    1.430000   17.620000      10.0000    195.0840
  451   3 Pt  78       8.500000    1.490000   17.450000      10.0000    195.0840
  452   3 Pt  78      11.270000    1.440000   17.350000      10.0000    195.0840
  453   3 Pt  78      14.080001    1.490000   17.440000      10.0000    195.0840
  454   3 Pt  78       1.560000    3.930000   17.520000      10.0000    195.0840
  455   3 Pt  78       4.320000    3.900000   17.530000      10.0000    195.0840
  456   3 Pt  78       7.100000    3.870000   17.520000      10.0000    195.0840
  457   3 Pt  78       9.850000    4.020000   17.540000      10.0000    195.0840
  458   3 Pt  78      12.670001    3.880000   17.540000      10.0000    195.0840
  459   3 Pt  78      -1.270000    3.810000   17.490000      10.0000    195.0840
  460   3 Pt  78       2.960000    6.310000   17.540000      10.0000    195.0840
  461   3 Pt  78       5.680000    6.200000   17.480000      10.0000    195.0840
  462   3 Pt  78       8.490001    6.420000   17.510000      10.0000    195.0840
  463   3 Pt  78      11.320001    6.320000   17.470000      10.0000    195.0840
  464   3 Pt  78      -2.710000    6.220000   17.620000      10.0000    195.0840
  465   3 Pt  78       0.140000    6.320000   17.510000      10.0000    195.0840
  466   3 Pt  78       4.310000    8.800000   17.560000      10.0000    195.0840
  467   3 Pt  78       7.140000    8.690001   17.570000      10.0000    195.0840
  468   3 Pt  78      10.020000    8.780001   17.560000      10.0000    195.0840
  469   3 Pt  78      -4.070000    8.620001   17.480000      10.0000    195.0840
  470   3 Pt  78      -1.400000    8.700001   17.560000      10.0000    195.0840
  471   3 Pt  78       1.420000    8.680000   17.510000      10.0000    195.0840
  472   3 Pt  78       5.730000   11.250000   17.520000      10.0000    195.0840
  473   3 Pt  78       8.560000   11.170001   17.580000      10.0000    195.0840
  474   3 Pt  78      -5.570001   11.130000   17.550000      10.0000    195.0840
  475   3 Pt  78      -2.750000   11.200000   17.570000      10.0000    195.0840
  476   3 Pt  78       0.010000   11.230000   17.440000      10.0000    195.0840
  477   3 Pt  78       2.880000   11.270000   17.500000      10.0000    195.0840
  478   3 Pt  78       7.230001   13.560000   17.550000      10.0000    195.0840
  479   3 Pt  78      -6.880000   13.540001   17.790000      10.0000    195.0840
  480   3 Pt  78      -4.040000   13.550000   17.670000      10.0000    195.0840
  481   3 Pt  78      -1.350000   13.640001   17.420000      10.0000    195.0840
  482   3 Pt  78       1.340000   13.670001   17.430000      10.0000    195.0840
  483   3 Pt  78       4.380000   13.610001   17.400000      10.0000    195.0840
  484   3 Pt  78      -8.200001   14.280001   15.230000      10.0000    195.0840
  485   3 Pt  78      -5.490000   14.390000   15.460000      10.0000    195.0840
  486   3 Pt  78      -2.800000   14.460001   15.160000      10.0000    195.0840
  487   3 Pt  78       0.000000   14.390000   15.120000      10.0000    195.0840
  488   3 Pt  78       2.860000   14.480001   15.100000      10.0000    195.0840
  489   3 Pt  78       5.810000   14.390000   15.230000      10.0000    195.0840
  490   3 Pt  78       1.430000    2.210000   15.190001      10.0000    195.0840
  491   3 Pt  78       4.220000    2.220000   15.350000      10.0000    195.0840
  492   3 Pt  78       7.090001    2.260000   15.090000      10.0000    195.0840
  493   3 Pt  78       9.830000    2.240000   15.220000      10.0000    195.0840
  494   3 Pt  78      12.800001    2.330000   15.200000      10.0000    195.0840
  495   3 Pt  78      -1.380000    2.310000   15.030000      10.0000    195.0840
  496   3 Pt  78       2.870000    4.630000   15.230000      10.0000    195.0840
  497   3 Pt  78       5.620000    4.560000   15.200000      10.0000    195.0840
  498   3 Pt  78       8.520000    4.690000   15.130000      10.0000    195.0840
  499   3 Pt  78      11.250000    4.650001   15.140000      10.0000    195.0840
  500   3 Pt  78      -2.740000    4.730000   15.150001      10.0000    195.0840
  501   3 Pt  78       0.020000    4.670000   15.220000      10.0000    195.0840
  502   3 Pt  78       4.090000    7.150001   15.170000      10.0000    195.0840
  503   3 Pt  78       6.890000    7.120000   15.250000      10.0000    195.0840
  504   3 Pt  78       9.760000    7.110000   15.170000      10.0000    195.0840
  505   3 Pt  78      -4.190001    7.170000   15.150001      10.0000    195.0840
[...]
 -                                                                             -
 -------------------------------------------------------------------------------
 COUNTER                                    TOTAL       BLAS       SMM       ACC
 flops     5 x    32 x     5           4046566400       0.0%    100.0%      0.0%
 flops    13 x    32 x     5           5176970240       0.0%    100.0%      0.0%
 flops     5 x    32 x    13           5176970240       0.0%    100.0%      0.0%
 flops    13 x    32 x    13           6141952128       0.0%    100.0%      0.0%
 flops     5 x     5 x    96           6690220800       0.0%    100.0%      0.0%
 flops    13 x     5 x    96           8511859200       0.0%    100.0%      0.0%
 flops     5 x    13 x    96           8522042880       0.0%    100.0%      0.0%
 flops    13 x    32 x    20           8774438400       0.0%    100.0%      0.0%
 flops    20 x    32 x    13           8774438400       0.0%    100.0%      0.0%
 flops     5 x    32 x    20           9320832000       0.0%    100.0%      0.0%
 flops    20 x    32 x     5           9320832000       0.0%    100.0%      0.0%
 flops    13 x    13 x    96          10215928320       0.0%    100.0%      0.0%
 flops    13 x    20 x    96          14423485440       0.0%    100.0%      0.0%
 flops    20 x    13 x    96          14447247360       0.0%    100.0%      0.0%
 flops    20 x     5 x    96          15329049600       0.0%    100.0%      0.0%
 flops     5 x    20 x    96          15339494400       0.0%    100.0%      0.0%
 flops     5 x     5 x   128          62442060800       0.0%    100.0%      0.0%
 flops    20 x    32 x    20          74052403200       0.0%    100.0%      0.0%
 flops    13 x     5 x   128          79444019200       0.0%    100.0%      0.0%
 flops     5 x    13 x   128          79539066880       0.0%    100.0%      0.0%
 flops    13 x    13 x   128          95348664320       0.0%    100.0%      0.0%
 flops    20 x    20 x    96         122392166400       0.0%    100.0%      0.0%
 flops    13 x    20 x   128         134619197440       0.0%    100.0%      0.0%
 flops    20 x    13 x   128         134840975360       0.0%    100.0%      0.0%
 flops    20 x     5 x   128         143071129600       0.0%    100.0%      0.0%
 flops     5 x    20 x   128         143168614400       0.0%    100.0%      0.0%
 flops    20 x    20 x   128        1142326886400       0.0%    100.0%      0.0%
 flops inhomo. stacks                           0       0.0%      0.0%      0.0%
 flops total                         2.361458E+12       0.0%    100.0%      0.0%
 flops max/rank                     20.901353E+09       0.0%    100.0%      0.0%
 matmuls inhomo. stacks                         0       0.0%      0.0%      0.0%
 matmuls total                           67188662       0.0%    100.0%      0.0%
 number of processed stacks                648110       0.0%    100.0%      0.0%
 average stack size                                     0.0     103.7       0.0
 marketing flops                     4.810462E+12
 -------------------------------------------------------------------------------
 # multiplications                             35
 max memory usage/rank               1.589477E+09
 # max total images/rank                        2
 # max 3D layers                                1
 # MPI messages exchanged                  129920
 MPI messages size (bytes):
  total size                        83.560669E+09
  min size                         288.768000E+03
  max size                           2.183928E+06
  average size                     643.170188E+03
 MPI breakdown and total messages size (bytes):
             size <=      128                   0                        0
       128 < size <=     8192                   0                        0
      8192 < size <=    32768                   0                        0
     32768 < size <=   131072                   0                        0
    131072 < size <=  4194304              129920              83560664200
   4194304 < size <= 16777216                   0                        0
  16777216 < size                               0                        0
 -------------------------------------------------------------------------------

 *** WARNING in dbcsr_mm.F:290 :: Using a non-square number of MPI ranks ***
 *** might lead to poor performance. Used ranks: 128 Suggested: 121 256  ***

 -------------------------------------------------------------------------------
 -                                                                             -
 -                      DBCSR MESSAGE PASSING PERFORMANCE                      -
 -                                                                             -
 -------------------------------------------------------------------------------
 ROUTINE             CALLS      AVE VOLUME [Bytes]
 MP_Bcast               28                     12.
 MP_Allreduce          312                     12.
 MP_Alltoall           973                 582005.
 MP_ISend             2240                 303467.
 MP_IRecv             2240                 297057.
 -------------------------------------------------------------------------------

 -------------------------------------------------------------------------------
 -                                                                             -
 -                                DBM STATISTICS                               -
 -                                                                             -
 -------------------------------------------------------------------------------
    M  x    N  x    K                                          COUNT     PERCENT
 -------------------------------------------------------------------------------

 -------------------------------------------------------------------------------
 -                                                                             -
 -                                GRID STATISTICS                              -
 -                                                                             -
 -------------------------------------------------------------------------------
 LP    KERNEL             BACKEND                              COUNT     PERCENT
 4     collocate general  REF                               13429911      21.86%
 4     integrate general  REF                               13311623      21.67%
 3     collocate general  REF                                9526407      15.51%
 3     integrate general  REF                                9468910      15.41%
 2     collocate general  REF                                7629006      12.42%
 2     integrate general  REF                                7397824      12.04%
 5     integrate general  REF                                 406967       0.66%
 0     collocate general  REF                                 132864       0.22%
 0     integrate general  REF                                  66432       0.11%
 1     integrate general  REF                                  66432       0.11%
 -------------------------------------------------------------------------------

 MEMORY| Estimated peak process memory [MiB]                                1791

 -------------------------------------------------------------------------------
 ----                             MULTIGRID INFO                            ----
 -------------------------------------------------------------------------------
 count for grid        1:        1098898          cutoff [a.u.]          200.00
 count for grid        2:        1093975          cutoff [a.u.]           66.67
 count for grid        3:         720334          cutoff [a.u.]           22.22
 count for grid        4:         558956          cutoff [a.u.]            7.41
 total gridlevel count  :        3472163

 -------------------------------------------------------------------------------
 -                                                                             -
 -                         MESSAGE PASSING PERFORMANCE                         -
 -                                                                             -
 -------------------------------------------------------------------------------

 ROUTINE             CALLS      AVE VOLUME [Bytes]
 MP_Group                4
 MP_Bcast             2195                 307935.
 MP_Allreduce         3278                  33268.
 MP_Sync                72
 MP_Alltoall          2002               15983213.
 MP_SendRecv           508                   6027.
 MP_ISendRecv        16764                  61740.
 MP_Wait             29802
 MP_comm_split          34
 MP_ISend            12292                 256477.
 MP_IRecv            12292                 256477.
 MP_Recv               122                1700608.
 MP_Write_All            3                1797408.
 -------------------------------------------------------------------------------


 -------------------------------------------------------------------------------
 -                                                                             -
 -                           R E F E R E N C E S                               -
 -                                                                             -
 -------------------------------------------------------------------------------
 
 CP2K version 2022.1, the CP2K developers group (2022).
 CP2K is freely available from https://www.cp2k.org/ .

 Kuehne,Thomas D.; Iannuzzi,Marcella; Del Ben,Mauro;
 Rybkin,Vladimir V.; Seewald,Patrick; Stein,Frederick; Laino,Teodoro;
 Khaliullin,Rustam Z.; Schuett,Ole; Schiffmann,Florian; Golze,Dorothea;
 Wilhelm,Jan; Chulkov,Sergey; Bani-Hashemian,Mohammad Hossein;
 Weber,Valery; Borstnik,Urban; Taillefumier,Mathieu;
 Jakobovits,Alice Shoshana; Lazzaro,Alfio; Pabst,Hans; Mueller,Tiziano;
 Schade,Robert; Guidon,Manuel; Andermatt,Samuel; Holmberg,Nico;
 Schenter,Gregory K.; Hehn,Anna; Bussy,Augustin; Belleflamme,Fabian;
 Tabacchi,Gloria; Gloess,Andreas; Lass,Michael; Bethune,Iain;
 Mundy,Christopher J.; Plessl,Christian; Watkins,Matt;
 VandeVondele,Joost; Krack,Matthias; Hutter,Juerg. 
 The Journal of Chemical Physics, 152 (19), (2020). 
 CP2K: An electronic structure and molecular dynamics software package -
 Quickstep: Efficient and accurate electronic structure calculations.
 https://doi.org/10.1063/5.0007045

 Goerigk, Lars; Hansen, Andreas; Bauer, Christoph; Ehrlich, Stephan;
 Najibi, Asim; Grimme, Stefan. , 19 (48), (2017). 
 A look at the density functional theory zoo with the advanced GMTKN55 database
 for general main group thermochemistry, kinetics and noncovalent interactions.
 https://doi.org/10.1039/C7CP04913G

 Bani-Hashemian, MH; Bruck, S; Luisier, M; VandeVondele, J. 
 JOURNAL OF CHEMICAL PHYSICS, 144 (4), 044113 (2016). 
 A generalized Poisson solver for first-principles device simulations.
 https://doi.org/10.1063/1.4940796

 Schuett, Ole; Messmer, Peter; Hutter, Juerg; VandeVondele, Joost. 
 Electronic Structure Calculations on Graphics Processing Units, John
 Wiley & Sons, Ltd, 173-190 (2016). 
 GPU-Accelerated Sparse Matrix-Matrix Multiplication for
 Linear Scaling Density Functional Theory.
 https://doi.org/10.1002/9781118670712.ch8

 Heinecke, A; Henry, G; Hutchinson, M; Pabst, H. 
 Proceedings of Intl. Supercomputing Conference, 981-991 (2016). 
 LIBXSMM: Accelerating Small Matrix Multiplications
 by Runtime Code Generation.
 https://doi.org/10.1109/SC.2016.83

 Borstnik, U; VandeVondele, J; Weber, V; Hutter, J. 
 PARALLEL COMPUTING, 40 (5-6), 47-58 (2014). 
 Sparse matrix multiplication: The distributed block-compressed sparse
 row library.
 https://doi.org/10.1016/j.parco.2014.03.012

 Hutter, J; Iannuzzi, M; Schiffmann, F; VandeVondele, J. 
 WIREs Comput Mol Sci., 4 (1), 15-25 (2014). 
 CP2K: atomistic simulations of condensed matter systems.
 https://doi.org/10.1002/wcms.1159

 Marek, A; Blum, V; Johanni, R; Havu, V; Lang, B; Auckenthaler, T;
 Heinecke, A; Bungartz, H; Lederer, H. 
 Journal of Physics: Condensed Matter, 26 (21), (2014). 
 The ELPA library: scalable parallel eigenvalue solutions for
 electronic structure
 theory and computational science.
 https://doi.org/10.1088/0953-8984/26/21/213201

 Grimme, S; Ehrlich, S; Goerigk, L. 
 JOURNAL OF COMPUTATIONAL CHEMISTRY, 32, 1456 (2011). 
 Effect of the damping function in dispersion corrected density functional theory.
 https://doi.org/10.1002/jcc.21759

 Grimme, S; Antony, J; Ehrlich, S; Krieg, H. 
 JOURNAL OF CHEMICAL PHYSICS, 132 (15), 154104 (2010). 
 A consistent and accurate ab initio parametrization of density
 functional dispersion correction (DFT-D) for the 94 elements H-Pu.
 https://doi.org/10.1063/1.3382344

 VandeVondele, J; Hutter, J. 
 JOURNAL OF CHEMICAL PHYSICS, 127 (11), 114105 (2007). 
 Gaussian basis sets for accurate calculations on molecular systems in
 gas and condensed phases.
 https://doi.org/10.1063/1.2770708

 Krack, M. 
 THEORETICAL CHEMISTRY ACCOUNTS, 114 (1-3), 145-152 (2005). 
 Pseudopotentials for H to Kr optimized for gradient-corrected
 exchange-correlation functionals.
 https://doi.org/10.1007/s00214-005-0655-y

 VandeVondele, J; Krack, M; Mohamed, F; Parrinello, M; Chassaing, T;
 Hutter, J. COMPUTER PHYSICS COMMUNICATIONS, 167 (2), 103-128 (2005). 
 QUICKSTEP: Fast and accurate density functional calculations using a
 mixed Gaussian and plane waves approach.
 https://doi.org/10.1016/j.cpc.2004.12.014

 Frigo, M; Johnson, SG. 
 PROCEEDINGS OF THE IEEE, 93 (2), 216-231 (2005). 
 The design and implementation of FFTW3.
 https://doi.org/10.1109/JPROC.2004.840301

 Hartwigsen, C; Goedecker, S; Hutter, J. 
 PHYSICAL REVIEW B, 58 (7), 3641-3662 (1998). 
 Relativistic separable dual-space Gaussian pseudopotentials from H to Rn.
 https://doi.org/10.1103/PhysRevB.58.3641

 Lippert, G; Hutter, J; Parrinello, M. 
 MOLECULAR PHYSICS, 92 (3), 477-487 (1997). 
 A hybrid Gaussian and plane wave density functional scheme.
 https://doi.org/10.1080/002689797170220

 Perdew, JP; Burke, K; Ernzerhof, M. 
 PHYSICAL REVIEW LETTERS, 77 (18), 3865-3868 (1996). 
 Generalized gradient approximation made simple.
 https://doi.org/10.1103/PhysRevLett.77.3865

 Goedecker, S; Teter, M; Hutter, J. 
 PHYSICAL REVIEW B, 54 (3), 1703-1710 (1996). 
 Separable dual-space Gaussian pseudopotentials.
 https://doi.org/10.1103/PhysRevB.54.1703


 -------------------------------------------------------------------------------
 -                                                                             -
 -                                T I M I N G                                  -
 -                                                                             -
 -------------------------------------------------------------------------------
 SUBROUTINE                       CALLS  ASD         SELF TIME        TOTAL TIME
                                MAXIMUM       AVERAGE  MAXIMUM  AVERAGE  MAXIMUM
 CP2K                                 1  1.0    0.019    0.031  234.464  234.465
 qs_forces                            1  2.0    0.002    0.002  234.079  234.080
 qs_energies                          1  3.0    0.000    0.001  227.957  227.962
 scf_env_do_scf                       1  4.0    0.000    0.000  218.833  218.994
 scf_env_do_scf_inner_loop           32  5.0    0.002    0.006  218.830  218.990
 rebuild_ks_matrix                   33  6.9    0.000    0.000  118.684  118.707
 qs_ks_build_kohn_sham_matrix        33  7.9    0.005    0.008  118.684  118.706
 qs_ks_update_qs_env                 32  6.0    0.000    0.000  114.686  114.709
 pw_transfer                       1720 12.2    0.125    0.168   74.790   76.335
 fft_wrap_pw1pw2                   1720 13.2    0.016    0.019   74.665   76.190
 fft_wrap_pw1pw2_200               1522 14.4    5.061    5.955   73.682   75.181
 pw_poisson_solve                    33  8.9    0.003    0.009   64.077   64.100
 qs_scf_new_mos                      32  6.0    0.001    0.004   63.002   63.076
 fft3d_ps                          1720 15.2   21.621   24.490   60.030   62.147
 implicit_poisson_solver_mixed_      33  9.9    1.362    1.662   60.594   60.641
 eigensolver                         32  7.0    0.003    0.004   59.398   59.575
 derive_fft                         198 12.1    0.013    0.015   42.461   42.582
 cp_fm_diag_elpa                     34  8.1    0.000    0.001   42.050   42.155
 cp_fm_redistribute_end              34  9.1    5.589   41.683    5.667   41.733
 cp_fm_diag_elpa_base                34  9.0   35.519   40.764   35.857   41.127
 mp_alltoall_z22v                  1720 17.2   32.146   39.723   32.146   39.723
 qs_rho_update_rho_low               33  6.0    0.000    0.000   36.874   36.882
 calculate_rho_elec                  33  7.0    0.064    0.085   36.873   36.882
 apply_P_operator                   165 11.1    0.879    0.972   36.326   36.443
 sum_up_and_integrate                33  8.9    0.179    0.238   36.347   36.380
 integrate_v_rspace                  33  9.9    0.001    0.005   36.168   36.243
 grid_collocate_task_list            33  8.0   24.254   28.765   24.254   28.765
 grid_integrate_task_list            33 10.9   22.583   26.180   22.583   26.180
 x_to_yz                            991 16.4    4.188    5.282   24.337   25.097
 rs_pw_transfer                     268 10.4    0.003    0.004   16.048   19.393
 cp_fm_triangular_multiply           96  8.0   18.841   19.045   18.841   19.045
 yz_to_x                            531 16.4    1.453    1.670   13.325   18.055
 qs_vxc_create                       33  8.9    0.001    0.001   16.347   16.557
 xc_vxc_pw_create                    33  9.9    0.281    0.347   16.346   16.557
 density_rs2pw                       33  8.0    0.002    0.002   11.800   15.271
 xc_pw_derive                       198 11.9    0.003    0.004   11.545   12.747
 apply_poisson_operator_fft          33 10.9    0.000    0.001   10.600   10.780
 apply_inv_laplace_operator_fft     101 11.6    0.252    0.285    9.862   10.221
 rs_pw_transfer_RS2PW_200            35  9.9    2.307    2.567    6.750   10.119
 mp_waitany                       12292 12.3    6.754   10.037    6.754   10.037
 potential_pw2rs                     33 10.9    0.010    0.011    9.484    9.565
 xc_pw_divergence                    33 10.9    0.002    0.004    7.862    8.807
 xc_rho_set_and_dset_create          33 10.9    0.164    0.192    7.912    8.688
 mp_alltoall_d11v                   484 10.3    5.139    8.181    5.139    8.181
 ps_implicit_compute_error_fft       66 10.9    0.415    0.502    7.131    7.649
 ps_implicit_compute_veps            33 10.9    0.192    0.227    7.209    7.330
 pw_scatter_p                      1090 15.3    6.095    7.080    6.095    7.080
 rs_gather_matrices                  33 10.9    0.041    0.056    4.088    7.064
 scf_post_calculation_gpw             1  4.0    0.000    0.001    5.721    5.726
 write_available_results              1  5.0    0.000    0.000    5.720    5.726
 rs_pw_transfer_PW2RS_200            35 12.7    2.627    2.725    5.532    5.670
 pw_derive                          792 13.0    5.017    5.371    5.017    5.371
 gspace_mixing                       31  6.0    0.059    0.073    5.231    5.237
 -------------------------------------------------------------------------------

 The number of warnings for this run is : 1
 
 -------------------------------------------------------------------------------
  **** **** ******  **  PROGRAM ENDED AT                 2023-12-03 03:20:51.153
 ***** ** ***  *** **   PROGRAM RAN ON                                     cu001
 **    ****   ******    PROGRAM RAN BY                                     jxzhu
 ***** **    ** ** **   PROGRAM PROCESS ID                                 55662
  **** **  *******  **  PROGRAM STOPPED IN /public/home/jxzhu/tmp_calc/5d35a315d
                                           26d54480fd8fdb9c264a27b0a7639c4/calc/
                                           002500.000/search_hi.000000
