 DBCSR| CPU Multiplication driver                                           XSMM
 DBCSR| Multrec recursion limit                                              512
 DBCSR| Multiplication stack size                                           1000
 DBCSR| Maximum elements for images                                    UNLIMITED
 DBCSR| Multiplicative factor virtual images                                   1
 DBCSR| Use multiplication densification                                       T
 DBCSR| Multiplication size stacks                                             3
 DBCSR| Use memory pool for CPU allocation                                     F
 DBCSR| Number of 3D layers                                               SINGLE
 DBCSR| Use MPI memory allocation                                              F
 DBCSR| Use RMA algorithm                                                      F
 DBCSR| Use Communication thread                                               T
 DBCSR| Communication thread load                                             87
 DBCSR| MPI: My node id                                                        0
 DBCSR| MPI: Number of nodes                                                  32
 DBCSR| OMP: Current number of threads                                         1
 DBCSR| OMP: Max number of threads                                             1
 DBCSR| Split modifier for TAS multiplication algorithm                  1.0E+00


  **** **** ******  **  PROGRAM STARTED AT               2023-12-03 00:55:15.123
 ***** ** ***  *** **   PROGRAM STARTED ON                                 cu042
 **    ****   ******    PROGRAM STARTED BY                                 jxzhu
 ***** **    ** ** **   PROGRAM PROCESS ID                                 54177
  **** **  *******  **  PROGRAM STARTED IN /public/home/jxzhu/tmp_calc/04c0855f9
                                           8753fac23fde4df51ba20f3741a9e9a/calc/
                                           task.002.000004

 CP2K| version string:                                       CP2K version 2022.1
 CP2K| source code revision number:                                  git:2caeb6f
 CP2K| cp2kflags: omp libint fftw3 libxc elpa parallel mpi3 scalapack cosma xsmm
 CP2K|             plumed2 spglib mkl sirius libvori libbqb
 CP2K| is freely available from                            https://www.cp2k.org/
 CP2K| Program compiled at                           Mon Jul 3 17:37:06 CST 2023
 CP2K| Program compiled on                                                 mu003
 CP2K| Program compiled for                                                local
 CP2K| Data directory path                             /public/home/jxzhu/basis/
 CP2K| Input file name                                                 input.inp
 
 GLOBAL| Force Environment number                                              1
 GLOBAL| Basis set file name                                        BASIS_MOLOPT
 GLOBAL| Potential file name                                      GTH_POTENTIALS
 GLOBAL| MM Potential file name                                     MM_POTENTIAL
 GLOBAL| Coordinate file name                                          coord.xyz
 GLOBAL| Method name                                                        CP2K
 GLOBAL| Project name                                                       cp2k
 GLOBAL| Run type                                                   ENERGY_FORCE
 GLOBAL| FFT library                                                       FFTW3
 GLOBAL| Diagonalization library                                            ELPA
 GLOBAL| Minimum number of eigenvectors for ELPA usage                        16
 GLOBAL| Orthonormality check for eigenvectors                          DISABLED
 GLOBAL| Matrix multiplication library                                     COSMA
 GLOBAL| All-to-all communication in single precision                          F
 GLOBAL| FFTs using library dependent lengths                                  T
 GLOBAL| Grid backend                                                       AUTO
 GLOBAL| Global print level                                               MEDIUM
 GLOBAL| MPI I/O enabled                                                       T
 GLOBAL| Total number of message passing processes                            32
 GLOBAL| Number of threads for this process                                    1
 GLOBAL| This output is from process                                           0
 GLOBAL| Stack size for threads created by OpenMP (OMP_STACKSIZE)        default
 GLOBAL| CPU model name                 Intel(R) Xeon(R) Gold 6338 CPU @ 2.00GHz
 GLOBAL| CPUID                                                              1003

 MEMORY| system memory details [Kb]
 MEMORY|                        rank 0           min           max       average
 MEMORY| MemTotal            263619172     263619172     263619172     263619172
 MEMORY| MemFree             175400788     175400788     175400788     175400788
 MEMORY| Buffers                  3320          3320          3320          3320
 MEMORY| Cached                7737236       7737236       7737236       7737236
 MEMORY| Slab                  1779760       1779760       1779760       1779760
 MEMORY| SReclaimable           245628        245628        245628        245628
 MEMORY| MemLikelyFree       183386972     183386972     183386972     183386972


 *** Fundamental physical constants (SI units) ***

 *** Literature: B. J. Mohr and B. N. Taylor,
 ***             CODATA recommended values of the fundamental physical
 ***             constants: 2006, Web Version 5.1
 ***             http://physics.nist.gov/constants

 Speed of light in vacuum [m/s]                             2.99792458000000E+08
 Magnetic constant or permeability of vacuum [N/A**2]       1.25663706143592E-06
 Electric constant or permittivity of vacuum [F/m]          8.85418781762039E-12
 Planck constant (h) [J*s]                                  6.62606896000000E-34
 Planck constant (h-bar) [J*s]                              1.05457162825177E-34
 Elementary charge [C]                                      1.60217648700000E-19
 Electron mass [kg]                                         9.10938215000000E-31
 Electron g factor [ ]                                     -2.00231930436220E+00
 Proton mass [kg]                                           1.67262163700000E-27
 Fine-structure constant                                    7.29735253760000E-03
 Rydberg constant [1/m]                                     1.09737315685270E+07
 Avogadro constant [1/mol]                                  6.02214179000000E+23
 Boltzmann constant [J/K]                                   1.38065040000000E-23
 Atomic mass unit [kg]                                      1.66053878200000E-27
 Bohr radius [m]                                            5.29177208590000E-11

 *** Conversion factors ***

 [u] -> [a.u.]                                              1.82288848426455E+03
 [Angstrom] -> [Bohr] = [a.u.]                              1.88972613288564E+00
 [a.u.] = [Bohr] -> [Angstrom]                              5.29177208590000E-01
 [a.u.] -> [s]                                              2.41888432650478E-17
 [a.u.] -> [fs]                                             2.41888432650478E-02
 [a.u.] -> [J]                                              4.35974393937059E-18
 [a.u.] -> [N]                                              8.23872205491840E-08
 [a.u.] -> [K]                                              3.15774647902944E+05
 [a.u.] -> [kJ/mol]                                         2.62549961709828E+03
 [a.u.] -> [kcal/mol]                                       6.27509468713739E+02
 [a.u.] -> [Pa]                                             2.94210107994716E+13
 [a.u.] -> [bar]                                            2.94210107994716E+08
 [a.u.] -> [atm]                                            2.90362800883016E+08
 [a.u.] -> [eV]                                             2.72113838565563E+01
 [a.u.] -> [Hz]                                             6.57968392072181E+15
 [a.u.] -> [1/cm] (wave numbers)                            2.19474631370540E+05
 [a.u./Bohr**2] -> [1/cm]                                   5.14048714338585E+03
 

 CELL_TOP| Volume [angstrom^3]:                                     12686.086737
 CELL_TOP| Vector a [angstrom    16.869     0.000     0.000   |a| =    16.869000
 CELL_TOP| Vector b [angstrom    -8.434    14.609     0.000   |b| =    16.868929
 CELL_TOP| Vector c [angstrom     0.000     0.000    51.478   |c| =    51.477900
 CELL_TOP| Angle (b,c), alpha [degree]:                                90.000000
 CELL_TOP| Angle (a,c), beta  [degree]:                                90.000000
 CELL_TOP| Angle (a,b), gamma [degree]:                               120.000140
 CELL_TOP| Numerically orthorhombic:                                          NO
 
 GENERATE|  Preliminary Number of Bonds generated:                             0
 GENERATE|  Achieved consistency in connectivity generation.

 CELL| Volume [angstrom^3]:                                         12686.086737
 CELL| Vector a [angstrom]:      16.869     0.000     0.000   |a| =    16.869000
 CELL| Vector b [angstrom]:      -8.434    14.609     0.000   |b| =    16.868929
 CELL| Vector c [angstrom]:       0.000     0.000    51.478   |c| =    51.477900
 CELL| Angle (b,c), alpha [degree]:                                    90.000000
 CELL| Angle (a,c), beta  [degree]:                                    90.000000
 CELL| Angle (a,b), gamma [degree]:                                   120.000140
 CELL| Numerically orthorhombic:                                              NO

 CELL_REF| Volume [angstrom^3]:                                     12686.086737
 CELL_REF| Vector a [angstrom    16.869     0.000     0.000   |a| =    16.869000
 CELL_REF| Vector b [angstrom    -8.434    14.609     0.000   |b| =    16.868929
 CELL_REF| Vector c [angstrom     0.000     0.000    51.478   |c| =    51.477900
 CELL_REF| Angle (b,c), alpha [degree]:                                90.000000
 CELL_REF| Angle (a,c), beta  [degree]:                                90.000000
 CELL_REF| Angle (a,b), gamma [degree]:                               120.000140
 CELL_REF| Numerically orthorhombic:                                          NO

 *******************************************************************************
 *******************************************************************************
 **                                                                           **
 **     #####                         ##              ##                      **
 **    ##   ##            ##          ##              ##                      **
 **   ##     ##                       ##            ######                    **
 **   ##     ##  ##   ##  ##   #####  ##  ##   ####   ##    #####    #####    **
 **   ##     ##  ##   ##  ##  ##      ## ##   ##      ##   ##   ##  ##   ##   **
 **   ##  ## ##  ##   ##  ##  ##      ####     ###    ##   ######   ######    **
 **    ##  ###   ##   ##  ##  ##      ## ##      ##   ##   ##       ##        **
 **     #######   #####   ##   #####  ##  ##  ####    ##    #####   ##        **
 **           ##                                                    ##        **
 **                                                                           **
 **                                                ... make the atoms dance   **
 **                                                                           **
 **            Copyright (C) by CP2K developers group (2000-2022)             **
 **                      J. Chem. Phys. 152, 194103 (2020)                    **
 **                                                                           **
 *******************************************************************************

 DFT| Spin restricted Kohn-Sham (RKS) calculation                            RKS
 DFT| Multiplicity                                                             1
 DFT| Number of spin states                                                    1
 DFT| Charge                                                                   0
 DFT| Self-interaction correction (SIC)                                       NO
 DFT| Cutoffs: density                                              1.000000E-10
 DFT|          gradient                                             1.000000E-10
 DFT|          tau                                                  1.000000E-10
 DFT|          cutoff_smoothing_range                               0.000000E+00
 DFT| XC density smoothing                                                  NONE
 DFT| XC derivatives                                                          PW

 FUNCTIONAL| PBE:
 FUNCTIONAL| J.P.Perdew, K.Burke, M.Ernzerhof, Phys. Rev. Letter, vol. 77, n 18,
 FUNCTIONAL|  pp. 3865-3868, (1996){spin unpolarized}                           

 vdW POTENTIAL|                                                   Pair Potential
 vdW POTENTIAL|          DFT-D3 (Version 3.1)
 vdW POTENTIAL|          Potential Form: S. Grimme et al, JCP 132: 154104 (2010)
 vdW POTENTIAL|          Zero Damping
 vdW POTENTIAL|          Cutoff Radius [Bohr]:                             20.00
 vdW POTENTIAL|          s6 Scaling Factor:                               1.0000
 vdW POTENTIAL|          sr6 Scaling Factor:                              1.2170
 vdW POTENTIAL|          s8 Scaling Factor:                               0.7220
 vdW POTENTIAL|          Cutoff for CN calculation:                   0.1000E-05

 QS| Method:                                                                 GPW
 QS| Density plane wave grid type                        NON-SPHERICAL FULLSPACE
 QS| Number of grid levels:                                                    4
 QS| Density cutoff [a.u.]:                                                200.0
 QS| Multi grid cutoff [a.u.]: 1) grid level                               200.0
 QS|                           2) grid level                                66.7
 QS|                           3) grid level                                22.2
 QS|                           4) grid level                                 7.4
 QS| Grid level progression factor:                                          3.0
 QS| Relative density cutoff [a.u.]:                                        20.0
 QS| Interaction thresholds: eps_pgf_orb:                                3.2E-07
 QS|                         eps_filter_matrix:                          0.0E+00
 QS|                         eps_core_charge:                            1.0E-15
 QS|                         eps_rho_gspace:                             1.0E-13
 QS|                         eps_rho_rspace:                             1.0E-13
 QS|                         eps_gvg_rspace:                             3.2E-07
 QS|                         eps_ppl:                                    1.0E-02
 QS|                         eps_ppnl:                                   3.2E-09


 ATOMIC KIND INFORMATION

  1. Atomic kind: Pt                                    Number of atoms:     216

     Orbital Basis Set                      DZVP-A5-Q10-323-MOL-T1-DERIVED_SET-1

       Number of orbital shell sets:                                           1
       Number of orbital shells:                                               6
       Number of primitive Cartesian functions:                                5
       Number of Cartesian basis functions:                                   23
       Number of spherical basis functions:                                   20
       Norm type:                                                              2

       Normalised Cartesian orbitals:

                        Set   Shell   Orbital            Exponent    Coefficient

                          1       1    2s                2.521825       0.177473
                                                         1.453920      -0.063399
                                                         0.614053      -0.407089
                                                         0.232656       0.262254
                                                         0.074788       0.047371

                          1       2    3s                2.521825      -0.049056
                                                         1.453920       0.044904
                                                         0.614053      -0.009756
                                                         0.232656      -0.144709
                                                         0.074788       0.144085

                          1       3    3px               2.521825      -0.317572
                                                         1.453920       0.534826
                                                         0.614053      -0.489458
                                                         0.232656       0.245631
                                                         0.074788       0.018221
                          1       3    3py               2.521825      -0.317572
                                                         1.453920       0.534826
                                                         0.614053      -0.489458
                                                         0.232656       0.245631
                                                         0.074788       0.018221
                          1       3    3pz               2.521825      -0.317572
                                                         1.453920       0.534826
                                                         0.614053      -0.489458
                                                         0.232656       0.245631
                                                         0.074788       0.018221

                          1       4    4dx2              2.521825       3.008522
                                                         1.453920      -1.224251
                                                         0.614053       0.225691
                                                         0.232656       0.125144
                                                         0.074788      -0.015348
                          1       4    4dxy              2.521825       5.210912
                                                         1.453920      -2.120465
                                                         0.614053       0.390909
                                                         0.232656       0.216756
                                                         0.074788      -0.026584
                          1       4    4dxz              2.521825       5.210912
                                                         1.453920      -2.120465
                                                         0.614053       0.390909
                                                         0.232656       0.216756
                                                         0.074788      -0.026584
                          1       4    4dy2              2.521825       3.008522
                                                         1.453920      -1.224251
                                                         0.614053       0.225691
                                                         0.232656       0.125144
                                                         0.074788      -0.015348
                          1       4    4dyz              2.521825       5.210912
                                                         1.453920      -2.120465
                                                         0.614053       0.390909
                                                         0.232656       0.216756
                                                         0.074788      -0.026584
                          1       4    4dz2              2.521825       3.008522
                                                         1.453920      -1.224251
                                                         0.614053       0.225691
                                                         0.232656       0.125144
                                                         0.074788      -0.015348

                          1       5    5dx2              2.521825       0.698026
                                                         1.453920      -1.511486
                                                         0.614053      -0.335394
                                                         0.232656      -0.025564
                                                         0.074788      -0.002699
                          1       5    5dxy              2.521825       1.209017
                                                         1.453920      -2.617970
                                                         0.614053      -0.580920
                                                         0.232656      -0.044277
                                                         0.074788      -0.004674
                          1       5    5dxz              2.521825       1.209017
                                                         1.453920      -2.617970
                                                         0.614053      -0.580920
                                                         0.232656      -0.044277
                                                         0.074788      -0.004674
                          1       5    5dy2              2.521825       0.698026
                                                         1.453920      -1.511486
                                                         0.614053      -0.335394
                                                         0.232656      -0.025564
                                                         0.074788      -0.002699
                          1       5    5dyz              2.521825       1.209017
                                                         1.453920      -2.617970
                                                         0.614053      -0.580920
                                                         0.232656      -0.044277
                                                         0.074788      -0.004674
                          1       5    5dz2              2.521825       0.698026
                                                         1.453920      -1.511486
                                                         0.614053      -0.335394
                                                         0.232656      -0.025564
                                                         0.074788      -0.002699

                          1       6    6dx2              2.521825       0.831079
                                                         1.453920      -0.709226
                                                         0.614053      -0.137351
                                                         0.232656       0.068642
                                                         0.074788       0.011745
                          1       6    6dxy              2.521825       1.439472
                                                         1.453920      -1.228415
                                                         0.614053      -0.237899
                                                         0.232656       0.118891
                                                         0.074788       0.020343
                          1       6    6dxz              2.521825       1.439472
                                                         1.453920      -1.228415
                                                         0.614053      -0.237899
                                                         0.232656       0.118891
                                                         0.074788       0.020343
                          1       6    6dy2              2.521825       0.831079
                                                         1.453920      -0.709226
                                                         0.614053      -0.137351
                                                         0.232656       0.068642
                                                         0.074788       0.011745
                          1       6    6dyz              2.521825       1.439472
                                                         1.453920      -1.228415
                                                         0.614053      -0.237899
                                                         0.232656       0.118891
                                                         0.074788       0.020343
                          1       6    6dz2              2.521825       0.831079
                                                         1.453920      -0.709226
                                                         0.614053      -0.137351
                                                         0.232656       0.068642
                                                         0.074788       0.011745

       Atomic covalent radius [Angstrom]:                                  1.300

       Atomic van der Waals radius [Angstrom]:                             1.750

     GTH Potential information for                                   GTH-PBE-q10

       Description:                       Goedecker-Teter-Hutter pseudopotential
                                           Goedecker et al., PRB 54, 1703 (1996)
                                          Hartwigsen et al., PRB 58, 3641 (1998)
                                                      Krack, TCA 114, 145 (2005)

       Gaussian exponent of the core charge distribution:               1.317676
       Electronic configuration (s p d ...):                           1   0   9

       Parameters of the local part of the GTH pseudopotential:

                          rloc        C1          C2          C3          C4
                        0.616000   11.313635

       Parameters of the non-local part of the GTH pseudopotential:

                   l      r(l)      h(i,j,l)

                   0    0.550904    4.733491   -1.784594
                                   -1.784594    2.303901
                   1    0.674138    2.534798   -1.778066
                                   -1.778066    2.103836
                   2    0.457392   -7.264011    2.558665
                                    2.558665   -2.901253


 MOLECULE KIND INFORMATION


 All atoms are their own molecule, skipping detailed information


 TOTAL NUMBERS AND MAXIMUM NUMBERS

  Total number of            - Atomic kinds:                                   1
                             - Atoms:                                        216
                             - Shell sets:                                   216
                             - Shells:                                      1296
                             - Primitive Cartesian functions:               1080
                             - Cartesian basis functions:                   4968
                             - Spherical basis functions:                   4320

  Maximum angular momentum of- Orbital basis functions:                        2
                             - Local part of the GTH pseudopotential:          0
                             - Non-local part of the GTH pseudopotential:      4


 MODULE QUICKSTEP:  ATOMIC COORDINATES IN angstrom

 Atom  Kind  Element       X           Y           Z          Z(eff)       Mass
    1   1 Pt  78       2.279143    0.579470   19.884934      10.0000    195.0840
    2   1 Pt  78       5.019144    0.559470   20.044934      10.0000    195.0840
    3   1 Pt  78       7.779144    0.489470   19.944936      10.0000    195.0840
    4   1 Pt  78      10.609144    0.589470   19.864934      10.0000    195.0840
    5   1 Pt  78      13.389144    0.559470   19.934934      10.0000    195.0840
    6   1 Pt  78      16.179144    0.609470   19.974934      10.0000    195.0840
    7   1 Pt  78       3.599143    2.979470   19.924935      10.0000    195.0840
    8   1 Pt  78       6.379144    3.019470   19.954934      10.0000    195.0840
    9   1 Pt  78       9.169144    3.079470   19.864934      10.0000    195.0840
   10   1 Pt  78      12.049145    2.939470   19.964932      10.0000    195.0840
   11   1 Pt  78      14.829144    2.979470   20.094933      10.0000    195.0840
   12   1 Pt  78       0.729143    3.039470   19.964932      10.0000    195.0840
   13   1 Pt  78       4.939144    5.419470   19.784936      10.0000    195.0840
   14   1 Pt  78       7.779144    5.559470   19.914937      10.0000    195.0840
   15   1 Pt  78      10.629144    5.439470   19.824933      10.0000    195.0840
   16   1 Pt  78      13.449144    5.339470   20.084935      10.0000    195.0840
   17   1 Pt  78      -0.550857    5.439470   20.074937      10.0000    195.0840
   18   1 Pt  78       2.299144    5.399470   19.704934      10.0000    195.0840
   19   1 Pt  78       6.479144    7.899470   19.824933      10.0000    195.0840
   20   1 Pt  78       9.239143    7.849471   19.984937      10.0000    195.0840
   21   1 Pt  78      12.039144    7.889471   19.954934      10.0000    195.0840
   22   1 Pt  78      -2.050857    7.839470   20.034932      10.0000    195.0840
   23   1 Pt  78       0.719143    7.809470   19.964932      10.0000    195.0840
   24   1 Pt  78       3.609144    7.799470   19.924935      10.0000    195.0840
   25   1 Pt  78       7.789144   10.289469   19.954934      10.0000    195.0840
   26   1 Pt  78      10.549144   10.249470   19.804932      10.0000    195.0840
   27   1 Pt  78      -3.530857   10.259470   19.844937      10.0000    195.0840
   28   1 Pt  78      -0.660857   10.239470   19.874936      10.0000    195.0840
   29   1 Pt  78       2.099144   10.299470   19.854936      10.0000    195.0840
   30   1 Pt  78       4.869143   10.189470   19.984937      10.0000    195.0840
   31   1 Pt  78       9.029144   12.619470   19.934934      10.0000    195.0840
   32   1 Pt  78      -4.960857   12.569470   19.934934      10.0000    195.0840
   33   1 Pt  78      -2.150857   12.669470   19.964932      10.0000    195.0840
   34   1 Pt  78       0.699143   12.759470   20.014935      10.0000    195.0840
   35   1 Pt  78       3.539144   12.609471   19.944936      10.0000    195.0840
   36   1 Pt  78       6.359144   12.579470   19.854936      10.0000    195.0840
   37   1 Pt  78       0.699143    1.289470   22.224934      10.0000    195.0840
   38   1 Pt  78       3.429144    1.389470   22.294934      10.0000    195.0840
   39   1 Pt  78       6.449144    1.359470   22.244935      10.0000    195.0840
   40   1 Pt  78       9.139144    1.109470   22.164933      10.0000    195.0840
   41   1 Pt  78      11.929144    1.209470   22.234933      10.0000    195.0840
   42   1 Pt  78      14.819144    1.419470   22.314935      10.0000    195.0840
   43   1 Pt  78       2.129143    3.799470   22.224934      10.0000    195.0840
   44   1 Pt  78       4.989144    3.839470   22.264935      10.0000    195.0840
   45   1 Pt  78       7.849144    3.809470   22.304932      10.0000    195.0840
   46   1 Pt  78      10.609144    3.729470   22.334935      10.0000    195.0840
   47   1 Pt  78      13.399144    3.869470   22.414937      10.0000    195.0840
   48   1 Pt  78      -0.560857    3.789470   22.364934      10.0000    195.0840
   49   1 Pt  78       3.469144    6.229470   22.274938      10.0000    195.0840
   50   1 Pt  78       6.229143    6.229470   22.264935      10.0000    195.0840
   51   1 Pt  78       9.179144    6.129470   22.204934      10.0000    195.0840
   52   1 Pt  78      12.009144    6.139470   22.234933      10.0000    195.0840
   53   1 Pt  78      -2.060857    6.209470   22.314935      10.0000    195.0840
   54   1 Pt  78       0.819143    6.219471   22.274938      10.0000    195.0840
   55   1 Pt  78       4.999143    8.649470   22.344937      10.0000    195.0840
   56   1 Pt  78       7.689144    8.629470   22.224934      10.0000    195.0840
   57   1 Pt  78      10.549144    8.539470   22.244935      10.0000    195.0840
   58   1 Pt  78      -3.520857    8.539470   22.174935      10.0000    195.0840
   59   1 Pt  78      -0.620857    8.619470   22.284936      10.0000    195.0840
   60   1 Pt  78       2.189144    8.639470   22.364934      10.0000    195.0840
   61   1 Pt  78       6.349144   11.129471   22.364934      10.0000    195.0840
   62   1 Pt  78       9.169144   11.069470   22.274938      10.0000    195.0840
   63   1 Pt  78      -4.890857   10.949471   22.254933      10.0000    195.0840
   64   1 Pt  78      -2.040857   10.949471   22.354936      10.0000    195.0840
   65   1 Pt  78       0.749143   10.889471   22.204934      10.0000    195.0840
   66   1 Pt  78       3.469144   11.119470   22.244935      10.0000    195.0840
   67   1 Pt  78       7.679144   13.479471   22.234933      10.0000    195.0840
   68   1 Pt  78      -6.270857   13.489470   22.194936      10.0000    195.0840
   69   1 Pt  78      -3.440857   13.439471   22.224934      10.0000    195.0840
   70   1 Pt  78      -0.710857   13.479471   22.294934      10.0000    195.0840
   71   1 Pt  78       2.089144   13.399471   22.434934      10.0000    195.0840
   72   1 Pt  78       4.949144   13.599471   22.284936      10.0000    195.0840
   73   1 Pt  78      -7.780857   14.259470   24.634934      10.0000    195.0840
   74   1 Pt  78      -5.000857   14.259470   24.454934      10.0000    195.0840
   75   1 Pt  78      -2.110857   14.209470   24.594937      10.0000    195.0840
   76   1 Pt  78       0.639143   14.129470   24.614934      10.0000    195.0840
   77   1 Pt  78       3.409144   14.249470   24.654935      10.0000    195.0840
   78   1 Pt  78       6.269144   14.239471   24.704934      10.0000    195.0840
   79   1 Pt  78       2.079143    2.149470   24.554936      10.0000    195.0840
   80   1 Pt  78       4.999143    2.179470   24.644933      10.0000    195.0840
   81   1 Pt  78       7.759144    2.059470   24.614934      10.0000    195.0840
   82   1 Pt  78      10.549144    1.979470   24.624936      10.0000    195.0840
   83   1 Pt  78      13.429145    2.059470   24.664937      10.0000    195.0840
   84   1 Pt  78      -0.720857    2.029470   24.684934      10.0000    195.0840
   85   1 Pt  78       3.599143    4.499470   24.534936      10.0000    195.0840
   86   1 Pt  78       6.289144    4.519470   24.594937      10.0000    195.0840
   87   1 Pt  78       9.139144    4.509470   24.644933      10.0000    195.0840
   88   1 Pt  78      11.879144    4.459470   24.654935      10.0000    195.0840
   89   1 Pt  78      -2.140856    4.519470   24.634934      10.0000    195.0840
   90   1 Pt  78       0.789143    4.429470   24.614934      10.0000    195.0840
   91   1 Pt  78       4.909144    7.009470   24.624936      10.0000    195.0840
   92   1 Pt  78       7.689144    6.899470   24.624936      10.0000    195.0840
   93   1 Pt  78      10.449144    6.989470   24.534936      10.0000    195.0840
   94   1 Pt  78      -3.690857    6.949471   24.574933      10.0000    195.0840
   95   1 Pt  78      -0.720857    6.849470   24.644933      10.0000    195.0840
   96   1 Pt  78       2.149144    6.959470   24.604936      10.0000    195.0840
   97   1 Pt  78       6.299144    9.429471   24.614934      10.0000    195.0840
   98   1 Pt  78       9.109144    9.329470   24.474934      10.0000    195.0840
   99   1 Pt  78      -4.870856    9.399471   24.504933      10.0000    195.0840
  100   1 Pt  78      -2.040857    9.259470   24.634934      10.0000    195.0840
  101   1 Pt  78       0.729143    9.359471   24.614934      10.0000    195.0840
  102   1 Pt  78       3.509144    9.429471   24.694936      10.0000    195.0840
  103   1 Pt  78       7.709143   11.849470   24.604936      10.0000    195.0840
  104   1 Pt  78      -6.460857   11.849470   24.484937      10.0000    195.0840
  105   1 Pt  78      -3.500857   11.799469   24.584935      10.0000    195.0840
  106   1 Pt  78      -0.740857   11.699470   24.614934      10.0000    195.0840
  107   1 Pt  78       2.069143   11.829470   24.654935      10.0000    195.0840
  108   1 Pt  78       4.839144   11.919470   24.634934      10.0000    195.0840
  109   1 Pt  78       2.079143    0.449470   26.842933      10.0000    195.0840
  110   1 Pt  78       4.929144    0.339470   26.742933      10.0000    195.0840
  111   1 Pt  78       7.659144    0.449470   26.872933      10.0000    195.0840
  112   1 Pt  78      10.419144    0.449470   26.992933      10.0000    195.0840
  113   1 Pt  78      13.259144    0.349470   27.062933      10.0000    195.0840
  114   1 Pt  78      16.029144    0.399470   26.952933      10.0000    195.0840
  115   1 Pt  78       3.539144    2.809470   26.862933      10.0000    195.0840
  116   1 Pt  78       6.239143    2.909470   26.902933      10.0000    195.0840
  117   1 Pt  78       9.029144    2.879470   26.882933      10.0000    195.0840
  118   1 Pt  78      11.849145    2.789470   26.952933      10.0000    195.0840
  119   1 Pt  78      14.739143    2.799470   26.962933      10.0000    195.0840
  120   1 Pt  78       0.629143    2.769470   26.952933      10.0000    195.0840
  121   1 Pt  78       4.889144    5.329470   26.922933      10.0000    195.0840
  122   1 Pt  78       7.689144    5.359470   26.872933      10.0000    195.0840
  123   1 Pt  78      10.389144    5.379470   27.022933      10.0000    195.0840
  124   1 Pt  78      13.229143    5.269470   26.852933      10.0000    195.0840
  125   1 Pt  78      -0.750857    5.229470   26.882933      10.0000    195.0840
  126   1 Pt  78       2.149144    5.149470   26.882933      10.0000    195.0840
  127   1 Pt  78       6.289144    7.839470   26.902933      10.0000    195.0840
  128   1 Pt  78       9.089144    7.799470   26.892933      10.0000    195.0840
  129   1 Pt  78      11.909143    7.739470   26.852933      10.0000    195.0840
  130   1 Pt  78      -2.190857    7.589470   26.872933      10.0000    195.0840
  131   1 Pt  78       0.689143    7.649470   26.842933      10.0000    195.0840
  132   1 Pt  78       3.489144    7.719470   26.952933      10.0000    195.0840
  133   1 Pt  78       7.729144   10.269470   26.852933      10.0000    195.0840
  134   1 Pt  78      10.469144   10.259470   26.862933      10.0000    195.0840
  135   1 Pt  78      -3.510857   10.179471   26.822933      10.0000    195.0840
  136   1 Pt  78      -0.740857   10.069470   26.982933      10.0000    195.0840
  137   1 Pt  78       1.959144   10.199470   26.982933      10.0000    195.0840
  138   1 Pt  78       4.839144   10.169470   26.922933      10.0000    195.0840
  139   1 Pt  78       9.099144   12.639470   26.912933      10.0000    195.0840
  140   1 Pt  78      -4.950857   12.539470   26.652933      10.0000    195.0840
  141   1 Pt  78      -2.150857   12.519471   26.892933      10.0000    195.0840
  142   1 Pt  78       0.529143   12.529471   26.922933      10.0000    195.0840
  143   1 Pt  78       3.389144   12.579470   27.052933      10.0000    195.0840
  144   1 Pt  78       6.179144   12.619470   26.972933      10.0000    195.0840
  145   1 Pt  78       0.609143    1.199470   29.242933      10.0000    195.0840
  146   1 Pt  78       3.419144    1.229470   29.152933      10.0000    195.0840
  147   1 Pt  78       6.239143    1.259470   29.142934      10.0000    195.0840
  148   1 Pt  78       8.979144    1.229470   29.282933      10.0000    195.0840
  149   1 Pt  78      11.799144    1.199470   29.262933      10.0000    195.0840
  150   1 Pt  78      14.629145    1.229470   29.442934      10.0000    195.0840
  151   1 Pt  78       2.079143    3.529470   29.252933      10.0000    195.0840
  152   1 Pt  78       4.899144    3.599470   29.202933      10.0000    195.0840
  153   1 Pt  78       7.599144    3.699470   29.222933      10.0000    195.0840
  154   1 Pt  78      10.429144    3.679470   29.242933      10.0000    195.0840
  155   1 Pt  78      13.219145    3.609470   29.342934      10.0000    195.0840
  156   1 Pt  78      -0.810857    3.629470   29.252933      10.0000    195.0840
  157   1 Pt  78       3.369143    5.959470   29.272933      10.0000    195.0840
  158   1 Pt  78       6.209144    6.159470   29.232933      10.0000    195.0840
  159   1 Pt  78       9.029144    6.129470   29.252933      10.0000    195.0840
  160   1 Pt  78      11.739144    6.139470   29.322933      10.0000    195.0840
  161   1 Pt  78      -2.270857    5.979470   29.122933      10.0000    195.0840
  162   1 Pt  78       0.529143    5.939470   29.272933      10.0000    195.0840
  163   1 Pt  78       4.799144    8.519471   29.242933      10.0000    195.0840
  164   1 Pt  78       7.719144    8.539470   29.192933      10.0000    195.0840
  165   1 Pt  78      10.469144    8.529470   29.162934      10.0000    195.0840
  166   1 Pt  78      -3.580857    8.559470   29.102933      10.0000    195.0840
  167   1 Pt  78      -0.860857    8.379470   29.162934      10.0000    195.0840
  168   1 Pt  78       2.009144    8.359470   29.252933      10.0000    195.0840
  169   1 Pt  78       6.319144   10.989470   29.212933      10.0000    195.0840
  170   1 Pt  78       9.089144   10.969471   29.172933      10.0000    195.0840
  171   1 Pt  78      -4.970857   10.989470   29.072933      10.0000    195.0840
  172   1 Pt  78      -2.190857   10.869471   29.332933      10.0000    195.0840
  173   1 Pt  78       0.579143   10.909470   29.312933      10.0000    195.0840
  174   1 Pt  78       3.399144   10.859470   29.242933      10.0000    195.0840
  175   1 Pt  78       7.659144   13.439471   29.352933      10.0000    195.0840
  176   1 Pt  78      -6.430857   13.399471   29.182934      10.0000    195.0840
  177   1 Pt  78      -3.650857   13.449471   29.092933      10.0000    195.0840
  178   1 Pt  78      -0.910857   13.409470   29.212933      10.0000    195.0840
  179   1 Pt  78       1.939143   13.389471   29.232933      10.0000    195.0840
  180   1 Pt  78       4.759144   13.319471   29.382933      10.0000    195.0840
  181   1 Pt  78      -7.730857   14.139471   31.742933      10.0000    195.0840
  182   1 Pt  78      -4.930857   14.269471   31.372934      10.0000    195.0840
  183   1 Pt  78      -2.290857   14.169471   31.522934      10.0000    195.0840
  184   1 Pt  78       0.489143   14.209470   31.602933      10.0000    195.0840
  185   1 Pt  78       3.409144   14.169471   31.602933      10.0000    195.0840
  186   1 Pt  78       6.299144   14.199470   31.772934      10.0000    195.0840
  187   1 Pt  78       2.059143    2.009470   31.742933      10.0000    195.0840
  188   1 Pt  78       4.769143    2.029470   31.602933      10.0000    195.0840
  189   1 Pt  78       7.539144    1.939470   31.772934      10.0000    195.0840
  190   1 Pt  78      10.409144    1.949470   31.502934      10.0000    195.0840
  191   1 Pt  78      13.259144    2.039470   31.722933      10.0000    195.0840
  192   1 Pt  78      -0.730857    2.039470   31.722933      10.0000    195.0840
  193   1 Pt  78       3.469144    4.459470   31.692933      10.0000    195.0840
  194   1 Pt  78       6.189144    4.529470   31.522934      10.0000    195.0840
  195   1 Pt  78       8.929144    4.359470   31.572934      10.0000    195.0840
  196   1 Pt  78      11.869144    4.379470   31.712934      10.0000    195.0840
  197   1 Pt  78      -2.180857    4.549470   31.602933      10.0000    195.0840
  198   1 Pt  78       0.709143    4.389470   31.622934      10.0000    195.0840
  199   1 Pt  78       4.859144    6.829470   31.492933      10.0000    195.0840
  200   1 Pt  78       7.719144    6.869470   31.612933      10.0000    195.0840
  201   1 Pt  78      10.479144    6.849470   31.632934      10.0000    195.0840
  202   1 Pt  78      -3.650857    6.799470   31.422933      10.0000    195.0840
  203   1 Pt  78      -0.840857    6.979470   31.542934      10.0000    195.0840
  204   1 Pt  78       2.009144    6.979470   31.612933      10.0000    195.0840
  205   1 Pt  78       6.269144    9.439471   31.372934      10.0000    195.0840
  206   1 Pt  78       9.089144    9.269471   31.582934      10.0000    195.0840
  207   1 Pt  78      -5.010857    9.409470   31.452934      10.0000    195.0840
  208   1 Pt  78      -2.240857    9.359471   31.542934      10.0000    195.0840
  209   1 Pt  78       0.699143    9.339470   31.542934      10.0000    195.0840
  210   1 Pt  78       3.429144    9.319470   31.532933      10.0000    195.0840
  211   1 Pt  78       7.689144   11.809471   31.512933      10.0000    195.0840
  212   1 Pt  78      -6.420857   11.839470   31.602933      10.0000    195.0840
  213   1 Pt  78      -3.650857   11.849470   31.642934      10.0000    195.0840
  214   1 Pt  78      -0.780857   11.819471   31.572934      10.0000    195.0840
  215   1 Pt  78       2.009144   11.849470   31.742933      10.0000    195.0840
  216   1 Pt  78       4.859144   11.779470   31.622934      10.0000    195.0840




 SCF PARAMETERS         Density guess:                                   RESTART
                        --------------------------------------------------------
                        max_scf:                                             500
                        max_scf_history:                                       0
                        max_diis:                                              4
                        --------------------------------------------------------
                        eps_scf:                                        1.00E-06
                        eps_scf_history:                                0.00E+00
                        eps_diis:                                       1.00E-01
                        eps_eigval:                                     1.00E-05
                        --------------------------------------------------------
                        level_shift [a.u.]:                             0.000000
                        added MOs                                       500    0
                        --------------------------------------------------------
                        Mixing method:                            BROYDEN_MIXING
                                                charge density mixing in g-space
                        --------------------------------------------------------
                        Smear method:                                FERMI_DIRAC
                        Electronic temperature [K]:                        300.0
                        Electronic temperature [a.u.]:                  9.50E-04
                        Accuracy threshold:                             1.00E-10
                        --------------------------------------------------------
                        No outer SCF

 PW_GRID| Information for grid number                                          1
 PW_GRID| Grid distributed over                                    32 processors
 PW_GRID| Real space group dimensions                                    32    1
 PW_GRID| the grid is blocked:                                                NO
 PW_GRID| Cutoff [a.u.]                                                    200.0
 PW_GRID| spherical cutoff:                                                   NO
 PW_GRID|   Bounds   1           -105     104                Points:         210
 PW_GRID|   Bounds   2           -105     104                Points:         210
 PW_GRID|   Bounds   3           -315     314                Points:         630
 PW_GRID| Volume element (a.u.^3)  0.3081E-02     Volume (a.u.^3)     85609.9578
 PW_GRID| Grid span                                                    FULLSPACE
 PW_GRID|   Distribution                         Average         Max         Min
 PW_GRID|   G-Vectors                           868218.8      868350      868140
 PW_GRID|   G-Rays                                4134.4        4135        4134
 PW_GRID|   Real Space Points                   868218.8      926100      793800

 PW_GRID| Information for grid number                                          2
 PW_GRID| Number of the reference grid                                         1
 PW_GRID| Grid distributed over                                    32 processors
 PW_GRID| Real space group dimensions                                    32    1
 PW_GRID| the grid is blocked:                                                NO
 PW_GRID| Cutoff [a.u.]                                                     66.7
 PW_GRID| spherical cutoff:                                                   NO
 PW_GRID|   Bounds   1            -60      59                Points:         120
 PW_GRID|   Bounds   2            -60      59                Points:         120
 PW_GRID|   Bounds   3           -180     179                Points:         360
 PW_GRID| Volume element (a.u.^3)  0.1651E-01     Volume (a.u.^3)     85609.9578
 PW_GRID| Grid span                                                    FULLSPACE
 PW_GRID|   Distribution                         Average         Max         Min
 PW_GRID|   G-Vectors                           162000.0      162840      161280
 PW_GRID|   G-Rays                                1350.0        1357        1344
 PW_GRID|   Real Space Points                   162000.0      172800      129600

 PW_GRID| Information for grid number                                          3
 PW_GRID| Number of the reference grid                                         1
 PW_GRID| Grid distributed over                                    32 processors
 PW_GRID| Real space group dimensions                                    32    1
 PW_GRID| the grid is blocked:                                                NO
 PW_GRID| Cutoff [a.u.]                                                     22.2
 PW_GRID| spherical cutoff:                                                   NO
 PW_GRID|   Bounds   1            -35      34                Points:          70
 PW_GRID|   Bounds   2            -35      34                Points:          70
 PW_GRID|   Bounds   3           -105     104                Points:         210
 PW_GRID| Volume element (a.u.^3)  0.8320E-01     Volume (a.u.^3)     85609.9578
 PW_GRID| Grid span                                                    FULLSPACE
 PW_GRID|   Distribution                         Average         Max         Min
 PW_GRID|   G-Vectors                            32156.2       32340       31990
 PW_GRID|   G-Rays                                 459.4         462         457
 PW_GRID|   Real Space Points                    32156.2       44100       29400

 PW_GRID| Information for grid number                                          4
 PW_GRID| Number of the reference grid                                         1
 PW_GRID| Grid distributed over                                    32 processors
 PW_GRID| Real space group dimensions                                    32    1
 PW_GRID| the grid is blocked:                                                NO
 PW_GRID| Cutoff [a.u.]                                                      7.4
 PW_GRID| spherical cutoff:                                                   NO
 PW_GRID|   Bounds   1            -20      19                Points:          40
 PW_GRID|   Bounds   2            -20      19                Points:          40
 PW_GRID|   Bounds   3            -60      59                Points:         120
 PW_GRID| Volume element (a.u.^3)  0.4459         Volume (a.u.^3)     85609.9578
 PW_GRID| Grid span                                                    FULLSPACE
 PW_GRID|   Distribution                         Average         Max         Min
 PW_GRID|   G-Vectors                             6000.0        6120        5920
 PW_GRID|   G-Rays                                 150.0         153         148
 PW_GRID|   Real Space Points                     6000.0        9600        4800

 POISSON| Solver                                          IMPLICIT (GENERALIZED)
 POISSON| Boundary Condition                                PERIODIC & DIRICHLET
 POISSON| Maximum number of iterations                                        30
 POISSON| Convergence threshold                                         1.00E-08
 POISSON| Dielectric Constant                                              80.00
 POISSON| Relaxation parameter                                          1.00E+00

 RS_GRID| Information for grid number                                          1
 RS_GRID|   Bounds   1           -105     104                Points:         210
 RS_GRID|   Bounds   2           -105     104                Points:         210
 RS_GRID|   Bounds   3           -315     314                Points:         630
 RS_GRID| Real space distribution over                                 32 groups
 RS_GRID| Real space distribution along direction                              3
 RS_GRID| Border size                                                         54
 RS_GRID|   Distribution                         Average         Max         Min
 RS_GRID|   Planes                                 127.7         128         127

 RS_GRID| Information for grid number                                          2
 RS_GRID|   Bounds   1            -60      59                Points:         120
 RS_GRID|   Bounds   2            -60      59                Points:         120
 RS_GRID|   Bounds   3           -180     179                Points:         360
 RS_GRID| Real space distribution over                                 32 groups
 RS_GRID| Real space distribution along direction                              3
 RS_GRID| Border size                                                         36
 RS_GRID|   Distribution                         Average         Max         Min
 RS_GRID|   Planes                                  83.2          84          83

 RS_GRID| Information for grid number                                          3
 RS_GRID|   Bounds   1            -35      34                Points:          70
 RS_GRID|   Bounds   2            -35      34                Points:          70
 RS_GRID|   Bounds   3           -105     104                Points:         210
 RS_GRID| Real space fully replicated
 RS_GRID| Group size                                                           1

 RS_GRID| Information for grid number                                          4
 RS_GRID|   Bounds   1            -20      19                Points:          40
 RS_GRID|   Bounds   2            -20      19                Points:          40
 RS_GRID|   Bounds   3            -60      59                Points:         120
 RS_GRID| Real space fully replicated
 RS_GRID| Group size                                                           1

 Number of electrons:                                                       2160
 Number of occupied orbitals:                                               1080
 Number of molecular orbitals:                                              1580

 Number of orbital functions:                                               4320
 Number of independent orbital functions:                                   4320

 Extrapolation method: initial_guess


 SCF WAVEFUNCTION OPTIMIZATION

  Step     Update method      Time    Convergence         Total energy    Change
  ------------------------------------------------------------------------------

  POISSON| IMPLICIT (GENERALIZED) SOLVER ---------------------------------------
  POISSON| Preparing Dirichlet regions ...
  POISSON| Dirichlet region    1
  POISSON|     type : axis-aligned planar
  POISSON|     applied potential :   0.0000E+00  [Eh/e]
  POISSON| Dirichlet region    2
  POISSON|     type : axis-aligned planar
  POISSON|     applied potential :   0.3675E-01  [Eh/e]
  POISSON| ... Done. 
  ------------------------------------------------------------------------------

  POISSON|   iter        pres error      nabs error        E_hartree    delta E
  POISSON|      1        0.7358E-03      0.3338E-01    1992.7224419666  0.20E+04
  POISSON|      2        0.1835E-14      0.7358E-03    1992.7259421241  0.35E-02
  POISSON| Poisson solver converged in 2 iterations.
     1 NoMix/Diag. 0.30E+00   11.0     0.20575676     -5670.9446977354 -5.67E+03
  POISSON|   iter        pres error      nabs error        E_hartree    delta E
  POISSON|      1        0.7593E-03      0.3317E-01    1992.5778863334 -0.15E+00
  POISSON|      2        0.1607E-14      0.7593E-03    1992.5814983513  0.36E-02
  POISSON| Poisson solver converged in 2 iterations.
     2 Broy./Diag. 0.30E+00   13.2     0.23026686     -5670.7412046073  2.03E-01
  POISSON|   iter        pres error      nabs error        E_hartree    delta E
  POISSON|      1        0.5606E-04      0.3542E-03    1992.7568730698  0.18E+00
  POISSON|      2        0.2381E-16      0.5606E-04    1992.7566064100 -0.27E-03
  POISSON| Poisson solver converged in 2 iterations.
     3 Broy./Diag. 0.30E+00   13.4     0.14921034     -5675.5809514838 -4.84E+00
  POISSON|   iter        pres error      nabs error        E_hartree    delta E
  POISSON|      1        0.7761E-04      0.3115E-03    1992.7885415004  0.32E-01
  POISSON|      2        0.4061E-16      0.7761E-04    1992.7889106633  0.37E-03
  POISSON| Poisson solver converged in 2 iterations.
     4 Broy./Diag. 0.30E+00   13.3     0.14041818     -5672.6370399826  2.94E+00
  POISSON|   iter        pres error      nabs error        E_hartree    delta E
  POISSON|      1        0.4854E-04      0.1974E-03    1992.8579501869  0.69E-01
  POISSON|      2        0.6434E-16      0.4854E-04    1992.8577192746 -0.23E-03
  POISSON| Poisson solver converged in 2 iterations.
     5 Broy./Diag. 0.30E+00   13.3     0.10525012     -5671.9984872093  6.39E-01
  POISSON|   iter        pres error      nabs error        E_hartree    delta E
  POISSON|      1        0.2580E-05      0.4652E-04    1992.9535917289  0.96E-01
  POISSON|      2        0.2095E-16      0.2580E-05    1992.9536040022  0.12E-04
  POISSON| Poisson solver converged in 2 iterations.
     6 Broy./Diag. 0.30E+00   13.3     0.03785549     -5672.8698544746 -8.71E-01
  POISSON|   iter        pres error      nabs error        E_hartree    delta E
  POISSON|      1        0.3557E-05      0.3205E-04    1993.0269021041  0.73E-01
  POISSON|      2        0.9422E-17      0.3557E-05    1993.0269190226  0.17E-04
  POISSON| Poisson solver converged in 2 iterations.
     7 Broy./Diag. 0.30E+00   13.4     0.03703499     -5672.2546718613  6.15E-01
  POISSON|   iter        pres error      nabs error        E_hartree    delta E
  POISSON|      1        0.9532E-06      0.2540E-04    1993.0820875535  0.55E-01
  POISSON|      2        0.5926E-17      0.9532E-06    1993.0820920877  0.45E-05
  POISSON| Poisson solver converged in 2 iterations.
     8 Broy./Diag. 0.30E+00   13.4     0.02220587     -5672.2136605673  4.10E-02
  POISSON|   iter        pres error      nabs error        E_hartree    delta E
  POISSON|      1        0.1595E-06      0.1175E-04    1993.1057997309  0.24E-01
  POISSON|      2        0.2795E-18      0.1595E-06    1993.1057989723 -0.76E-06
  POISSON| Poisson solver converged in 2 iterations.
     9 Broy./Diag. 0.30E+00   13.5     0.01041249     -5672.3301951295 -1.17E-01
  POISSON|   iter        pres error      nabs error        E_hartree    delta E
  POISSON|      1        0.5986E-06      0.5622E-05    1993.1172023197  0.11E-01
  POISSON|      2        0.8308E-17      0.5986E-06    1993.1171994723 -0.28E-05
  POISSON| Poisson solver converged in 2 iterations.
    10 Broy./Diag. 0.30E+00   13.5     0.00377431     -5672.2715993704  5.86E-02
  POISSON|   iter        pres error      nabs error        E_hartree    delta E
  POISSON|      1        0.3800E-07      0.4480E-05    1993.1234560031  0.63E-02
  POISSON|      2        0.2750E-17      0.3800E-07    1993.1234558223 -0.18E-06
  POISSON| Poisson solver converged in 2 iterations.
    11 Broy./Diag. 0.30E+00   13.6     0.00329878     -5672.2586035544  1.30E-02
  POISSON|   iter        pres error      nabs error        E_hartree    delta E
  POISSON|      1        0.1117E-06      0.5314E-05    1993.1301490298  0.67E-02
  POISSON|      2        0.9899E-17      0.1117E-06    1993.1301495611  0.53E-06
  POISSON| Poisson solver converged in 2 iterations.
    12 Broy./Diag. 0.30E+00   13.5     0.00248856     -5672.2445732007  1.40E-02
  POISSON|   iter        pres error      nabs error        E_hartree    delta E
  POISSON|      1        0.2911E-08      0.2989E-05    1993.1343332835  0.42E-02
  POISSON| Poisson solver converged in 1 iteration. 
    13 Broy./Diag. 0.30E+00   12.1     0.00141936     -5672.2686163614 -2.40E-02
  POISSON|   iter        pres error      nabs error        E_hartree    delta E
  POISSON|      1        0.1665E-07      0.1578E-05    1993.1355456079  0.12E-02
  POISSON|      2        0.1931E-17      0.1665E-07    1993.1355455287 -0.79E-07
  POISSON| Poisson solver converged in 2 iterations.
    14 Broy./Diag. 0.30E+00   13.5     0.00087845     -5672.2553637776  1.33E-02
  POISSON|   iter        pres error      nabs error        E_hartree    delta E
  POISSON|      1        0.1117E-06      0.1533E-05    1993.1358206180  0.28E-03
  POISSON|      2        0.3427E-17      0.1117E-06    1993.1358200868 -0.53E-06
  POISSON| Poisson solver converged in 2 iterations.
    15 Broy./Diag. 0.30E+00   13.6     0.00080641     -5672.2543375179  1.03E-03
  POISSON|   iter        pres error      nabs error        E_hartree    delta E
  POISSON|      1        0.5168E-06      0.2487E-05    1993.1353877003 -0.43E-03
  POISSON|      2        0.1285E-17      0.5168E-06    1993.1353901587  0.25E-05
  POISSON| Poisson solver converged in 2 iterations.
    16 Broy./Diag. 0.30E+00   13.5     0.00131752     -5672.2611955087 -6.86E-03
  POISSON|   iter        pres error      nabs error        E_hartree    delta E
  POISSON|      1        0.4819E-06      0.2102E-05    1993.1355932060  0.20E-03
  POISSON|      2        0.3702E-17      0.4819E-06    1993.1355909137 -0.23E-05
  POISSON| Poisson solver converged in 2 iterations.
    17 Broy./Diag. 0.30E+00   13.5     0.00132862     -5672.2621443445 -9.49E-04
  POISSON|   iter        pres error      nabs error        E_hartree    delta E
  POISSON|      1        0.1243E-06      0.1522E-05    1993.1357301846  0.14E-03
  POISSON|      2        0.1150E-18      0.1243E-06    1993.1357307760  0.59E-06
  POISSON| Poisson solver converged in 2 iterations.
    18 Broy./Diag. 0.30E+00   13.6     0.00047864     -5672.2615704485  5.74E-04
  POISSON|   iter        pres error      nabs error        E_hartree    delta E
  POISSON|      1        0.1580E-07      0.7805E-06    1993.1356686233 -0.62E-04
  POISSON|      2        0.2962E-17      0.1580E-07    1993.1356685481 -0.75E-07
  POISSON| Poisson solver converged in 2 iterations.
    19 Broy./Diag. 0.30E+00   13.6     0.00024983     -5672.2580721869  3.50E-03
  POISSON|   iter        pres error      nabs error        E_hartree    delta E
  POISSON|      1        0.2809E-07      0.6628E-06    1993.1357792403  0.11E-03
  POISSON|      2        0.3238E-18      0.2809E-07    1993.1357793739  0.13E-06
  POISSON| Poisson solver converged in 2 iterations.
    20 Broy./Diag. 0.30E+00   13.6     0.00019098     -5672.2619072474 -3.84E-03
  POISSON|   iter        pres error      nabs error        E_hartree    delta E
  POISSON|      1        0.2768E-07      0.9441E-06    1993.1360084943  0.23E-03
  POISSON|      2        0.4425E-18      0.2768E-07    1993.1360083626 -0.13E-06
  POISSON| Poisson solver converged in 2 iterations.
    21 Broy./Diag. 0.30E+00   13.5     0.00018235     -5672.2612004348  7.07E-04
  POISSON|   iter        pres error      nabs error        E_hartree    delta E
  POISSON|      1        0.3667E-08      0.7245E-06    1993.1361608313  0.15E-03
  POISSON| Poisson solver converged in 1 iteration. 
    22 Broy./Diag. 0.30E+00   12.1     0.00019593     -5672.2609970910  2.03E-04
  POISSON|   iter        pres error      nabs error        E_hartree    delta E
  POISSON|      1        0.2985E-08      0.8769E-06    1993.1363727713  0.21E-03
  POISSON| Poisson solver converged in 1 iteration. 
    23 Broy./Diag. 0.30E+00   12.1     0.00012589     -5672.2600410518  9.56E-04
  POISSON|   iter        pres error      nabs error        E_hartree    delta E
  POISSON|      1        0.5649E-08      0.5129E-06    1993.1365144055  0.14E-03
  POISSON| Poisson solver converged in 1 iteration. 
    24 Broy./Diag. 0.30E+00   12.2     0.00008713     -5672.2612432021 -1.20E-03
  POISSON|   iter        pres error      nabs error        E_hartree    delta E
  POISSON|      1        0.6347E-08      0.6631E-06    1993.1367048015  0.19E-03
  POISSON| Poisson solver converged in 1 iteration. 
    25 Broy./Diag. 0.30E+00   12.1     0.00010689     -5672.2605367066  7.06E-04
  POISSON|   iter        pres error      nabs error        E_hartree    delta E
  POISSON|      1        0.6751E-07      0.4844E-06    1993.1367605532  0.56E-04
  POISSON|      2        0.1851E-17      0.6751E-07    1993.1367602321 -0.32E-06
  POISSON| Poisson solver converged in 2 iterations.
    26 Broy./Diag. 0.30E+00   13.6     0.00017450     -5672.2598042995  7.32E-04
  POISSON|   iter        pres error      nabs error        E_hartree    delta E
  POISSON|      1        0.7128E-07      0.4328E-06    1993.1368084076  0.48E-04
  POISSON|      2        0.1663E-18      0.7128E-07    1993.1368087466  0.34E-06
  POISSON| Poisson solver converged in 2 iterations.
    27 Broy./Diag. 0.30E+00   13.5     0.00016522     -5672.2605721727 -7.68E-04
  POISSON|   iter        pres error      nabs error        E_hartree    delta E
  POISSON|      1        0.3281E-07      0.6113E-06    1993.1368731135  0.64E-04
  POISSON|      2        0.1831E-17      0.3281E-07    1993.1368729575 -0.16E-06
  POISSON| Poisson solver converged in 2 iterations.
    28 Broy./Diag. 0.30E+00   13.7     0.00010776     -5672.2604923492  7.98E-05
  POISSON|   iter        pres error      nabs error        E_hartree    delta E
  POISSON|      1        0.2475E-08      0.2579E-06    1993.1369010416  0.28E-04
  POISSON| Poisson solver converged in 1 iteration. 
    29 Broy./Diag. 0.30E+00   12.1     0.00005806     -5672.2608373495 -3.45E-04
  POISSON|   iter        pres error      nabs error        E_hartree    delta E
  POISSON|      1        0.1075E-07      0.4067E-06    1993.1368672342 -0.34E-04
  POISSON|      2        0.5017E-17      0.1075E-07    1993.1368671831 -0.51E-07
  POISSON| Poisson solver converged in 2 iterations.
    30 Broy./Diag. 0.30E+00   13.5     0.00004738     -5672.2601241294  7.13E-04
  POISSON|   iter        pres error      nabs error        E_hartree    delta E
  POISSON|      1        0.3822E-08      0.3590E-06    1993.1368270909 -0.40E-04
  POISSON| Poisson solver converged in 1 iteration. 
    31 Broy./Diag. 0.30E+00   12.2     0.00005500     -5672.2606016129 -4.77E-04
  POISSON|   iter        pres error      nabs error        E_hartree    delta E
  POISSON|      1        0.6886E-08      0.3396E-06    1993.1368057733 -0.21E-04
  POISSON| Poisson solver converged in 1 iteration. 
    32 Broy./Diag. 0.30E+00   12.1     0.00004901     -5672.2609993884 -3.98E-04
  POISSON|   iter        pres error      nabs error        E_hartree    delta E
  POISSON|      1        0.4160E-08      0.1877E-06    1993.1367934573 -0.12E-04
  POISSON| Poisson solver converged in 1 iteration. 
    33 Broy./Diag. 0.30E+00   12.1     0.00003013     -5672.2610487562 -4.94E-05
  POISSON|   iter        pres error      nabs error        E_hartree    delta E
  POISSON|      1        0.1466E-08      0.2321E-06    1993.1367856468 -0.78E-05
  POISSON| Poisson solver converged in 1 iteration. 
    34 Broy./Diag. 0.30E+00   12.1     0.00002503     -5672.2607782179  2.71E-04
  POISSON|   iter        pres error      nabs error        E_hartree    delta E
  POISSON|      1        0.5504E-08      0.1941E-06    1993.1367962960  0.11E-04
  POISSON| Poisson solver converged in 1 iteration. 
    35 Broy./Diag. 0.30E+00   12.1     0.00002420     -5672.2611625329 -3.84E-04
  POISSON|   iter        pres error      nabs error        E_hartree    delta E
  POISSON|      1        0.1242E-07      0.1614E-06    1993.1368221638  0.26E-04
  POISSON|      2        0.3010E-17      0.1242E-07    1993.1368222229  0.59E-07
  POISSON| Poisson solver converged in 2 iterations.
    36 Broy./Diag. 0.30E+00   13.5     0.00004356     -5672.2611722422 -9.71E-06
  POISSON|   iter        pres error      nabs error        E_hartree    delta E
  POISSON|      1        0.2037E-07      0.8836E-07    1993.1368313786  0.92E-05
  POISSON|      2        0.1256E-17      0.2037E-07    1993.1368312817 -0.97E-07
  POISSON| Poisson solver converged in 2 iterations.
    37 Broy./Diag. 0.30E+00   13.5     0.00004328     -5672.2609293651  2.43E-04
  POISSON|   iter        pres error      nabs error        E_hartree    delta E
  POISSON|      1        0.5305E-08      0.1738E-06    1993.1368665744  0.35E-04
  POISSON| Poisson solver converged in 1 iteration. 
    38 Broy./Diag. 0.30E+00   12.1     0.00002646     -5672.2609542125 -2.48E-05
  POISSON|   iter        pres error      nabs error        E_hartree    delta E
  POISSON|      1        0.3943E-08      0.9987E-07    1993.1368938929  0.27E-04
  POISSON| Poisson solver converged in 1 iteration. 
    39 Broy./Diag. 0.30E+00   12.1     0.00001882     -5672.2609615928 -7.38E-06
  POISSON|   iter        pres error      nabs error        E_hartree    delta E
  POISSON|      1        0.7162E-09      0.1155E-06    1993.1369380327  0.44E-04
  POISSON| Poisson solver converged in 1 iteration. 
    40 Broy./Diag. 0.30E+00   12.4     0.00001803     -5672.2610043493 -4.28E-05
  POISSON|   iter        pres error      nabs error        E_hartree    delta E
  POISSON|      1        0.3576E-08      0.1220E-06    1993.1369689581  0.31E-04
  POISSON| Poisson solver converged in 1 iteration. 
    41 Broy./Diag. 0.30E+00   12.1     0.00001653     -5672.2608255411  1.79E-04
  POISSON|   iter        pres error      nabs error        E_hartree    delta E
  POISSON|      1        0.1981E-09      0.1110E-06    1993.1369850618  0.16E-04
  POISSON| Poisson solver converged in 1 iteration. 
    42 Broy./Diag. 0.30E+00   12.1     0.00001226     -5672.2607933297  3.22E-05
  POISSON|   iter        pres error      nabs error        E_hartree    delta E
  POISSON|      1        0.1200E-08      0.8859E-07    1993.1369894150  0.44E-05
  POISSON| Poisson solver converged in 1 iteration. 
    43 Broy./Diag. 0.30E+00   12.1     0.00001020     -5672.2608022465 -8.92E-06
  POISSON|   iter        pres error      nabs error        E_hartree    delta E
  POISSON|      1        0.2195E-08      0.8449E-07    1993.1369886099 -0.81E-06
  POISSON| Poisson solver converged in 1 iteration. 
    44 Broy./Diag. 0.30E+00   12.1     0.00001083     -5672.2608781910 -7.59E-05
  POISSON|   iter        pres error      nabs error        E_hartree    delta E
  POISSON|      1        0.1085E-09      0.9079E-07    1993.1369758149 -0.13E-04
  POISSON| Poisson solver converged in 1 iteration. 
    45 Broy./Diag. 0.30E+00   12.1     0.00000797     -5672.2607464395  1.32E-04
  POISSON|   iter        pres error      nabs error        E_hartree    delta E
  POISSON|      1        0.5053E-08      0.9243E-07    1993.1369608305 -0.15E-04
  POISSON| Poisson solver converged in 1 iteration. 
    46 Broy./Diag. 0.30E+00   12.2     0.00001293     -5672.2608326503 -8.62E-05
  POISSON|   iter        pres error      nabs error        E_hartree    delta E
  POISSON|      1        0.5542E-08      0.2990E-07    1993.1369608459  0.15E-07
  POISSON| Poisson solver converged in 1 iteration. 
    47 Broy./Diag. 0.30E+00   12.1     0.00001691     -5672.2609052424 -7.26E-05
  POISSON|   iter        pres error      nabs error        E_hartree    delta E
  POISSON|      1        0.3720E-08      0.6543E-07    1993.1369484653 -0.12E-04
  POISSON| Poisson solver converged in 1 iteration. 
    48 Broy./Diag. 0.30E+00   12.2     0.00000960     -5672.2608674429  3.78E-05
  POISSON|   iter        pres error      nabs error        E_hartree    delta E
  POISSON|      1        0.9372E-09      0.4958E-07    1993.1369400896 -0.84E-05
  POISSON| Poisson solver converged in 1 iteration. 
    49 Broy./Diag. 0.30E+00   12.1     0.00000854     -5672.2608577719  9.67E-06
  POISSON|   iter        pres error      nabs error        E_hartree    delta E
  POISSON|      1        0.1478E-08      0.6190E-07    1993.1369314121 -0.87E-05
  POISSON| Poisson solver converged in 1 iteration. 
    50 Broy./Diag. 0.30E+00   12.3     0.00000676     -5672.2608667982 -9.03E-06
  POISSON|   iter        pres error      nabs error        E_hartree    delta E
  POISSON|      1        0.3023E-09      0.3882E-07    1993.1369288309 -0.26E-05
  POISSON| Poisson solver converged in 1 iteration. 
    51 Broy./Diag. 0.30E+00   12.2     0.00000583     -5672.2609249127 -5.81E-05
  POISSON|   iter        pres error      nabs error        E_hartree    delta E
  POISSON|      1        0.1088E-08      0.3276E-07    1993.1369301050  0.13E-05
  POISSON| Poisson solver converged in 1 iteration. 
    52 Broy./Diag. 0.30E+00   12.2     0.00000455     -5672.2608847306  4.02E-05
  POISSON|   iter        pres error      nabs error        E_hartree    delta E
  POISSON|      1        0.3731E-09      0.3472E-07    1993.1369354528  0.53E-05
  POISSON| Poisson solver converged in 1 iteration. 
    53 Broy./Diag. 0.30E+00   12.2     0.00000299     -5672.2608806342  4.10E-06
  POISSON|   iter        pres error      nabs error        E_hartree    delta E
  POISSON|      1        0.6241E-10      0.2453E-07    1993.1369432863  0.78E-05
  POISSON| Poisson solver converged in 1 iteration. 
    54 Broy./Diag. 0.30E+00   12.1     0.00000280     -5672.2608658662  1.48E-05
  POISSON|   iter        pres error      nabs error        E_hartree    delta E
  POISSON|      1        0.6007E-09      0.2288E-07    1993.1369527053  0.94E-05
  POISSON| Poisson solver converged in 1 iteration. 
    55 Broy./Diag. 0.30E+00   12.1     0.00000264     -5672.2608853882 -1.95E-05
  POISSON|   iter        pres error      nabs error        E_hartree    delta E
  POISSON|      1        0.4648E-09      0.2011E-07    1993.1369584891  0.58E-05
  POISSON| Poisson solver converged in 1 iteration. 
    56 Broy./Diag. 0.30E+00   12.2     0.00000278     -5672.2608455235  3.99E-05
  POISSON|   iter        pres error      nabs error        E_hartree    delta E
  POISSON|      1        0.1121E-08      0.1299E-07    1993.1369610487  0.26E-05
  POISSON| Poisson solver converged in 1 iteration. 
    57 Broy./Diag. 0.30E+00   12.1     0.00000314     -5672.2608412152  4.31E-06
  POISSON|   iter        pres error      nabs error        E_hartree    delta E
  POISSON|      1        0.7797E-09      0.1220E-07    1993.1369644286  0.34E-05
  POISSON| Poisson solver converged in 1 iteration. 
    58 Broy./Diag. 0.30E+00   12.1     0.00000254     -5672.2608523706 -1.12E-05
  POISSON|   iter        pres error      nabs error        E_hartree    delta E
  POISSON|      1        0.7505E-09      0.1299E-07    1993.1369660325  0.16E-05
  POISSON| Poisson solver converged in 1 iteration. 
    59 Broy./Diag. 0.30E+00   12.1     0.00000271     -5672.2608542989 -1.93E-06
  POISSON|   iter        pres error      nabs error        E_hartree    delta E
  POISSON|      1        0.7311E-10      0.1354E-07    1993.1369674290  0.14E-05
  POISSON| Poisson solver converged in 1 iteration. 
    60 Broy./Diag. 0.30E+00   12.1     0.00000181     -5672.2608522660  2.03E-06
  POISSON|   iter        pres error      nabs error        E_hartree    delta E
  POISSON|      1        0.3642E-09      0.1338E-07    1993.1369669410 -0.49E-06
  POISSON| Poisson solver converged in 1 iteration. 
    61 Broy./Diag. 0.30E+00   12.1     0.00000145     -5672.2608455728  6.69E-06
  POISSON|   iter        pres error      nabs error        E_hartree    delta E
  POISSON|      1        0.1135E-09      0.8348E-08    1993.1369664380 -0.50E-06
  POISSON| Poisson solver converged in 1 iteration. 
    62 Broy./Diag. 0.30E+00   12.1     0.00000143     -5672.2608667075 -2.11E-05
  POISSON|   iter        pres error      nabs error        E_hartree    delta E
  POISSON|      1        0.2445E-09      0.1291E-07    1993.1369649415 -0.15E-05
  POISSON| Poisson solver converged in 1 iteration. 
    63 Broy./Diag. 0.30E+00   12.1     0.00000092     -5672.2608631594  3.55E-06

  *** SCF run converged in    63 steps ***


  Electronic density on regular grids:      -2159.9999999992        0.0000000008
  Core density on regular grids:             2159.9999999995       -0.0000000005
  Total charge density on r-space grids:        0.0000000003
  Total charge density g-space grids:           0.0000000003

  Overlap energy of the core charge distribution:               0.00003162187786
  Self energy of the core charge distribution:              -9891.63555570741482
  Core Hamiltonian energy:                                   3201.94708262576933
  Hartree energy:                                            1993.13696494148826
  Electric enthalpy:                                         1993.12993733463372
  Exchange-correlation energy:                               -970.97717649405524
  Dispersion energy:                                           -4.69140386752292
  Electronic entropic energy:                                  -0.03377867673062
  Fermi energy:                                                -0.22692485737636

  Total energy:                                             -5672.26086315939847

 The electron density is written in cube file format to the file:

 cp2k-ELECTRON_DENSITY-1_0.cube

 !-----------------------------------------------------------------------------!
                     Mulliken Population Analysis

 #  Atom  Element  Kind  Atomic population                           Net charge
       1     Pt       1         10.066134                             -0.066134
       2     Pt       1         10.062913                             -0.062913
       3     Pt       1         10.036653                             -0.036653
       4     Pt       1         10.036864                             -0.036864
       5     Pt       1         10.048256                             -0.048256
       6     Pt       1         10.057579                             -0.057579
       7     Pt       1         10.036281                             -0.036281
       8     Pt       1         10.050191                             -0.050191
       9     Pt       1         10.059306                             -0.059306
      10     Pt       1         10.048116                             -0.048116
      11     Pt       1         10.050391                             -0.050391
      12     Pt       1         10.045296                             -0.045296
      13     Pt       1         10.032045                             -0.032045
      14     Pt       1         10.051882                             -0.051882
      15     Pt       1         10.033072                             -0.033072
      16     Pt       1         10.058142                             -0.058142
      17     Pt       1         10.054973                             -0.054973
      18     Pt       1         10.025715                             -0.025715
      19     Pt       1         10.036853                             -0.036853
      20     Pt       1         10.038856                             -0.038856
      21     Pt       1         10.045905                             -0.045905
[...]
    191      1      Pt          0.00278679    -0.00904958    -0.00400366
    192      1      Pt         -0.00155162    -0.00199157    -0.00789719
    193      1      Pt         -0.00965293     0.00052240    -0.00901430
    194      1      Pt          0.00681517    -0.01739770     0.00846398
    195      1      Pt          0.01216457    -0.00028385     0.00098618
    196      1      Pt         -0.00746220     0.00407531    -0.01065058
    197      1      Pt          0.00512634    -0.01238141    -0.00185551
    198      1      Pt         -0.00836593     0.00624325    -0.00289009
    199      1      Pt         -0.00547856     0.01671556     0.00918430
    200      1      Pt         -0.00689597     0.00238214    -0.00622455
    201      1      Pt         -0.00551588     0.00241292     0.00227774
    202      1      Pt          0.00791100     0.01582414     0.01206127
    203      1      Pt          0.00440874    -0.00572333    -0.00375825
    204      1      Pt         -0.00135763    -0.01818913     0.00051905
    205      1      Pt          0.00201388    -0.01757602     0.01821301
    206      1      Pt          0.00142834     0.00803935    -0.00880579
    207      1      Pt         -0.00193260    -0.00548527     0.00018599
    208      1      Pt          0.00096468    -0.00052481     0.00270106
    209      1      Pt         -0.01366983     0.00310103     0.00371356
    210      1      Pt          0.00368069     0.00884680     0.00576672
    211      1      Pt          0.00302811    -0.00698632     0.01031304
    212      1      Pt          0.00702417    -0.01478404    -0.01208035
    213      1      Pt         -0.00025230    -0.01508569    -0.01553322
    214      1      Pt         -0.00318589    -0.00899972     0.00438163
    215      1      Pt          0.00079544    -0.00646818    -0.01794370
    216      1      Pt         -0.00795881    -0.00230379    -0.00084749
 SUM OF ATOMIC FORCES          -0.00001644     0.00003212    -0.00005778     0.00006812

 -------------------------------------------------------------------------------
 -                                                                             -
 -                                DBCSR STATISTICS                             -
 -                                                                             -
 -------------------------------------------------------------------------------
 COUNTER                                    TOTAL       BLAS       SMM       ACC
 flops    20 x    12 x    20            447897600       0.0%    100.0%      0.0%
 flops    20 x    32 x    20          58525286400       0.0%    100.0%      0.0%
 flops    20 x    20 x   204         248609088000       0.0%    100.0%      0.0%
 flops    20 x    20 x   224         272982528000       0.0%    100.0%      0.0%
 flops    20 x    20 x   192        1403910144000       0.0%    100.0%      0.0%
 flops inhomo. stacks                           0       0.0%      0.0%      0.0%
 flops total                         1.984475E+12       0.0%    100.0%      0.0%
 flops max/rank                     63.687885E+09       0.0%    100.0%      0.0%
 matmuls inhomo. stacks                         0       0.0%      0.0%      0.0%
 matmuls total                           14519520       0.0%    100.0%      0.0%
 number of processed stacks                 19072       0.0%    100.0%      0.0%
 average stack size                                     0.0     761.3       0.0
 marketing flops                     2.825114E+12
 -------------------------------------------------------------------------------
 # multiplications                             66
 max memory usage/rank               1.812652E+09
 # max total images/rank                        2
 # max 3D layers                                1
 # MPI messages exchanged                   27456
 MPI messages size (bytes):
  total size                        36.702028E+09
  min size                         829.440000E+03
  max size                           4.665600E+06
  average size                       1.336758E+06
 MPI breakdown and total messages size (bytes):
             size <=      128                   0                        0
       128 < size <=     8192                   0                        0
      8192 < size <=    32768                   0                        0
     32768 < size <=   131072                   0                        0
    131072 < size <=  4194304               27232              35656934400
   4194304 < size <= 16777216                 224               1045094400
  16777216 < size                               0                        0
 -------------------------------------------------------------------------------

 *** WARNING in dbcsr_mm.F:290 :: Using a non-square number of MPI ranks ***
 *** might lead to poor performance. Used ranks: 32 Suggested: 36 64     ***

 -------------------------------------------------------------------------------
 -                                                                             -
 -                      DBCSR MESSAGE PASSING PERFORMANCE                      -
 -                                                                             -
 -------------------------------------------------------------------------------
 ROUTINE             CALLS      AVE VOLUME [Bytes]
 MP_Bcast                6                     12.
 MP_Allreduce          485                      9.
 MP_Alltoall          1829                1275340.
 MP_ISend             2112                 578495.
 MP_IRecv             2112                 561506.
 -------------------------------------------------------------------------------

 -------------------------------------------------------------------------------
 -                                                                             -
 -                                DBM STATISTICS                               -
 -                                                                             -
 -------------------------------------------------------------------------------
    M  x    N  x    K                                          COUNT     PERCENT
 -------------------------------------------------------------------------------

 -------------------------------------------------------------------------------
 -                                                                             -
 -                                GRID STATISTICS                              -
 -                                                                             -
 -------------------------------------------------------------------------------
 LP    KERNEL             BACKEND                              COUNT     PERCENT
 4     collocate general  REF                               21778944      49.97%
 4     integrate general  REF                               21438648      49.19%
 5     integrate general  REF                                 340296       0.78%
 0     collocate general  REF                                  13824       0.03%
 0     integrate general  REF                                   6912       0.02%
 1     integrate general  REF                                   6912       0.02%
 -------------------------------------------------------------------------------

 MEMORY| Estimated peak process memory [MiB]                                2155

 -------------------------------------------------------------------------------
 ----                             MULTIGRID INFO                            ----
 -------------------------------------------------------------------------------
 count for grid        1:          17554          cutoff [a.u.]          200.00
 count for grid        2:         177523          cutoff [a.u.]           66.67
 count for grid        3:         109610          cutoff [a.u.]           22.22
 count for grid        4:         155225          cutoff [a.u.]            7.41
 total gridlevel count  :         459912

 -------------------------------------------------------------------------------
 -                                                                             -
 -                         MESSAGE PASSING PERFORMANCE                         -
 -                                                                             -
 -------------------------------------------------------------------------------

 ROUTINE             CALLS      AVE VOLUME [Bytes]
 MP_Group                4
 MP_Bcast             1770                 164528.
 MP_Allreduce         1598                   1582.
 MP_Sync                69
 MP_Alltoall          3095               49276377.
 MP_SendRecv           124                  14958.
 MP_ISendRecv         7936                 214800.
 MP_Wait             19240
 MP_comm_split           1
 MP_ISend            10136                 715003.
 MP_IRecv            10136                 715003.
 MP_Recv               192                1105920.
 MP_Write_All            3                4213860.
 -------------------------------------------------------------------------------


 -------------------------------------------------------------------------------
 -                                                                             -
 -                           R E F E R E N C E S                               -
 -                                                                             -
 -------------------------------------------------------------------------------
 
 CP2K version 2022.1, the CP2K developers group (2022).
 CP2K is freely available from https://www.cp2k.org/ .

 Kuehne,Thomas D.; Iannuzzi,Marcella; Del Ben,Mauro;
 Rybkin,Vladimir V.; Seewald,Patrick; Stein,Frederick; Laino,Teodoro;
 Khaliullin,Rustam Z.; Schuett,Ole; Schiffmann,Florian; Golze,Dorothea;
 Wilhelm,Jan; Chulkov,Sergey; Bani-Hashemian,Mohammad Hossein;
 Weber,Valery; Borstnik,Urban; Taillefumier,Mathieu;
 Jakobovits,Alice Shoshana; Lazzaro,Alfio; Pabst,Hans; Mueller,Tiziano;
 Schade,Robert; Guidon,Manuel; Andermatt,Samuel; Holmberg,Nico;
 Schenter,Gregory K.; Hehn,Anna; Bussy,Augustin; Belleflamme,Fabian;
 Tabacchi,Gloria; Gloess,Andreas; Lass,Michael; Bethune,Iain;
 Mundy,Christopher J.; Plessl,Christian; Watkins,Matt;
 VandeVondele,Joost; Krack,Matthias; Hutter,Juerg. 
 The Journal of Chemical Physics, 152 (19), (2020). 
 CP2K: An electronic structure and molecular dynamics software package -
 Quickstep: Efficient and accurate electronic structure calculations.
 https://doi.org/10.1063/5.0007045

 Goerigk, Lars; Hansen, Andreas; Bauer, Christoph; Ehrlich, Stephan;
 Najibi, Asim; Grimme, Stefan. , 19 (48), (2017). 
 A look at the density functional theory zoo with the advanced GMTKN55 database
 for general main group thermochemistry, kinetics and noncovalent interactions.
 https://doi.org/10.1039/C7CP04913G

 Bani-Hashemian, MH; Bruck, S; Luisier, M; VandeVondele, J. 
 JOURNAL OF CHEMICAL PHYSICS, 144 (4), 044113 (2016). 
 A generalized Poisson solver for first-principles device simulations.
 https://doi.org/10.1063/1.4940796

 Schuett, Ole; Messmer, Peter; Hutter, Juerg; VandeVondele, Joost. 
 Electronic Structure Calculations on Graphics Processing Units, John
 Wiley & Sons, Ltd, 173-190 (2016). 
 GPU-Accelerated Sparse Matrix-Matrix Multiplication for
 Linear Scaling Density Functional Theory.
 https://doi.org/10.1002/9781118670712.ch8

 Heinecke, A; Henry, G; Hutchinson, M; Pabst, H. 
 Proceedings of Intl. Supercomputing Conference, 981-991 (2016). 
 LIBXSMM: Accelerating Small Matrix Multiplications
 by Runtime Code Generation.
 https://doi.org/10.1109/SC.2016.83

 Borstnik, U; VandeVondele, J; Weber, V; Hutter, J. 
 PARALLEL COMPUTING, 40 (5-6), 47-58 (2014). 
 Sparse matrix multiplication: The distributed block-compressed sparse
 row library.
 https://doi.org/10.1016/j.parco.2014.03.012

 Hutter, J; Iannuzzi, M; Schiffmann, F; VandeVondele, J. 
 WIREs Comput Mol Sci., 4 (1), 15-25 (2014). 
 CP2K: atomistic simulations of condensed matter systems.
 https://doi.org/10.1002/wcms.1159

 Marek, A; Blum, V; Johanni, R; Havu, V; Lang, B; Auckenthaler, T;
 Heinecke, A; Bungartz, H; Lederer, H. 
 Journal of Physics: Condensed Matter, 26 (21), (2014). 
 The ELPA library: scalable parallel eigenvalue solutions for
 electronic structure
 theory and computational science.
 https://doi.org/10.1088/0953-8984/26/21/213201

 Grimme, S; Ehrlich, S; Goerigk, L. 
 JOURNAL OF COMPUTATIONAL CHEMISTRY, 32, 1456 (2011). 
 Effect of the damping function in dispersion corrected density functional theory.
 https://doi.org/10.1002/jcc.21759

 Grimme, S; Antony, J; Ehrlich, S; Krieg, H. 
 JOURNAL OF CHEMICAL PHYSICS, 132 (15), 154104 (2010). 
 A consistent and accurate ab initio parametrization of density
 functional dispersion correction (DFT-D) for the 94 elements H-Pu.
 https://doi.org/10.1063/1.3382344

 VandeVondele, J; Hutter, J. 
 JOURNAL OF CHEMICAL PHYSICS, 127 (11), 114105 (2007). 
 Gaussian basis sets for accurate calculations on molecular systems in
 gas and condensed phases.
 https://doi.org/10.1063/1.2770708

 Krack, M. 
 THEORETICAL CHEMISTRY ACCOUNTS, 114 (1-3), 145-152 (2005). 
 Pseudopotentials for H to Kr optimized for gradient-corrected
 exchange-correlation functionals.
 https://doi.org/10.1007/s00214-005-0655-y

 VandeVondele, J; Krack, M; Mohamed, F; Parrinello, M; Chassaing, T;
 Hutter, J. COMPUTER PHYSICS COMMUNICATIONS, 167 (2), 103-128 (2005). 
 QUICKSTEP: Fast and accurate density functional calculations using a
 mixed Gaussian and plane waves approach.
 https://doi.org/10.1016/j.cpc.2004.12.014

 Frigo, M; Johnson, SG. 
 PROCEEDINGS OF THE IEEE, 93 (2), 216-231 (2005). 
 The design and implementation of FFTW3.
 https://doi.org/10.1109/JPROC.2004.840301

 Hartwigsen, C; Goedecker, S; Hutter, J. 
 PHYSICAL REVIEW B, 58 (7), 3641-3662 (1998). 
 Relativistic separable dual-space Gaussian pseudopotentials from H to Rn.
 https://doi.org/10.1103/PhysRevB.58.3641

 Lippert, G; Hutter, J; Parrinello, M. 
 MOLECULAR PHYSICS, 92 (3), 477-487 (1997). 
 A hybrid Gaussian and plane wave density functional scheme.
 https://doi.org/10.1080/002689797170220

 Perdew, JP; Burke, K; Ernzerhof, M. 
 PHYSICAL REVIEW LETTERS, 77 (18), 3865-3868 (1996). 
 Generalized gradient approximation made simple.
 https://doi.org/10.1103/PhysRevLett.77.3865

 Goedecker, S; Teter, M; Hutter, J. 
 PHYSICAL REVIEW B, 54 (3), 1703-1710 (1996). 
 Separable dual-space Gaussian pseudopotentials.
 https://doi.org/10.1103/PhysRevB.54.1703


 -------------------------------------------------------------------------------
 -                                                                             -
 -                                T I M I N G                                  -
 -                                                                             -
 -------------------------------------------------------------------------------
 SUBROUTINE                       CALLS  ASD         SELF TIME        TOTAL TIME
                                MAXIMUM       AVERAGE  MAXIMUM  AVERAGE  MAXIMUM
 CP2K                                 1  1.0    0.020    0.046  825.920  825.921
 qs_forces                            1  2.0    0.001    0.001  825.498  825.499
 qs_energies                          1  3.0    0.000    0.000  812.725  812.728
 scf_env_do_scf                       1  4.0    0.000    0.000  800.700  800.793
 scf_env_do_scf_inner_loop           63  5.0    0.003    0.005  800.698  800.790
 rebuild_ks_matrix                   64  7.0    0.000    0.000  509.179  509.210
 qs_ks_build_kohn_sham_matrix        64  8.0    0.010    0.011  509.179  509.209
 qs_ks_update_qs_env                 63  6.0    0.001    0.001  500.831  500.862
 pw_transfer                       2952 12.1    0.224    0.314  284.738  287.659
 fft_wrap_pw1pw2                   2952 13.1    0.031    0.042  284.514  287.358
 fft_wrap_pw1pw2_200               2568 14.4   23.958   27.390  281.587  284.212
 pw_poisson_solve                    64  9.0    0.019    0.027  242.323  242.409
 implicit_poisson_solver_mixed_      64 10.0    6.468    7.022  227.673  227.815
 fft3d_ps                          2952 15.1  120.953  130.168  212.191  215.840
 qs_rho_update_rho_low               64  6.0    0.001    0.001  193.285  193.305
 calculate_rho_elec                  64  7.0    0.350    0.374  193.284  193.304
 sum_up_and_integrate                64  9.0    0.997    1.073  182.758  182.808
 integrate_v_rspace                  64 10.0    0.002    0.002  181.760  181.902
 grid_collocate_task_list            64  8.0   85.708  167.331   85.708  167.331
 derive_fft                         308 12.2    0.022    0.026  160.085  161.428
 grid_integrate_task_list            64 11.0   79.303  155.860   79.303  155.860
 rs_pw_transfer                     516 10.5    0.006    0.006  106.804  133.696
 density_rs2pw                       64  8.0    0.004    0.005  105.781  132.648
 apply_P_operator                   244 11.2    2.286    2.614  129.343  130.331
 mp_waitany                       10136 12.4   88.990  115.606   88.990  115.606
 rs_pw_transfer_RS2PW_200            66 10.0    3.668    4.256   87.446  114.341
 mp_alltoall_d11v                   912 10.3   78.889  103.904   78.889  103.904
 rs_gather_matrices                  64 11.0    0.247    0.283   77.708  102.780
 qs_scf_new_mos                      63  6.0    0.001    0.001   78.975   79.065
 qs_vxc_create                       64  9.0    0.002    0.003   75.647   76.578
 xc_vxc_pw_create                    64 10.0    1.715    2.137   75.645   76.576
 eigensolver                         63  7.0    0.005    0.008   71.320   71.446
 x_to_yz                           1847 16.3   40.336   47.677   62.801   66.335
 mp_alltoall_z22v                  2952 17.1   39.517   61.152   39.517   61.152
 xc_pw_derive                       384 12.0    0.007    0.008   51.110   54.023
 apply_poisson_operator_fft          64 11.0    0.001    0.001   48.695   48.954
 cp_fm_diag_elpa                     64  8.0    0.001    0.001   45.369   45.496
 cp_fm_diag_elpa_base                64  9.0   44.397   44.509   45.250   45.317
 yz_to_x                           1105 15.8   11.315   12.335   28.366   40.637
 xc_rho_set_and_dset_create          64 11.0    0.727    0.891   39.539   40.449
 apply_inv_laplace_operator_fft     156 11.6    1.297    1.413   34.593   35.662
 pw_scatter_p                      1847 15.3   31.297   35.367   31.297   35.367
 xc_pw_divergence                    64 11.0    0.004    0.004   33.387   35.196
 ps_implicit_compute_veps            64 11.0    0.775    0.916   33.808   34.597
 gspace_mixing                       62  6.0    0.340    0.364   30.088   30.088
 pw_derive                         1308 13.1   24.944   26.087   24.944   26.087
 cp_fm_triangular_multiply          189  8.0   25.193   25.392   25.193   25.392
 potential_pw2rs                     64 11.0    0.051    0.059   24.737   24.863
 ps_implicit_compute_error_fft       90 11.0    1.660    1.778   22.277   23.907
 broyden_mixing                      62  7.0   22.007   22.308   22.504   22.578
 pw_gather_p                       1105 14.8   16.749   18.015   16.749   18.015
 -------------------------------------------------------------------------------

 The number of warnings for this run is : 1
 
 -------------------------------------------------------------------------------
  **** **** ******  **  PROGRAM ENDED AT                 2023-12-03 01:09:02.591
 ***** ** ***  *** **   PROGRAM RAN ON                                     cu042
 **    ****   ******    PROGRAM RAN BY                                     jxzhu
 ***** **    ** ** **   PROGRAM PROCESS ID                                 54177
  **** **  *******  **  PROGRAM STOPPED IN /public/home/jxzhu/tmp_calc/04c0855f9
                                           8753fac23fde4df51ba20f3741a9e9a/calc/
                                           task.002.000004
