 DBCSR| CPU Multiplication driver                                           XSMM
 DBCSR| Multrec recursion limit                                              512
 DBCSR| Multiplication stack size                                           1000
 DBCSR| Maximum elements for images                                    UNLIMITED
 DBCSR| Multiplicative factor virtual images                                   1
 DBCSR| Use multiplication densification                                       T
 DBCSR| Multiplication size stacks                                             3
 DBCSR| Number of 3D layers                                               SINGLE
 DBCSR| Use MPI memory allocation                                              T
 DBCSR| Use RMA algorithm                                                      F
 DBCSR| Use Communication thread                                               T
 DBCSR| Communication thread load                                             87


  **** **** ******  **  PROGRAM STARTED AT               2024-11-01 22:55:55.548
 ***** ** ***  *** **   PROGRAM STARTED ON                               c53-012
 **    ****   ******    PROGRAM STARTED BY                                 jxzhu
 ***** **    ** ** **   PROGRAM PROCESS ID                                261687
  **** **  *******  **  PROGRAM STARTED IN /data/jxzhu/nnp/dp_workdir/d1f764b96e
                                           9a01b62c3e35b0c4f5198f3ba3ed59/calc.0
                                           01/task.000.000006

 CP2K| version string:                                          CP2K version 7.1
 CP2K| source code revision number:                                  git:e635599
 CP2K| cp2kflags: libint fftw3 libxc elpa parallel mpi3 scalapack xsmm spglib   
 CP2K| is freely available from                            https://www.cp2k.org/
 CP2K| Program compiled at                           Mon Mar 8 20:53:19 CST 2021
 CP2K| Program compiled on                                                 mgt01
 CP2K| Program compiled for                                                local
 CP2K| Data directory path                                    /data/jxzhu/basis/
 CP2K| Input file name                                                 input.inp

 GLOBAL| Force Environment number                                              1
 GLOBAL| Basis set file name                                        BASIS_MOLOPT
 GLOBAL| Potential file name                                      GTH_POTENTIALS
 GLOBAL| MM Potential file name                                     MM_POTENTIAL
 GLOBAL| Coordinate file name                                          coord.xyz
 GLOBAL| Method name                                                        CP2K
 GLOBAL| Project name                                                       cp2k
 GLOBAL| Preferred FFT library                                             FFTW3
 GLOBAL| Preferred diagonalization lib.                                     ELPA
 GLOBAL| Run type                                                   ENERGY_FORCE
 GLOBAL| All-to-all communication in single precision                          F
 GLOBAL| FFTs using library dependent lengths                                  F
 GLOBAL| Global print level                                               MEDIUM
 GLOBAL| MPI I/O enabled                                                       T
 GLOBAL| Total number of message passing processes                            32
 GLOBAL| Number of threads for this process                                    1
 GLOBAL| This output is from process                                           0
 GLOBAL| CPU model name                Intel(R) Xeon(R) Gold 6226R CPU @ 2.90GHz
 GLOBAL| CPUID                                                              1003
 GLOBAL| Compiled for CPUID                                                 1002
 HINT in environment.F:814 The compiler target flags (x86_avx2) used to build
   this binary cannot exploit all extensions of this CPU model (x86_avx512).
   Consider compiler target flags as part of FCFLAGS and CFLAGS (ARCH file).

 MEMORY| system memory details [Kb]
 MEMORY|                        rank 0           min           max       average
 MEMORY| MemTotal            196472820     196472820     196472820     196472820
 MEMORY| MemFree             182943828     182943828     182943828     182943828
 MEMORY| Buffers                  2196          2196          2196          2196
 MEMORY| Cached                 800228        800228        800228        800228
 MEMORY| Slab                   432104        432104        432104        432104
 MEMORY| SReclaimable           136488        136488        136488        136488
 MEMORY| MemLikelyFree       183882740     183882740     183882740     183882740


 *** Fundamental physical constants (SI units) ***

 *** Literature: B. J. Mohr and B. N. Taylor,
 ***             CODATA recommended values of the fundamental physical
 ***             constants: 2006, Web Version 5.1
 ***             http://physics.nist.gov/constants

 Speed of light in vacuum [m/s]                             2.99792458000000E+08
 Magnetic constant or permeability of vacuum [N/A**2]       1.25663706143592E-06
 Electric constant or permittivity of vacuum [F/m]          8.85418781762039E-12
 Planck constant (h) [J*s]                                  6.62606896000000E-34
 Planck constant (h-bar) [J*s]                              1.05457162825177E-34
 Elementary charge [C]                                      1.60217648700000E-19
 Electron mass [kg]                                         9.10938215000000E-31
 Electron g factor [ ]                                     -2.00231930436220E+00
 Proton mass [kg]                                           1.67262163700000E-27
 Fine-structure constant                                    7.29735253760000E-03
 Rydberg constant [1/m]                                     1.09737315685270E+07
 Avogadro constant [1/mol]                                  6.02214179000000E+23
 Boltzmann constant [J/K]                                   1.38065040000000E-23
 Atomic mass unit [kg]                                      1.66053878200000E-27
 Bohr radius [m]                                            5.29177208590000E-11

 *** Conversion factors ***

 [u] -> [a.u.]                                              1.82288848426455E+03
 [Angstrom] -> [Bohr] = [a.u.]                              1.88972613288564E+00
 [a.u.] = [Bohr] -> [Angstrom]                              5.29177208590000E-01
 [a.u.] -> [s]                                              2.41888432650478E-17
 [a.u.] -> [fs]                                             2.41888432650478E-02
 [a.u.] -> [J]                                              4.35974393937059E-18
 [a.u.] -> [N]                                              8.23872205491840E-08
 [a.u.] -> [K]                                              3.15774647902944E+05
 [a.u.] -> [kJ/mol]                                         2.62549961709828E+03
 [a.u.] -> [kcal/mol]                                       6.27509468713739E+02
 [a.u.] -> [Pa]                                             2.94210107994716E+13
 [a.u.] -> [bar]                                            2.94210107994716E+08
 [a.u.] -> [atm]                                            2.90362800883016E+08
 [a.u.] -> [eV]                                             2.72113838565563E+01
 [a.u.] -> [Hz]                                             6.57968392072181E+15
 [a.u.] -> [1/cm] (wave numbers)                            2.19474631370540E+05
 [a.u./Bohr**2] -> [1/cm]                                   5.14048714338585E+03
 

 CELL_TOP| Volume [angstrom^3]:                                         4542.849
 CELL_TOP| Vector a [angstrom    11.246     0.000     0.000    |a| =      11.246
 CELL_TOP| Vector b [angstrom     0.000     9.739     0.000    |b| =       9.739
 CELL_TOP| Vector c [angstrom     0.000     0.000    41.478    |c| =      41.478
 CELL_TOP| Angle (b,c), alpha [degree]:                                   90.000
 CELL_TOP| Angle (a,c), beta  [degree]:                                   90.000
 CELL_TOP| Angle (a,b), gamma [degree]:                                   90.000
 CELL_TOP| Numerically orthorhombic:                                         YES

 GENERATE|  Preliminary Number of Bonds generated:                             0
 GENERATE|  Achieved consistency in connectivity generation.

 CELL| Volume [angstrom^3]:                                             4542.849
 CELL| Vector a [angstrom]:      11.246     0.000     0.000    |a| =      11.246
 CELL| Vector b [angstrom]:       0.000     9.739     0.000    |b| =       9.739
 CELL| Vector c [angstrom]:       0.000     0.000    41.478    |c| =      41.478
 CELL| Angle (b,c), alpha [degree]:                                       90.000
 CELL| Angle (a,c), beta  [degree]:                                       90.000
 CELL| Angle (a,b), gamma [degree]:                                       90.000
 CELL| Numerically orthorhombic:                                             YES

 CELL_REF| Volume [angstrom^3]:                                         4542.849
 CELL_REF| Vector a [angstrom    11.246     0.000     0.000    |a| =      11.246
 CELL_REF| Vector b [angstrom     0.000     9.739     0.000    |b| =       9.739
 CELL_REF| Vector c [angstrom     0.000     0.000    41.478    |c| =      41.478
 CELL_REF| Angle (b,c), alpha [degree]:                                   90.000
 CELL_REF| Angle (a,c), beta  [degree]:                                   90.000
 CELL_REF| Angle (a,b), gamma [degree]:                                   90.000
 CELL_REF| Numerically orthorhombic:                                         YES

 *******************************************************************************
 *******************************************************************************
 **                                                                           **
 **     #####                         ##              ##                      **
 **    ##   ##            ##          ##              ##                      **
 **   ##     ##                       ##            ######                    **
 **   ##     ##  ##   ##  ##   #####  ##  ##   ####   ##    #####    #####    **
 **   ##     ##  ##   ##  ##  ##      ## ##   ##      ##   ##   ##  ##   ##   **
 **   ##  ## ##  ##   ##  ##  ##      ####     ###    ##   ######   ######    **
 **    ##  ###   ##   ##  ##  ##      ## ##      ##   ##   ##       ##        **
 **     #######   #####   ##   #####  ##  ##  ####    ##    #####   ##        **
 **           ##                                                    ##        **
 **                                                                           **
 **                                                ... make the atoms dance   **
 **                                                                           **
 **            Copyright (C) by CP2K developers group (2000 - 2019)           **
 **                                                                           **
 *******************************************************************************

 DFT| Spin restricted Kohn-Sham (RKS) calculation                            RKS
 DFT| Multiplicity                                                             1
 DFT| Number of spin states                                                    1
 DFT| Charge                                                                   0
 DFT| Self-interaction correction (SIC)                                       NO
 DFT| Cutoffs: density                                              1.000000E-10
 DFT|          gradient                                             1.000000E-10
 DFT|          tau                                                  1.000000E-10
 DFT|          cutoff_smoothing_range                               0.000000E+00
 DFT| XC density smoothing                                                  NONE
 DFT| XC derivatives                                                          PW
 FUNCTIONAL| ROUTINE=NEW
 FUNCTIONAL| PBE:
 FUNCTIONAL| J.P.Perdew, K.Burke, M.Ernzerhof, Phys. Rev. Letter, vol. 77, n 18,
 FUNCTIONAL|  pp. 3865-3868, (1996){spin unpolarized}                           
 vdW POTENTIAL|                                                   Pair Potential
 vdW POTENTIAL|          DFT-D3 (Version 3.1)
 vdW POTENTIAL|          Potential Form: S. Grimme et al, JCP 132: 154104 (2010)
 vdW POTENTIAL|          Zero Damping
 vdW POTENTIAL|          Cutoff Radius [Bohr]:                             20.00
 vdW POTENTIAL|          s6 Scaling Factor:                               1.0000
 vdW POTENTIAL|          sr6 Scaling Factor:                              1.2170
 vdW POTENTIAL|          s8 Scaling Factor:                               0.7220
 vdW POTENTIAL|          Cutoff for CN calculation:                   0.1000E-05

 QS| Method:                                                                 GPW
 QS| Density plane wave grid type                        NON-SPHERICAL FULLSPACE
 QS| Number of grid levels:                                                    4
 QS| Density cutoff [a.u.]:                                                200.0
 QS| Multi grid cutoff [a.u.]: 1) grid level                               200.0
 QS|                           2) grid level                                66.7
 QS|                           3) grid level                                22.2
 QS|                           4) grid level                                 7.4
 QS| Grid level progression factor:                                          3.0
 QS| Relative density cutoff [a.u.]:                                        20.0
 QS| Consistent realspace mapping and integration 
 QS| Interaction thresholds: eps_pgf_orb:                                3.2E-07
 QS|                         eps_filter_matrix:                          0.0E+00
 QS|                         eps_core_charge:                            1.0E-15
 QS|                         eps_rho_gspace:                             1.0E-13
 QS|                         eps_rho_rspace:                             1.0E-13
 QS|                         eps_gvg_rspace:                             3.2E-07
 QS|                         eps_ppl:                                    1.0E-02
 QS|                         eps_ppnl:                                   3.2E-09


 ATOMIC KIND INFORMATION

  1. Atomic kind: Pt                                    Number of atoms:      96

     Orbital Basis Set                      DZVP-A5-Q10-323-MOL-T1-DERIVED_SET-1

       Number of orbital shell sets:                                           1
       Number of orbital shells:                                               6
       Number of primitive Cartesian functions:                                5
       Number of Cartesian basis functions:                                   23
       Number of spherical basis functions:                                   20
       Norm type:                                                              2

       Normalised Cartesian orbitals:

                        Set   Shell   Orbital            Exponent    Coefficient

                          1       1    2s                2.521825       0.177473
                                                         1.453920      -0.063399
                                                         0.614053      -0.407089
                                                         0.232656       0.262254
                                                         0.074788       0.047371

                          1       2    3s                2.521825      -0.049056
                                                         1.453920       0.044904
                                                         0.614053      -0.009756
                                                         0.232656      -0.144709
                                                         0.074788       0.144085

                          1       3    3px               2.521825      -0.317572
                                                         1.453920       0.534826
                                                         0.614053      -0.489458
                                                         0.232656       0.245631
                                                         0.074788       0.018221
                          1       3    3py               2.521825      -0.317572
                                                         1.453920       0.534826
                                                         0.614053      -0.489458
                                                         0.232656       0.245631
                                                         0.074788       0.018221
                          1       3    3pz               2.521825      -0.317572
                                                         1.453920       0.534826
                                                         0.614053      -0.489458
                                                         0.232656       0.245631
                                                         0.074788       0.018221

                          1       4    4dx2              2.521825       3.008522
                                                         1.453920      -1.224251
                                                         0.614053       0.225691
                                                         0.232656       0.125144
                                                         0.074788      -0.015348
                          1       4    4dxy              2.521825       5.210912
                                                         1.453920      -2.120465
                                                         0.614053       0.390909
                                                         0.232656       0.216756
                                                         0.074788      -0.026584
                          1       4    4dxz              2.521825       5.210912
                                                         1.453920      -2.120465
                                                         0.614053       0.390909
                                                         0.232656       0.216756
                                                         0.074788      -0.026584
                          1       4    4dy2              2.521825       3.008522
                                                         1.453920      -1.224251
                                                         0.614053       0.225691
                                                         0.232656       0.125144
                                                         0.074788      -0.015348
                          1       4    4dyz              2.521825       5.210912
                                                         1.453920      -2.120465
                                                         0.614053       0.390909
                                                         0.232656       0.216756
                                                         0.074788      -0.026584
                          1       4    4dz2              2.521825       3.008522
                                                         1.453920      -1.224251
                                                         0.614053       0.225691
                                                         0.232656       0.125144
                                                         0.074788      -0.015348

                          1       5    5dx2              2.521825       0.698026
                                                         1.453920      -1.511486
                                                         0.614053      -0.335394
                                                         0.232656      -0.025564
                                                         0.074788      -0.002699
                          1       5    5dxy              2.521825       1.209017
                                                         1.453920      -2.617970
                                                         0.614053      -0.580920
                                                         0.232656      -0.044277
                                                         0.074788      -0.004674
                          1       5    5dxz              2.521825       1.209017
                                                         1.453920      -2.617970
                                                         0.614053      -0.580920
                                                         0.232656      -0.044277
                                                         0.074788      -0.004674
                          1       5    5dy2              2.521825       0.698026
                                                         1.453920      -1.511486
                                                         0.614053      -0.335394
                                                         0.232656      -0.025564
                                                         0.074788      -0.002699
                          1       5    5dyz              2.521825       1.209017
                                                         1.453920      -2.617970
                                                         0.614053      -0.580920
                                                         0.232656      -0.044277
                                                         0.074788      -0.004674
                          1       5    5dz2              2.521825       0.698026
                                                         1.453920      -1.511486
                                                         0.614053      -0.335394
                                                         0.232656      -0.025564
                                                         0.074788      -0.002699

                          1       6    6dx2              2.521825       0.831079
                                                         1.453920      -0.709226
                                                         0.614053      -0.137351
                                                         0.232656       0.068642
                                                         0.074788       0.011745
                          1       6    6dxy              2.521825       1.439472
                                                         1.453920      -1.228415
                                                         0.614053      -0.237899
                                                         0.232656       0.118891
                                                         0.074788       0.020343
                          1       6    6dxz              2.521825       1.439472
                                                         1.453920      -1.228415
                                                         0.614053      -0.237899
                                                         0.232656       0.118891
                                                         0.074788       0.020343
                          1       6    6dy2              2.521825       0.831079
                                                         1.453920      -0.709226
                                                         0.614053      -0.137351
                                                         0.232656       0.068642
                                                         0.074788       0.011745
                          1       6    6dyz              2.521825       1.439472
                                                         1.453920      -1.228415
                                                         0.614053      -0.237899
                                                         0.232656       0.118891
                                                         0.074788       0.020343
                          1       6    6dz2              2.521825       0.831079
                                                         1.453920      -0.709226
                                                         0.614053      -0.137351
                                                         0.232656       0.068642
                                                         0.074788       0.011745

     GTH Potential information for                                   GTH-PBE-q10

       Description:                       Goedecker-Teter-Hutter pseudopotential
                                           Goedecker et al., PRB 54, 1703 (1996)
                                          Hartwigsen et al., PRB 58, 3641 (1998)
                                                      Krack, TCA 114, 145 (2005)

       Gaussian exponent of the core charge distribution:               1.317676
       Electronic configuration (s p d ...):                           1   0   9

       Parameters of the local part of the GTH pseudopotential:

                          rloc        C1          C2          C3          C4
                        0.616000   11.313635

       Parameters of the non-local part of the GTH pseudopotential:

                   l      r(l)      h(i,j,l)

                   0    0.550904    4.733491   -1.784594
                                   -1.784594    2.303901
                   1    0.674138    2.534798   -1.778066
                                   -1.778066    2.103836
                   2    0.457392   -7.264011    2.558665
                                    2.558665   -2.901253

  2. Atomic kind: O                                     Number of atoms:       1

     Orbital Basis Set                                        DZVP-MOLOPT-SR-GTH

       Number of orbital shell sets:                                           1
       Number of orbital shells:                                               5
       Number of primitive Cartesian functions:                                5
       Number of Cartesian basis functions:                                   14
       Number of spherical basis functions:                                   13
       Norm type:                                                              2

       Normalised Cartesian orbitals:

                        Set   Shell   Orbital            Exponent    Coefficient

                          1       1    2s               10.389228       0.396646
                                                         3.849621       0.208811
                                                         1.388401      -0.301641
                                                         0.496955      -0.274061
                                                         0.162492      -0.033677

                          1       2    3s               10.389228       0.303673
                                                         3.849621       0.240943
                                                         1.388401      -0.313066
                                                         0.496955      -0.043055
                                                         0.162492       0.213991

                          1       3    3px              10.389228      -1.530415
                                                         3.849621      -1.371928
                                                         1.388401      -0.761951
                                                         0.496955      -0.253695
                                                         0.162492      -0.035541
                          1       3    3py              10.389228      -1.530415
                                                         3.849621      -1.371928
                                                         1.388401      -0.761951
                                                         0.496955      -0.253695
                                                         0.162492      -0.035541
                          1       3    3pz              10.389228      -1.530415
                                                         3.849621      -1.371928
                                                         1.388401      -0.761951
                                                         0.496955      -0.253695
                                                         0.162492      -0.035541

                          1       4    4px              10.389228      -0.565392
                                                         3.849621      -0.038231
                                                         1.388401      -0.382373
                                                         0.496955       0.179070
                                                         0.162492       0.122714
                          1       4    4py              10.389228      -0.565392
                                                         3.849621      -0.038231
                                                         1.388401      -0.382373
                                                         0.496955       0.179070
                                                         0.162492       0.122714
                          1       4    4pz              10.389228      -0.565392
                                                         3.849621      -0.038231
                                                         1.388401      -0.382373
                                                         0.496955       0.179070
                                                         0.162492       0.122714

                          1       5    4dx2             10.389228       1.867377
                                                         3.849621       0.670994
                                                         1.388401       1.353441
                                                         0.496955       0.273538
                                                         0.162492       0.006620
                          1       5    4dxy             10.389228       3.234392
                                                         3.849621       1.162195
                                                         1.388401       2.344229
                                                         0.496955       0.473781
                                                         0.162492       0.011466
                          1       5    4dxz             10.389228       3.234392
                                                         3.849621       1.162195
                                                         1.388401       2.344229
                                                         0.496955       0.473781
                                                         0.162492       0.011466
                          1       5    4dy2             10.389228       1.867377
                                                         3.849621       0.670994
                                                         1.388401       1.353441
                                                         0.496955       0.273538
                                                         0.162492       0.006620
                          1       5    4dyz             10.389228       3.234392
                                                         3.849621       1.162195
                                                         1.388401       2.344229
                                                         0.496955       0.473781
                                                         0.162492       0.011466
                          1       5    4dz2             10.389228       1.867377
                                                         3.849621       0.670994
                                                         1.388401       1.353441
                                                         0.496955       0.273538
                                                         0.162492       0.006620

     GTH Potential information for                                    GTH-PBE-q6

       Description:                       Goedecker-Teter-Hutter pseudopotential
                                           Goedecker et al., PRB 54, 1703 (1996)
                                          Hartwigsen et al., PRB 58, 3641 (1998)
                                                      Krack, TCA 114, 145 (2005)

       Gaussian exponent of the core charge distribution:               8.360253
       Electronic configuration (s p d ...):                               2   4

       Parameters of the local part of the GTH pseudopotential:

                          rloc        C1          C2          C3          C4
                        0.244554  -16.667215    2.487311

       Parameters of the non-local part of the GTH pseudopotential:

                   l      r(l)      h(i,j,l)

                   0    0.220956   18.337458
                   1    0.211332

  3. Atomic kind: H                                     Number of atoms:       2

     Orbital Basis Set                                        DZVP-MOLOPT-SR-GTH

       Number of orbital shell sets:                                           1
       Number of orbital shells:                                               3
       Number of primitive Cartesian functions:                                5
       Number of Cartesian basis functions:                                    5
       Number of spherical basis functions:                                    5
       Norm type:                                                              2

       Normalised Cartesian orbitals:

                        Set   Shell   Orbital            Exponent    Coefficient

                          1       1    2s               10.068468      -0.133023
                                                         2.680223      -0.177618
                                                         0.791502      -0.258419
                                                         0.239116      -0.107525
                                                         0.082193      -0.014019

                          1       2    3s               10.068468       0.344673
                                                         2.680223       1.819821
                                                         0.791502      -0.999069
                                                         0.239116       0.017430
                                                         0.082193       0.082660

                          1       3    3px              10.068468       0.155326
                                                         2.680223       0.367157
                                                         0.791502       0.311480
                                                         0.239116       0.080105
                                                         0.082193       0.033440
                          1       3    3py              10.068468       0.155326
                                                         2.680223       0.367157
                                                         0.791502       0.311480
                                                         0.239116       0.080105
                                                         0.082193       0.033440
                          1       3    3pz              10.068468       0.155326
                                                         2.680223       0.367157
                                                         0.791502       0.311480
                                                         0.239116       0.080105
                                                         0.082193       0.033440

     GTH Potential information for                                    GTH-PBE-q1

       Description:                       Goedecker-Teter-Hutter pseudopotential
                                           Goedecker et al., PRB 54, 1703 (1996)
                                          Hartwigsen et al., PRB 58, 3641 (1998)
                                                      Krack, TCA 114, 145 (2005)

       Gaussian exponent of the core charge distribution:              12.500000
       Electronic configuration (s p d ...):                                   1

       Parameters of the local part of the GTH pseudopotential:

                          rloc        C1          C2          C3          C4
                        0.200000   -4.178900    0.724463


 MOLECULE KIND INFORMATION


 All atoms are their own molecule, skipping detailed information


 TOTAL NUMBERS AND MAXIMUM NUMBERS

  Total number of            - Atomic kinds:                                   3
                             - Atoms:                                         99
                             - Shell sets:                                    99
                             - Shells:                                       587
                             - Primitive Cartesian functions:                495
                             - Cartesian basis functions:                   2232
                             - Spherical basis functions:                   1943

  Maximum angular momentum of- Orbital basis functions:                        2
                             - Local part of the GTH pseudopotential:          2
                             - Non-local part of the GTH pseudopotential:      4


 MODULE QUICKSTEP:  ATOMIC COORDINATES IN angstrom

  Atom  Kind  Element       X           Y           Z          Z(eff)       Mass

       1     1 Pt  78    1.405728    0.811598   15.000000     10.00     195.0840
       2     1 Pt  78    4.217185    0.811598   15.000000     10.00     195.0840
       3     1 Pt  78    7.028641    0.811598   15.000000     10.00     195.0840
       4     1 Pt  78    9.840098    0.811598   15.000000     10.00     195.0840
       5     1 Pt  78    0.000000    3.246390   15.000000     10.00     195.0840
       6     1 Pt  78    2.811457    3.246390   15.000000     10.00     195.0840
       7     1 Pt  78    5.622913    3.246390   15.000000     10.00     195.0840
       8     1 Pt  78    8.434370    3.246390   15.000000     10.00     195.0840
       9     1 Pt  78    1.405728    5.681183   15.000000     10.00     195.0840
      10     1 Pt  78    4.217185    5.681183   15.000000     10.00     195.0840
      11     1 Pt  78    7.028641    5.681183   15.000000     10.00     195.0840
      12     1 Pt  78    9.840098    5.681183   15.000000     10.00     195.0840
      13     1 Pt  78    0.000000    8.115976   15.000000     10.00     195.0840
      14     1 Pt  78    2.811457    8.115976   15.000000     10.00     195.0840
      15     1 Pt  78    5.622913    8.115976   15.000000     10.00     195.0840
      16     1 Pt  78    8.434370    8.115976   15.000000     10.00     195.0840
      17     1 Pt  78    0.000000    1.623195   17.295545     10.00     195.0840
      18     1 Pt  78    2.811457    1.623195   17.295545     10.00     195.0840
      19     1 Pt  78    5.622913    1.623195   17.295545     10.00     195.0840
      20     1 Pt  78    8.434370    1.623195   17.295545     10.00     195.0840
      21     1 Pt  78    1.405728    4.057988   17.295545     10.00     195.0840
      22     1 Pt  78    4.217185    4.057988   17.295545     10.00     195.0840
      23     1 Pt  78    7.028641    4.057988   17.295545     10.00     195.0840
      24     1 Pt  78    9.840098    4.057988   17.295545     10.00     195.0840
      25     1 Pt  78    0.000000    6.492781   17.295545     10.00     195.0840
      26     1 Pt  78    2.811457    6.492781   17.295545     10.00     195.0840
      27     1 Pt  78    5.622913    6.492781   17.295545     10.00     195.0840
      28     1 Pt  78    8.434370    6.492781   17.295545     10.00     195.0840
      29     1 Pt  78    1.405728    8.927574   17.295545     10.00     195.0840
      30     1 Pt  78    4.217185    8.927574   17.295545     10.00     195.0840
      31     1 Pt  78    7.028641    8.927574   17.295545     10.00     195.0840
      32     1 Pt  78    9.840098    8.927574   17.295545     10.00     195.0840
      33     1 Pt  78    0.000000    0.000000   19.591089     10.00     195.0840
      34     1 Pt  78    2.811457    0.000000   19.591089     10.00     195.0840
      35     1 Pt  78    5.622913    0.000000   19.591089     10.00     195.0840
      36     1 Pt  78    8.434370    0.000000   19.591089     10.00     195.0840
      37     1 Pt  78    1.405728    2.434793   19.591089     10.00     195.0840
      38     1 Pt  78    4.217185    2.434793   19.591089     10.00     195.0840
      39     1 Pt  78    7.028641    2.434793   19.591089     10.00     195.0840
      40     1 Pt  78    9.840098    2.434793   19.591089     10.00     195.0840
      41     1 Pt  78    0.000000    4.869586   19.591089     10.00     195.0840
      42     1 Pt  78    2.811457    4.869586   19.591089     10.00     195.0840
      43     1 Pt  78    5.622913    4.869586   19.591089     10.00     195.0840
      44     1 Pt  78    8.434370    4.869586   19.591089     10.00     195.0840
      45     1 Pt  78    1.405728    7.304378   19.591089     10.00     195.0840
      46     1 Pt  78    4.217185    7.304378   19.591089     10.00     195.0840
      47     1 Pt  78    7.028641    7.304378   19.591089     10.00     195.0840
      48     1 Pt  78    9.840098    7.304378   19.591089     10.00     195.0840
      49     1 Pt  78    1.405728    0.811598   21.886634     10.00     195.0840
      50     1 Pt  78    4.217185    0.811598   21.886634     10.00     195.0840
      51     1 Pt  78    7.028641    0.811598   21.886634     10.00     195.0840
      52     1 Pt  78    9.840098    0.811598   21.886634     10.00     195.0840
      53     1 Pt  78    0.000000    3.246390   21.886634     10.00     195.0840
      54     1 Pt  78    2.811457    3.246390   21.886634     10.00     195.0840
      55     1 Pt  78    5.622913    3.246390   21.886634     10.00     195.0840
      56     1 Pt  78    8.434370    3.246390   21.886634     10.00     195.0840
      57     1 Pt  78    1.405728    5.681183   21.886634     10.00     195.0840
      58     1 Pt  78    4.217185    5.681183   21.886634     10.00     195.0840
      59     1 Pt  78    7.028641    5.681183   21.886634     10.00     195.0840
      60     1 Pt  78    9.840098    5.681183   21.886634     10.00     195.0840
      61     1 Pt  78    0.000000    8.115976   21.886634     10.00     195.0840
      62     1 Pt  78    2.811457    8.115976   21.886634     10.00     195.0840
      63     1 Pt  78    5.622913    8.115976   21.886634     10.00     195.0840
      64     1 Pt  78    8.434370    8.115976   21.886634     10.00     195.0840
      65     1 Pt  78    0.000000    1.623195   24.182179     10.00     195.0840
      66     1 Pt  78    2.811457    1.623195   24.182179     10.00     195.0840
      67     1 Pt  78    5.622913    1.623195   24.182179     10.00     195.0840
      68     1 Pt  78    8.434370    1.623195   24.182179     10.00     195.0840
      69     1 Pt  78    1.405728    4.057988   24.182179     10.00     195.0840
      70     1 Pt  78    4.217185    4.057988   24.182179     10.00     195.0840
      71     1 Pt  78    7.028641    4.057988   24.182179     10.00     195.0840
      72     1 Pt  78    9.840098    4.057988   24.182179     10.00     195.0840
      73     1 Pt  78    0.000000    6.492781   24.182179     10.00     195.0840
      74     1 Pt  78    2.811457    6.492781   24.182179     10.00     195.0840
      75     1 Pt  78    5.622913    6.492781   24.182179     10.00     195.0840
      76     1 Pt  78    8.434370    6.492781   24.182179     10.00     195.0840
      77     1 Pt  78    1.405728    8.927574   24.182179     10.00     195.0840
      78     1 Pt  78    4.217185    8.927574   24.182179     10.00     195.0840
      79     1 Pt  78    7.028641    8.927574   24.182179     10.00     195.0840
      80     1 Pt  78    9.840098    8.927574   24.182179     10.00     195.0840
      81     1 Pt  78    0.000000    0.000000   26.477723     10.00     195.0840
      82     1 Pt  78    2.811457    0.000000   26.477723     10.00     195.0840
      83     1 Pt  78    5.622913    0.000000   26.477723     10.00     195.0840
      84     1 Pt  78    8.434370    0.000000   26.477723     10.00     195.0840
      85     1 Pt  78    1.405728    2.434793   26.477723     10.00     195.0840
      86     1 Pt  78    4.217185    2.434793   26.477723     10.00     195.0840
      87     1 Pt  78    7.028641    2.434793   26.477723     10.00     195.0840
      88     1 Pt  78    9.840098    2.434793   26.477723     10.00     195.0840
      89     1 Pt  78    0.000000    4.869586   26.477723     10.00     195.0840
      90     1 Pt  78    2.811457    4.869586   26.477723     10.00     195.0840
      91     1 Pt  78    5.622913    4.869586   26.477723     10.00     195.0840
      92     1 Pt  78    8.434370    4.869586   26.477723     10.00     195.0840
      93     1 Pt  78    1.405728    7.304378   26.477723     10.00     195.0840
      94     1 Pt  78    4.217185    7.304378   26.477723     10.00     195.0840
      95     1 Pt  78    7.028641    7.304378   26.477723     10.00     195.0840
      96     1 Pt  78    9.840098    7.304378   26.477723     10.00     195.0840
      97     2 O    8    5.622913    4.869586   30.177723      6.00      15.9994
      98     3 H    1    5.622913    5.809381   30.412038      1.00       1.0079
      99     3 H    1    5.622913    4.869585   29.209158      1.00       1.0079




 SCF PARAMETERS         Density guess:                                   RESTART
                        --------------------------------------------------------
                        max_scf:                                             500
                        max_scf_history:                                       0
                        max_diis:                                              4
                        --------------------------------------------------------
                        eps_scf:                                        1.00E-06
                        eps_scf_history:                                0.00E+00
                        eps_diis:                                       1.00E-01
                        eps_eigval:                                     1.00E-05
                        --------------------------------------------------------
                        level_shift [a.u.]:                                 0.00
                        added MOs                                       500    0
                        --------------------------------------------------------
                        Mixing method:                            BROYDEN_MIXING
                                                charge density mixing in g-space
                        --------------------------------------------------------
                        Smear method:                                FERMI_DIRAC
                        Electronic temperature [K]:                        300.0
                        Electronic temperature [a.u.]:                  9.50E-04
                        Accuracy threshold:                             1.00E-10
                        --------------------------------------------------------
                        No outer SCF

 PW_GRID| Information for grid number                                          1
 PW_GRID| Grid distributed over                                    32 processors
 PW_GRID| Real space group dimensions                                    32    1
 PW_GRID| the grid is blocked:                                                NO
 PW_GRID| Cutoff [a.u.]                                                    200.0
 PW_GRID| spherical cutoff:                                                   NO
 PW_GRID|   Bounds   1            -67      67                Points:         135
 PW_GRID|   Bounds   2            -60      59                Points:         120
 PW_GRID|   Bounds   3           -250     249                Points:         500
 PW_GRID| Volume element (a.u.^3)  0.3785E-02     Volume (a.u.^3)     30656.6653
 PW_GRID| Grid span                                                    FULLSPACE
 PW_GRID|   Distribution                         Average         Max         Min
 PW_GRID|   G-Vectors                           253125.0      253125      253125
 PW_GRID|   G-Rays                                1875.0        1875        1875
 PW_GRID|   Real Space Points                   253125.0      300000      240000

 PW_GRID| Information for grid number                                          2
 PW_GRID| Number of the reference grid                                         1
 PW_GRID| Grid distributed over                                    32 processors
 PW_GRID| Real space group dimensions                                    32    1
 PW_GRID| the grid is blocked:                                                NO
 PW_GRID| Cutoff [a.u.]                                                     66.7
 PW_GRID| spherical cutoff:                                                   NO
 PW_GRID|   Bounds   1            -40      39                Points:          80
 PW_GRID|   Bounds   2            -36      35                Points:          72
 PW_GRID|   Bounds   3           -150     149                Points:         300
 PW_GRID| Volume element (a.u.^3)  0.1774E-01     Volume (a.u.^3)     30656.6653
 PW_GRID| Grid span                                                    FULLSPACE
 PW_GRID|   Distribution                         Average         Max         Min
 PW_GRID|   G-Vectors                            54000.0       54640       53520
 PW_GRID|   G-Rays                                 675.0         683         669
 PW_GRID|   Real Space Points                    54000.0       64800       43200

 PW_GRID| Information for grid number                                          3
 PW_GRID| Number of the reference grid                                         1
 PW_GRID| Grid distributed over                                    32 processors
 PW_GRID| Real space group dimensions                                    32    1
 PW_GRID| the grid is blocked:                                                NO
 PW_GRID| Cutoff [a.u.]                                                     22.2
 PW_GRID| spherical cutoff:                                                   NO
 PW_GRID|   Bounds   1            -22      22                Points:          45
 PW_GRID|   Bounds   2            -20      19                Points:          40
 PW_GRID|   Bounds   3            -90      89                Points:         180
 PW_GRID| Volume element (a.u.^3)  0.9462E-01     Volume (a.u.^3)     30656.6653
 PW_GRID| Grid span                                                    FULLSPACE
 PW_GRID|   Distribution                         Average         Max         Min
 PW_GRID|   G-Vectors                            10125.0       10260       10035
 PW_GRID|   G-Rays                                 225.0         228         223
 PW_GRID|   Real Space Points                    10125.0       14400        7200

 PW_GRID| Information for grid number                                          4
 PW_GRID| Number of the reference grid                                         1
 PW_GRID| Grid distributed over                                    32 processors
 PW_GRID| Real space group dimensions                                     4    8
 PW_GRID| the grid is blocked:                                                NO
 PW_GRID| Cutoff [a.u.]                                                      7.4
 PW_GRID| spherical cutoff:                                                   NO
 PW_GRID|   Bounds   1            -13      13                Points:          27
 PW_GRID|   Bounds   2            -12      11                Points:          24
 PW_GRID|   Bounds   3            -50      49                Points:         100
 PW_GRID| Volume element (a.u.^3)  0.4731         Volume (a.u.^3)     30656.6653
 PW_GRID| Grid span                                                    FULLSPACE
 PW_GRID|   Distribution                         Average         Max         Min
 PW_GRID|   G-Vectors                             2025.0        2133        1890
 PW_GRID|   G-Rays                                  75.0          79          70
 PW_GRID|   Real Space Points                     2025.0        2100        1800

 POISSON| Solver                                                        PERIODIC
 POISSON| Periodicity                                                        XYZ

 RS_GRID| Information for grid number                                          1
 RS_GRID|   Bounds   1            -67      67                Points:         135
 RS_GRID|   Bounds   2            -60      59                Points:         120
 RS_GRID|   Bounds   3           -250     249                Points:         500
 RS_GRID| Real space distribution over                                 32 groups
 RS_GRID| Real space distribution along direction                              3
 RS_GRID| Border size                                                         34
 RS_GRID|   Distribution                         Average         Max         Min
 RS_GRID|   Planes                                  83.6          84          83

 RS_GRID| Information for grid number                                          2
 RS_GRID|   Bounds   1            -40      39                Points:          80
 RS_GRID|   Bounds   2            -36      35                Points:          72
 RS_GRID|   Bounds   3           -150     149                Points:         300
 RS_GRID| Real space distribution over                                 32 groups
 RS_GRID| Real space distribution along direction                              3
 RS_GRID| Border size                                                         24
 RS_GRID|   Distribution                         Average         Max         Min
 RS_GRID|   Planes                                  57.4          58          57

 RS_GRID| Information for grid number                                          3
 RS_GRID|   Bounds   1            -22      22                Points:          45
 RS_GRID|   Bounds   2            -20      19                Points:          40
 RS_GRID|   Bounds   3            -90      89                Points:         180
 RS_GRID| Real space fully replicated
 RS_GRID| Group size                                                           1

 RS_GRID| Information for grid number                                          4
 RS_GRID|   Bounds   1            -13      13                Points:          27
 RS_GRID|   Bounds   2            -12      11                Points:          24
 RS_GRID|   Bounds   3            -50      49                Points:         100
 RS_GRID| Real space fully replicated
 RS_GRID| Group size                                                           1

 Number of electrons:                                                        968
 Number of occupied orbitals:                                                484
 Number of molecular orbitals:                                               984

 Number of orbital functions:                                               1943
 Number of independent orbital functions:                                   1943

 Extrapolation method: initial_guess


 SCF WAVEFUNCTION OPTIMIZATION

  Step     Update method      Time    Convergence         Total energy    Change
  ------------------------------------------------------------------------------
     1 NoMix/Diag. 0.30E+00    0.9     0.00021567     -2538.0270660359 -2.54E+03
     2 Broy./Diag. 0.30E+00    1.4     0.00273219     -2538.0593094375 -3.22E-02
     3 Broy./Diag. 0.30E+00    1.4     0.00260150     -2538.0603572355 -1.05E-03
     4 Broy./Diag. 0.30E+00    1.4     0.00018828     -2538.0600864576  2.71E-04
     5 Broy./Diag. 0.30E+00    1.4     0.00009911     -2538.0580226848  2.06E-03
     6 Broy./Diag. 0.30E+00    1.4     0.00002457     -2538.0599158660 -1.89E-03
     7 Broy./Diag. 0.30E+00    1.4     0.00000915     -2538.0594946565  4.21E-04
     8 Broy./Diag. 0.30E+00    1.4     0.00000264     -2538.0595913351 -9.67E-05
     9 Broy./Diag. 0.30E+00    1.4     0.00000183     -2538.0595823309  9.00E-06
    10 Broy./Diag. 0.30E+00    1.4     0.00000111     -2538.0595791454  3.19E-06
    11 Broy./Diag. 0.30E+00    1.4     0.00000118     -2538.0595763083  2.84E-06
    12 Broy./Diag. 0.30E+00    1.4     0.00000019     -2538.0595745987  1.71E-06

  *** SCF run converged in    12 steps ***


  Electronic density on regular grids:       -968.0000000011       -0.0000000011
  Core density on regular grids:              967.9999999998       -0.0000000002
  Total charge density on r-space grids:       -0.0000000013
  Total charge density g-space grids:          -0.0000000013

  Overlap energy of the core charge distribution:               0.00001067490320
  Self energy of the core charge distribution:              -4440.62962420003350
  Core Hamiltonian energy:                                   1439.88471000406707
  Hartree energy:                                             901.52042056390792
  Exchange-correlation energy:                               -436.68694872256947
  Dispersion energy:                                           -2.11563541206344
  Electronic entropic energy:                                  -0.03250750631827
  Fermi energy:                                                 0.00028178302424

  Total energy:                                             -2538.05957459867477

 The electron density is written in cube file format to the file:

 cp2k-ELECTRON_DENSITY-1_0.cube

 !-----------------------------------------------------------------------------!
                     Mulliken Population Analysis

 #  Atom  Element  Kind  Atomic population                           Net charge
       1     Pt       1         10.054116                             -0.054116
       2     Pt       1         10.054273                             -0.054273
       3     Pt       1         10.054273                             -0.054273
       4     Pt       1         10.054114                             -0.054114
       5     Pt       1         10.054177                             -0.054177
       6     Pt       1         10.054181                             -0.054181
       7     Pt       1         10.054106                             -0.054106
       8     Pt       1         10.054180                             -0.054180
       9     Pt       1         10.054263                             -0.054263
      10     Pt       1         10.053964                             -0.053964
      11     Pt       1         10.053964                             -0.053964
      12     Pt       1         10.054260                             -0.054260
      13     Pt       1         10.054150                             -0.054150
      14     Pt       1         10.054093                             -0.054093
      15     Pt       1         10.054341                             -0.054341
      16     Pt       1         10.054092                             -0.054092
      17     Pt       1          9.971997                              0.028003
      18     Pt       1          9.971974                              0.028026
      19     Pt       1          9.971957                              0.028043
      20     Pt       1          9.971972                              0.028028
      21     Pt       1          9.971976                              0.028024
      22     Pt       1          9.972048                              0.027952
      23     Pt       1          9.972048                              0.027952
      24     Pt       1          9.971971                              0.028029
      25     Pt       1          9.972045                              0.027955
      26     Pt       1          9.971965                              0.028035
      27     Pt       1          9.972111                              0.027889
      28     Pt       1          9.971963                              0.028037
      29     Pt       1          9.972008                              0.027992
      30     Pt       1          9.971985                              0.028015
      31     Pt       1          9.971985                              0.028015
      32     Pt       1          9.972004                              0.027996
      33     Pt       1          9.973644                              0.026356
      34     Pt       1          9.973476                              0.026524
      35     Pt       1          9.973255                              0.026745
      36     Pt       1          9.973475                              0.026525
      37     Pt       1          9.973292                              0.026708
      38     Pt       1          9.973454                              0.026546
      39     Pt       1          9.973454                              0.026546
      40     Pt       1          9.973287                              0.026713
      41     Pt       1          9.973341                              0.026659
      42     Pt       1          9.973508                              0.026492
      43     Pt       1          9.973522                              0.026478
      44     Pt       1          9.973507                              0.026493
      45     Pt       1          9.973379                              0.026621
      46     Pt       1          9.973517                              0.026483
      47     Pt       1          9.973517                              0.026483
      48     Pt       1          9.973374                              0.026626
      49     Pt       1          9.973185                              0.026815
      50     Pt       1          9.973617                              0.026383
      51     Pt       1          9.973617                              0.026383
      52     Pt       1          9.973180                              0.026820
      53     Pt       1          9.973407                              0.026593
      54     Pt       1          9.973879                              0.026121
      55     Pt       1          9.973323                              0.026677
      56     Pt       1          9.973878                              0.026122
      57     Pt       1          9.973520                              0.026480
      58     Pt       1          9.973511                              0.026489
      59     Pt       1          9.973512                              0.026488
      60     Pt       1          9.973515                              0.026485
      61     Pt       1          9.973359                              0.026641
      62     Pt       1          9.973385                              0.026615
      63     Pt       1          9.974155                              0.025845
      64     Pt       1          9.973384                              0.026616
      65     Pt       1          9.972357                              0.027643
      66     Pt       1          9.972345                              0.027655
      67     Pt       1          9.972585                              0.027415
      68     Pt       1          9.972344                              0.027656
      69     Pt       1          9.972378                              0.027622
      70     Pt       1          9.971118                              0.028882
      71     Pt       1          9.971118                              0.028882
      72     Pt       1          9.972373                              0.027627
      73     Pt       1          9.972051                              0.027949
      74     Pt       1          9.972723                              0.027277
      75     Pt       1          9.971315                              0.028685
      76     Pt       1          9.972722                              0.027278
      77     Pt       1          9.972061                              0.027939
      78     Pt       1          9.972172                              0.027828
      79     Pt       1          9.972172                              0.027828
      80     Pt       1          9.972056                              0.027944
      81     Pt       1         10.052376                             -0.052376
      82     Pt       1         10.052558                             -0.052558
      83     Pt       1         10.055442                             -0.055442
      84     Pt       1         10.052557                             -0.052557
      85     Pt       1         10.051292                             -0.051292
      86     Pt       1         10.046695                             -0.046695
      87     Pt       1         10.046694                             -0.046694
      88     Pt       1         10.051289                             -0.051289
      89     Pt       1         10.051362                             -0.051362
      90     Pt       1         10.046935                             -0.046935
      91     Pt       1         10.091159                             -0.091159
      92     Pt       1         10.046934                             -0.046934
      93     Pt       1         10.053274                             -0.053274
      94     Pt       1         10.055740                             -0.055740
      95     Pt       1         10.055740                             -0.055740
      96     Pt       1         10.053272                             -0.053272
      97     O        2          6.243419                             -0.243419
      98     H        3          0.877167                              0.122833
      99     H        3          0.892219                              0.107781
 # Total charge                            968.000000                  0.000000

 !-----------------------------------------------------------------------------!

 !-----------------------------------------------------------------------------!
                           Hirshfeld Charges

  #Atom  Element  Kind  Ref Charge     Population                    Net charge
      1       Pt     1      10.000         10.014                        -0.014
      2       Pt     1      10.000         10.015                        -0.015
      3       Pt     1      10.000         10.015                        -0.015
      4       Pt     1      10.000         10.014                        -0.014
      5       Pt     1      10.000         10.014                        -0.014
      6       Pt     1      10.000         10.014                        -0.014
      7       Pt     1      10.000         10.014                        -0.014
      8       Pt     1      10.000         10.014                        -0.014
      9       Pt     1      10.000         10.015                        -0.015
     10       Pt     1      10.000         10.014                        -0.014
     11       Pt     1      10.000         10.014                        -0.014
     12       Pt     1      10.000         10.015                        -0.015
     13       Pt     1      10.000         10.014                        -0.014
     14       Pt     1      10.000         10.014                        -0.014
     15       Pt     1      10.000         10.015                        -0.015
     16       Pt     1      10.000         10.014                        -0.014
     17       Pt     1      10.000          9.987                         0.013
     18       Pt     1      10.000          9.987                         0.013
     19       Pt     1      10.000          9.987                         0.013
     20       Pt     1      10.000          9.987                         0.013
     21       Pt     1      10.000          9.987                         0.013
     22       Pt     1      10.000          9.987                         0.013
     23       Pt     1      10.000          9.987                         0.013
     24       Pt     1      10.000          9.987                         0.013
     25       Pt     1      10.000          9.987                         0.013
     26       Pt     1      10.000          9.987                         0.013
     27       Pt     1      10.000          9.987                         0.013
     28       Pt     1      10.000          9.987                         0.013
     29       Pt     1      10.000          9.987                         0.013
     30       Pt     1      10.000          9.987                         0.013
     31       Pt     1      10.000          9.987                         0.013
     32       Pt     1      10.000          9.987                         0.013
     33       Pt     1      10.000          9.998                         0.002
     34       Pt     1      10.000          9.998                         0.002
     35       Pt     1      10.000          9.998                         0.002
     36       Pt     1      10.000          9.998                         0.002
     37       Pt     1      10.000          9.998                         0.002
     38       Pt     1      10.000          9.998                         0.002
     39       Pt     1      10.000          9.998                         0.002
     40       Pt     1      10.000          9.998                         0.002
     41       Pt     1      10.000          9.998                         0.002
     42       Pt     1      10.000          9.998                         0.002
     43       Pt     1      10.000          9.998                         0.002
     44       Pt     1      10.000          9.998                         0.002
     45       Pt     1      10.000          9.998                         0.002
     46       Pt     1      10.000          9.998                         0.002
     47       Pt     1      10.000          9.998                         0.002
     48       Pt     1      10.000          9.998                         0.002
     49       Pt     1      10.000          9.998                         0.002
     50       Pt     1      10.000          9.998                         0.002
     51       Pt     1      10.000          9.998                         0.002
     52       Pt     1      10.000          9.998                         0.002
     53       Pt     1      10.000          9.998                         0.002
     54       Pt     1      10.000          9.998                         0.002
     55       Pt     1      10.000          9.998                         0.002
     56       Pt     1      10.000          9.998                         0.002
     57       Pt     1      10.000          9.998                         0.002
     58       Pt     1      10.000          9.998                         0.002
     59       Pt     1      10.000          9.998                         0.002
     60       Pt     1      10.000          9.998                         0.002
     61       Pt     1      10.000          9.998                         0.002
     62       Pt     1      10.000          9.998                         0.002
     63       Pt     1      10.000          9.998                         0.002
     64       Pt     1      10.000          9.998                         0.002
     65       Pt     1      10.000          9.987                         0.013
     66       Pt     1      10.000          9.987                         0.013
     67       Pt     1      10.000          9.987                         0.013
     68       Pt     1      10.000          9.987                         0.013
     69       Pt     1      10.000          9.987                         0.013
     70       Pt     1      10.000          9.988                         0.012
     71       Pt     1      10.000          9.988                         0.012
     72       Pt     1      10.000          9.987                         0.013
     73       Pt     1      10.000          9.987                         0.013
     74       Pt     1      10.000          9.987                         0.013
     75       Pt     1      10.000          9.988                         0.012
     76       Pt     1      10.000          9.987                         0.013
     77       Pt     1      10.000          9.987                         0.013
     78       Pt     1      10.000          9.987                         0.013
     79       Pt     1      10.000          9.987                         0.013
     80       Pt     1      10.000          9.987                         0.013
     81       Pt     1      10.000         10.012                        -0.012
     82       Pt     1      10.000         10.012                        -0.012
     83       Pt     1      10.000         10.013                        -0.013
     84       Pt     1      10.000         10.012                        -0.012
     85       Pt     1      10.000         10.011                        -0.011
     86       Pt     1      10.000         10.015                        -0.015
     87       Pt     1      10.000         10.015                        -0.015
     88       Pt     1      10.000         10.011                        -0.011
     89       Pt     1      10.000         10.011                        -0.011
     90       Pt     1      10.000         10.019                        -0.019
     91       Pt     1      10.000         10.145                        -0.145
     92       Pt     1      10.000         10.019                        -0.019
     93       Pt     1      10.000         10.012                        -0.012
     94       Pt     1      10.000         10.031                        -0.031
     95       Pt     1      10.000         10.031                        -0.031
     96       Pt     1      10.000         10.012                        -0.012
     97       O      2       6.000          6.998                        -0.998
     98       H      3       1.000          0.440                         0.560
     99       H      3       1.000          0.428                         0.572

  Total Charge                                                            0.001
 !-----------------------------------------------------------------------------!

 LOCALIZE| The spread relative to a set of orbitals is computed
 LOCALIZE| Orbitals to be localized: All orbitals
 LOCALIZE| If fractional occupation, fully occupied MOs are those 
           within occupation tolerance of       0.00000001
 LOCALIZE| Spread defined by the Berry phase operator 
 LOCALIZE| Optimal unitary transformation generated by Jacobi algorithm

         Restart file not available filename=<cp2k-LOC_HOMO-1_0.wfn>

 LOCALIZATION|    The orbitals to be localized are read from localization restart file.

 LOCALIZATION| Spin    1 The first    438 occupied orbitals are localized,
               with energies from    -0.724713 to    -0.018109 [a.u.].

 LOCALIZATION| Computing localization properties for OCCUPIED ORBITALS. Spin:  1
    Spread Functional     sum_in -w_i ln(|z_in|^2)    sum_in w_i(1-|z_in|^2)
    Initial Spread (Berry) :            153076.2440041295    29747.8648836554
    Localization by iterative distributed Jacobi rotation
                      Iteration            Functional         Tolerance   Time 
                            100        5074.8454551687       0.1373E+02   0.061
                            200        5071.1321133620       0.4129E+01   0.060
                            300        5068.9300368300       0.3440E+01   0.061
                            400        5068.5523091683       0.6921E+01   0.060
                            500        5068.2965894779       0.2177E+01   0.060
                            600        5068.2873660861       0.1533E+00   0.061
                            700        5068.2864693359       0.1262E+00   0.060
                            800        5068.2860075299       0.5992E-01   0.060
                            900        5068.2859247144       0.2017E-01   0.062
    Localization  for spin   1 converged in    962 iterations
    Spread Functional     sum_in -w_i ln(|z_in|^2)    sum_in w_i(1-|z_in|^2)
    Total Spread (Berry) :                5966.5612998597     5068.2859162559

 LOCALIZATION| Write restart file for the localized MOS : cp2k-LOC_HOMO-1_0.wfn


 ENERGY| Total FORCE_EVAL ( QS ) energy (a.u.):            -2538.059573543674560


 ATOMIC FORCES in [a.u.]

 # Atom   Kind   Element          X              Y              Z
      1      1      Pt         -0.00003058    -0.00128124    -0.01262297
      2      1      Pt          0.00003187    -0.00126362    -0.01274737
      3      1      Pt         -0.00003280    -0.00126357    -0.01274734
      4      1      Pt          0.00003048    -0.00128142    -0.01262405
      5      1      Pt          0.00000108    -0.00122325    -0.01272208
      6      1      Pt          0.00006206    -0.00130776    -0.01270847
      7      1      Pt         -0.00000011    -0.00126088    -0.01261514
      8      1      Pt         -0.00006200    -0.00130772    -0.01270878
      9      1      Pt         -0.00005054    -0.00127791    -0.01267887
     10      1      Pt          0.00008906    -0.00123092    -0.01265372
     11      1      Pt         -0.00008999    -0.00123088    -0.01265370
     12      1      Pt          0.00005043    -0.00127808    -0.01267995
     13      1      Pt          0.00000108    -0.00126166    -0.01276145
     14      1      Pt          0.00008270    -0.00125544    -0.01264857
     15      1      Pt         -0.00000011    -0.00124222    -0.01274609
     16      1      Pt         -0.00008264    -0.00125541    -0.01264888
     17      1      Pt          0.00000205    -0.00056827     0.00984208
     18      1      Pt         -0.00000369    -0.00050367     0.00970178
     19      1      Pt          0.00000030    -0.00049979     0.00980533
     20      1      Pt          0.00000278    -0.00050372     0.00970210
     21      1      Pt          0.00000967    -0.00043722     0.00975382
     22      1      Pt         -0.00005208    -0.00051983     0.00975341
     23      1      Pt          0.00005113    -0.00051976     0.00975323
     24      1      Pt         -0.00001015    -0.00043726     0.00975369
     25      1      Pt          0.00000205    -0.00050485     0.00976670
     26      1      Pt         -0.00008088    -0.00047259     0.00980649
     27      1      Pt          0.00000030    -0.00042144     0.00970035
     28      1      Pt          0.00007997    -0.00047264     0.00980681
     29      1      Pt         -0.00002096    -0.00051217     0.00975651
     30      1      Pt          0.00001324    -0.00050114     0.00975325
     31      1      Pt         -0.00001419    -0.00050107     0.00975307
     32      1      Pt          0.00002047    -0.00051220     0.00975638
     33      1      Pt          0.00000217     0.00176427     0.00100229
     34      1      Pt         -0.00000283     0.00174718     0.00102476
     35      1      Pt          0.00000035     0.00177187     0.00105228
     36      1      Pt          0.00000152     0.00174709     0.00102460
     37      1      Pt         -0.00005308     0.00174767     0.00101366
     38      1      Pt         -0.00000836     0.00179278     0.00106255
     39      1      Pt          0.00000750     0.00179293     0.00106273
     40      1      Pt          0.00005277     0.00174781     0.00101373
     41      1      Pt          0.00000217     0.00174405     0.00100509
[...]
     71      1      Pt          0.00007286     0.00045819    -0.00981625
     72      1      Pt         -0.00008216     0.00051624    -0.00973945
     73      1      Pt          0.00000205     0.00054066    -0.00981719
     74      1      Pt          0.00001115     0.00048980    -0.00969969
     75      1      Pt          0.00000030     0.00067513    -0.00978922
     76      1      Pt         -0.00001206     0.00048986    -0.00970001
     77      1      Pt          0.00003069     0.00047093    -0.00971384
     78      1      Pt          0.00000718     0.00043631    -0.00979144
     79      1      Pt         -0.00000813     0.00043623    -0.00979127
     80      1      Pt         -0.00003117     0.00047097    -0.00971371
     81      1      Pt          0.00000108     0.00125956     0.01263724
     82      1      Pt          0.00000647     0.00123040     0.01274514
     83      1      Pt         -0.00000011     0.00117659     0.01254639
     84      1      Pt         -0.00000641     0.00123037     0.01274547
     85      1      Pt         -0.00004879     0.00126464     0.01258846
     86      1      Pt          0.00020385     0.00162262     0.01308248
     87      1      Pt         -0.00020478     0.00162258     0.01308245
     88      1      Pt          0.00004869     0.00126481     0.01258954
     89      1      Pt          0.00000107     0.00124644     0.01263666
     90      1      Pt          0.00035350     0.00131007     0.01321877
     91      1      Pt         -0.00000011     0.00137210     0.01313654
     92      1      Pt         -0.00035343     0.00131003     0.01321908
     93      1      Pt          0.00000270     0.00123087     0.01267216
     94      1      Pt          0.00031069     0.00094311     0.01306630
     95      1      Pt         -0.00031162     0.00094307     0.01306627
     96      1      Pt         -0.00000280     0.00123104     0.01267323
     97      2      O           0.00000899    -0.00129188     0.00673828
     98      3      H          -0.00000000     0.00157084     0.00016480
     99      3      H          -0.00000002    -0.00047104    -0.00792205
 SUM OF ATOMIC FORCES           0.00000905    -0.00009776     0.00174513     0.00174789

 -------------------------------------------------------------------------------
 -                                                                             -
 -                                DBCSR STATISTICS                             -
 -                                                                             -
 -------------------------------------------------------------------------------
 COUNTER                                    TOTAL       BLAS       SMM       ACC
 flops     5 x    24 x     5                 4800       0.0%    100.0%      0.0%
 flops     5 x    24 x    13                 6240       0.0%    100.0%      0.0%
 flops    13 x    24 x     5                 6240       0.0%    100.0%      0.0%
 flops    13 x    24 x    13                 8112       0.0%    100.0%      0.0%
 flops     5 x    22 x     5                26400       0.0%    100.0%      0.0%
 flops     5 x    22 x    13                34320       0.0%    100.0%      0.0%
 flops    13 x    22 x     5                34320       0.0%    100.0%      0.0%
 flops    13 x    22 x    13                44616       0.0%    100.0%      0.0%
 flops     5 x    13 x    96               174720       0.0%    100.0%      0.0%
 flops    13 x     5 x    96               174720       0.0%    100.0%      0.0%
 flops     5 x     5 x    96               201600       0.0%    100.0%      0.0%
 flops     5 x    13 x   120               218400       0.0%    100.0%      0.0%
 flops    13 x     5 x   120               218400       0.0%    100.0%      0.0%
 flops     5 x     5 x   120               252000       0.0%    100.0%      0.0%
 flops    13 x    13 x    96               454272       0.0%    100.0%      0.0%
 flops    13 x    13 x   120               567840       0.0%    100.0%      0.0%
 flops     5 x    32 x     5               691200       0.0%    100.0%      0.0%
 flops     5 x    24 x    20               825600       0.0%    100.0%      0.0%
 flops    20 x    24 x     5               825600       0.0%    100.0%      0.0%
 flops    20 x    24 x    13               836160       0.0%    100.0%      0.0%
 flops    13 x    24 x    20               836160       0.0%    100.0%      0.0%
 flops     5 x    32 x    13               898560       0.0%    100.0%      0.0%
 flops    13 x    32 x     5               898560       0.0%    100.0%      0.0%
 flops    13 x    32 x    13              1168128       0.0%    100.0%      0.0%
 flops     5 x    13 x   128              1397760       0.0%    100.0%      0.0%
 flops    13 x     5 x   128              1397760       0.0%    100.0%      0.0%
 flops     5 x     5 x   128              1612800       0.0%    100.0%      0.0%
 flops    13 x    13 x   128              3634176       0.0%    100.0%      0.0%
 flops     5 x    22 x    20              4540800       0.0%    100.0%      0.0%
 flops    20 x    22 x     5              4540800       0.0%    100.0%      0.0%
 flops    20 x    22 x    13              4598880       0.0%    100.0%      0.0%
 flops    13 x    22 x    20              4598880       0.0%    100.0%      0.0%
 flops    20 x     5 x    96             22848000       0.0%    100.0%      0.0%
 flops    13 x    20 x    96             23063040       0.0%    100.0%      0.0%
 flops     5 x    20 x    96             23385600       0.0%    100.0%      0.0%
 flops    20 x    13 x    96             23761920       0.0%    100.0%      0.0%
 flops    20 x     5 x   120             28560000       0.0%    100.0%      0.0%
 flops    13 x    20 x   120             28828800       0.0%    100.0%      0.0%
 flops     5 x    20 x   120             29232000       0.0%    100.0%      0.0%
 flops    20 x    13 x   120             29702400       0.0%    100.0%      0.0%
 flops    20 x    32 x     5            118886400       0.0%    100.0%      0.0%
 flops     5 x    32 x    20            118886400       0.0%    100.0%      0.0%
 flops    20 x    32 x    13            120407040       0.0%    100.0%      0.0%
 flops    13 x    32 x    20            120407040       0.0%    100.0%      0.0%
 flops    20 x    24 x    20            176947200       0.0%    100.0%      0.0%
 flops    20 x     5 x   128            182784000       0.0%    100.0%      0.0%
 flops    13 x    20 x   128            184504320       0.0%    100.0%      0.0%
 flops     5 x    20 x   128            187084800       0.0%    100.0%      0.0%
 flops    20 x    13 x   128            190095360       0.0%    100.0%      0.0%
 flops    20 x    22 x    20            973209600       0.0%    100.0%      0.0%
 flops    20 x    20 x    96           5006131200       0.0%    100.0%      0.0%
 flops    20 x    20 x   120           6257664000       0.0%    100.0%      0.0%
 flops    20 x    32 x    20          25480396800       0.0%    100.0%      0.0%
 flops    20 x    20 x   128          40049049600       0.0%    100.0%      0.0%
 flops inhomo. stacks                           0       0.0%      0.0%      0.0%
 flops total                        79.411564E+09       0.0%    100.0%      0.0%
 flops max/rank                      2.715182E+09       0.0%    100.0%      0.0%
 matmuls inhomo. stacks                         0       0.0%      0.0%      0.0%
 matmuls total                            1664757       0.0%    100.0%      0.0%
 number of processed stacks                 13331       0.0%    100.0%      0.0%
 average stack size                                     0.0     124.9       0.0
 marketing flops                    82.028618E+09
 -------------------------------------------------------------------------------
 # multiplications                             21
 max memory usage/rank             328.060928E+06
 # max total images/rank                        2
 # max 3D layers                                1
 # MPI messages exchanged                    8736
 MPI messages size (bytes):
  total size                         3.782194E+09
  min size                          61.440000E+03
  max size                         972.872000E+03
  average size                     432.943500E+03
 MPI breakdown and total messages size (bytes):
             size <=      128                   0                        0
       128 < size <=     8192                   0                        0
      8192 < size <=    32768                   0                        0
     32768 < size <=   131072                1152                122548896
    131072 < size <=  4194304                7584               3659645576
   4194304 < size <= 16777216                   0                        0
  16777216 < size                               0                        0
 -------------------------------------------------------------------------------

 *** WARNING in dbcsr_mm.F:295 :: Using a non-square number of MPI ranks ***
 *** might lead to poor performance. Used ranks: 32 Suggested: 36 64     ***

 -------------------------------------------------------------------------------
 -                                                                             -
 -                      DBCSR MESSAGE PASSING PERFORMANCE                      -
 -                                                                             -
 -------------------------------------------------------------------------------
 ROUTINE             CALLS      AVE VOLUME [Bytes]
 MP_Group               21
 MP_Bcast               55                     12.
 MP_Allreduce          244                     17.
 MP_Alltoall           527                 231127.
 MP_Wait              1344
 MP_ISend              672                 190002.
 MP_IRecv              672                 186141.
 MP_Memory            2016
 -------------------------------------------------------------------------------

 MEMORY| Estimated peak process memory [MiB]                                 313

 -------------------------------------------------------------------------------
 ----                             MULTIGRID INFO                            ----
 -------------------------------------------------------------------------------
 count for grid        1:         253204          cutoff [a.u.]          200.00
 count for grid        2:         270006          cutoff [a.u.]           66.67
 count for grid        3:         157969          cutoff [a.u.]           22.22
 count for grid        4:         114072          cutoff [a.u.]            7.41
 total gridlevel count  :         795251

 -------------------------------------------------------------------------------
 -                                                                             -
 -                         MESSAGE PASSING PERFORMANCE                         -
 -                                                                             -
 -------------------------------------------------------------------------------

 ROUTINE             CALLS      AVE VOLUME [Bytes]
 MP_Group                4
 MP_Bcast             2306                 249263.
 MP_Allreduce         2388                   4441.
 MP_Sync                 5
 MP_Alltoall           303                9021783.
 MP_SendRecv         59768                 169380.
 MP_ISendRecv         1612                  66000.
 MP_Wait              3964
 MP_ISend             2128                 186380.
 MP_IRecv             2128                 186380.
 MP_Recv                60                 497408.
 MP_Write_All            3                1119280.
 -------------------------------------------------------------------------------


 -------------------------------------------------------------------------------
 -                                                                             -
 -                           R E F E R E N C E S                               -
 -                                                                             -
 -------------------------------------------------------------------------------
 
 CP2K version 7.1, the CP2K developers group (2019).
 CP2K is freely available from https://www.cp2k.org/ .

 Schuett, Ole; Messmer, Peter; Hutter, Juerg; VandeVondele, Joost. 
 Electronic Structure Calculations on Graphics Processing Units, John
 Wiley & Sons, Ltd, 173-190 (2016). 
 GPU-Accelerated Sparse Matrix-Matrix Multiplication for
 Linear Scaling Density Functional Theory.
 https://dx.doi.org/10.1002/9781118670712.ch8

 Borstnik, U; VandeVondele, J; Weber, V; Hutter, J. 
 PARALLEL COMPUTING, 40 (5-6), 47-58 (2014). 
 Sparse matrix multiplication: The distributed block-compressed sparse
 row library.
 https://dx.doi.org/10.1016/j.parco.2014.03.012

 Hutter, J; Iannuzzi, M; Schiffmann, F; VandeVondele, J. 
 WIREs Comput Mol Sci., 4 (1), 15-25 (2014). 
 CP2K: atomistic simulations of condensed matter systems.
 https://dx.doi.org/10.1002/wcms.1159

 Marek, A; Blum, V; Johanni, R; Havu, V; Lang, B; Auckenthaler, T;
 Heinecke, A; Bungartz, H; Lederer, H. 
 Journal of Physics: Condensed Matter, 26 (21), (2014). 
 The ELPA library: scalable parallel eigenvalue solutions for
 electronic structure
 theory and computational science.
 https://dx.doi.org/10.1088/0953-8984/26/21/213201

 Grimme, S; Ehrlich, S; Goerigk, L. 
 JOURNAL OF COMPUTATIONAL CHEMISTRY, 32, 1456 (2011). 
 Effect of the damping function in dispersion corrected density functional theory.
 https://dx.doi.org/10.1002/jcc.21759

 Grimme, S; Antony, J; Ehrlich, S; Krieg, H. 
 JOURNAL OF CHEMICAL PHYSICS, 132 (15), 154104 (2010). 
 A consistent and accurate ab initio parametrization of density
 functional dispersion correction (DFT-D) for the 94 elements H-Pu.
 https://dx.doi.org/10.1063/1.3382344

 VandeVondele, J; Hutter, J. 
 JOURNAL OF CHEMICAL PHYSICS, 127 (11), 114105 (2007). 
 Gaussian basis sets for accurate calculations on molecular systems in
 gas and condensed phases.
 https://dx.doi.org/10.1063/1.2770708

 Krack, M. 
 THEORETICAL CHEMISTRY ACCOUNTS, 114 (1-3), 145-152 (2005). 
 Pseudopotentials for H to Kr optimized for gradient-corrected
 exchange-correlation functionals.
 https://dx.doi.org/10.1007/s00214-005-0655-y

 VandeVondele, J; Krack, M; Mohamed, F; Parrinello, M; Chassaing, T;
 Hutter, J. COMPUTER PHYSICS COMMUNICATIONS, 167 (2), 103-128 (2005). 
 QUICKSTEP: Fast and accurate density functional calculations using a
 mixed Gaussian and plane waves approach.
 https://dx.doi.org/10.1016/j.cpc.2004.12.014

 Frigo, M; Johnson, SG. 
 PROCEEDINGS OF THE IEEE, 93 (2), 216-231 (2005). 
 The design and implementation of FFTW3.
 https://dx.doi.org/10.1109/JPROC.2004.840301

 Hartwigsen, C; Goedecker, S; Hutter, J. 
 PHYSICAL REVIEW B, 58 (7), 3641-3662 (1998). 
 Relativistic separable dual-space Gaussian pseudopotentials from H to Rn.
 https://dx.doi.org/10.1103/PhysRevB.58.3641

 Lippert, G; Hutter, J; Parrinello, M. 
 MOLECULAR PHYSICS, 92 (3), 477-487 (1997). 
 A hybrid Gaussian and plane wave density functional scheme.
 https://dx.doi.org/10.1080/002689797170220

 Perdew, JP; Burke, K; Ernzerhof, M. 
 PHYSICAL REVIEW LETTERS, 77 (18), 3865-3868 (1996). 
 Generalized gradient approximation made simple.
 https://dx.doi.org/10.1103/PhysRevLett.77.3865

 Goedecker, S; Teter, M; Hutter, J. 
 PHYSICAL REVIEW B, 54 (3), 1703-1710 (1996). 
 Separable dual-space Gaussian pseudopotentials.
 https://dx.doi.org/10.1103/PhysRevB.54.1703


 -------------------------------------------------------------------------------
 -                                                                             -
 -                                T I M I N G                                  -
 -                                                                             -
 -------------------------------------------------------------------------------
 SUBROUTINE                       CALLS  ASD         SELF TIME        TOTAL TIME
                                MAXIMUM       AVERAGE  MAXIMUM  AVERAGE  MAXIMUM
 CP2K                                 1  1.0    0.010    0.019   89.448   89.454
 qs_forces                            1  2.0    0.000    0.000   89.151   89.153
 qs_energies                          1  3.0    0.000    0.000   86.381   86.382
 scf_post_calculation_gpw             1  4.0    0.000    0.000   67.795   67.797
 get_localization_info                1  5.0    0.000    0.000   58.588   58.595
 qs_loc_driver                        1  6.0    0.000    0.000   58.588   58.595
 optimize_loc_berry                   1  7.0    0.017    0.018   58.581   58.583
 jacobi_rot_para                      1  8.0   46.763   50.456   58.489   58.491
 scf_env_do_scf                       1  4.0    0.000    0.000   16.751   16.761
 scf_env_do_scf_inner_loop           12  5.0    0.001    0.002   16.748   16.758
 mp_allgather_d23                 29822  9.0    7.855   11.468    7.855   11.468
 rebuild_ks_matrix                   13  6.8    0.000    0.000   10.015   10.017
 qs_ks_build_kohn_sham_matrix        13  7.8    0.002    0.002   10.014   10.017
 write_available_results              1  5.0    0.000    0.000    9.131    9.143
 write_mo_free_results                1  6.0    0.043    0.089    9.131    9.143
 qs_ks_update_qs_env                 12  6.0    0.000    0.000    9.107    9.109
 pw_to_cube                           3  7.0    0.441    0.567    8.892    8.919
 mp_file_write_all_chv                3  8.0    8.318    8.345    8.318    8.345
 pw_transfer                        260 10.3    0.013    0.015    5.241    5.309
 fft_wrap_pw1pw2                    234 11.3    0.002    0.002    5.172    5.240
 fft_wrap_pw1pw2_200                156 12.3    0.419    0.444    4.984    5.050
 sum_up_and_integrate                13  8.8    0.013    0.015    5.006    5.011
 integrate_v_rspace                  13  9.8    2.303    3.874    4.993    4.999
 qs_rho_update_rho                   13  6.0    0.000    0.000    4.969    4.970
 calculate_rho_elec                  13  7.0    2.130    3.539    4.969    4.970
 qs_vxc_create                       13  8.8    0.000    0.001    4.325    4.353
 xc_vxc_pw_create                    13  9.8    0.048    0.060    4.325    4.353
 fft3d_ps                           234 13.3    2.523    2.760    3.814    3.912
 mp_sendrecv_zm3                  29822  9.0    2.892    3.518    2.892    3.518
 density_rs2pw                       13  8.0    0.001    0.001    2.665    3.298
 rs_pw_transfer                     108 10.3    0.001    0.001    2.403    3.040
 xc_rho_set_and_dset_create          13 10.8    0.018    0.021    2.318    2.459
 rs_pw_transfer_RS2PW_200            15  9.8    0.184    0.250    1.711    2.349
 mp_alltoall_d11v                   253 10.7    1.654    2.315    1.654    2.315
 rs_distribute_matrix                27  9.3    0.023    0.060    1.664    2.304
 mp_waitany                        2128 12.2    1.625    2.292    1.625    2.292
 qs_scf_new_mos                      12  6.0    0.000    0.000    2.052    2.056
 build_core_hamiltonian_matrix_       1  3.0    0.000    0.000    1.721    1.856
 eigensolver                         12  7.0    0.001    0.001    1.809    1.813
 -------------------------------------------------------------------------------

 The number of warnings for this run is : 1
 
 -------------------------------------------------------------------------------
  **** **** ******  **  PROGRAM ENDED AT                 2024-11-01 22:57:25.148
 ***** ** ***  *** **   PROGRAM RAN ON                                   c53-012
 **    ****   ******    PROGRAM RAN BY                                     jxzhu
 ***** **    ** ** **   PROGRAM PROCESS ID                                261687
  **** **  *******  **  PROGRAM STOPPED IN /data/jxzhu/nnp/dp_workdir/d1f764b96e
                                           9a01b62c3e35b0c4f5198f3ba3ed59/calc.0
                                           01/task.000.000006
