 DBCSR| CPU Multiplication driver                                           XSMM
 DBCSR| Multrec recursion limit                                              512
 DBCSR| Multiplication stack size                                           1000
 DBCSR| Maximum elements for images                                    UNLIMITED
 DBCSR| Multiplicative factor virtual images                                   1
 DBCSR| Use multiplication densification                                       T
 DBCSR| Multiplication size stacks                                             3
 DBCSR| Use memory pool for CPU allocation                                     F
 DBCSR| Number of 3D layers                                               SINGLE
 DBCSR| Use MPI memory allocation                                              F
 DBCSR| Use RMA algorithm                                                      F
 DBCSR| Use Communication thread                                               T
 DBCSR| Communication thread load                                             87
 DBCSR| MPI: My node id                                                        0
 DBCSR| MPI: Number of nodes                                                 128
 DBCSR| OMP: Current number of threads                                         1
 DBCSR| OMP: Max number of threads                                             1
 DBCSR| Split modifier for TAS multiplication algorithm                  1.0E+00


  **** **** ******  **  PROGRAM STARTED AT               2024-07-18 02:12:20.578
 ***** ** ***  *** **   PROGRAM STARTED ON                                 cu042
 **    ****   ******    PROGRAM STARTED BY                                 jxzhu
 ***** **    ** ** **   PROGRAM PROCESS ID                                 35779
  **** **  *******  **  PROGRAM STARTED IN /public/home/jxzhu/tmp_calc/f85208eeb
                                           d2c32708b87769b80162e12d9400419/calc/
                                           003000.000/search_lo.000000

 CP2K| version string:                                       CP2K version 2022.1
 CP2K| source code revision number:                                  git:2caeb6f
 CP2K| cp2kflags: omp libint fftw3 libxc elpa parallel mpi3 scalapack cosma xsmm
 CP2K|             plumed2 spglib mkl sirius libvori libbqb
 CP2K| is freely available from                            https://www.cp2k.org/
 CP2K| Program compiled at                           Mon Jul 3 17:37:06 CST 2023
 CP2K| Program compiled on                                                 mu003
 CP2K| Program compiled for                                                local
 CP2K| Data directory path                             /public/home/jxzhu/basis/
 CP2K| Input file name                                                 input.inp
 
 GLOBAL| Force Environment number                                              1
 GLOBAL| Basis set file name                                        BASIS_MOLOPT
 GLOBAL| Potential file name                                      GTH_POTENTIALS
 GLOBAL| MM Potential file name                                     MM_POTENTIAL
 GLOBAL| Coordinate file name                                          coord.xyz
 GLOBAL| Method name                                                        CP2K
 GLOBAL| Project name                                                       cp2k
 GLOBAL| Run type                                                   ENERGY_FORCE
 GLOBAL| FFT library                                                       FFTW3
 GLOBAL| Diagonalization library                                            ELPA
 GLOBAL| Minimum number of eigenvectors for ELPA usage                        16
 GLOBAL| Orthonormality check for eigenvectors                          DISABLED
 GLOBAL| Matrix multiplication library                                     COSMA
 GLOBAL| All-to-all communication in single precision                          F
 GLOBAL| FFTs using library dependent lengths                                  T
 GLOBAL| Grid backend                                                       AUTO
 GLOBAL| Global print level                                               MEDIUM
 GLOBAL| MPI I/O enabled                                                       T
 GLOBAL| Total number of message passing processes                           128
 GLOBAL| Number of threads for this process                                    1
 GLOBAL| This output is from process                                           0
 GLOBAL| Stack size for threads created by OpenMP (OMP_STACKSIZE)        default
 GLOBAL| CPU model name                 Intel(R) Xeon(R) Gold 6338 CPU @ 2.00GHz
 GLOBAL| CPUID                                                              1003

 MEMORY| system memory details [Kb]
 MEMORY|                        rank 0           min           max       average
 MEMORY| MemTotal            263619172     263619172     263619172     263619172
 MEMORY| MemFree             188531516     186375976     188531764     187453957
 MEMORY| Buffers                   572           556           572           564
 MEMORY| Cached                2467360       1742132       2467360       2104746
 MEMORY| Slab                  2193348       1989428       2193348       2091388
 MEMORY| SReclaimable           284704        272108        284704        278406
 MEMORY| MemLikelyFree       191284152     188390772     191284400     189837673


 *** Fundamental physical constants (SI units) ***

 *** Literature: B. J. Mohr and B. N. Taylor,
 ***             CODATA recommended values of the fundamental physical
 ***             constants: 2006, Web Version 5.1
 ***             http://physics.nist.gov/constants

 Speed of light in vacuum [m/s]                             2.99792458000000E+08
 Magnetic constant or permeability of vacuum [N/A**2]       1.25663706143592E-06
 Electric constant or permittivity of vacuum [F/m]          8.85418781762039E-12
 Planck constant (h) [J*s]                                  6.62606896000000E-34
 Planck constant (h-bar) [J*s]                              1.05457162825177E-34
 Elementary charge [C]                                      1.60217648700000E-19
 Electron mass [kg]                                         9.10938215000000E-31
 Electron g factor [ ]                                     -2.00231930436220E+00
 Proton mass [kg]                                           1.67262163700000E-27
 Fine-structure constant                                    7.29735253760000E-03
 Rydberg constant [1/m]                                     1.09737315685270E+07
 Avogadro constant [1/mol]                                  6.02214179000000E+23
 Boltzmann constant [J/K]                                   1.38065040000000E-23
 Atomic mass unit [kg]                                      1.66053878200000E-27
 Bohr radius [m]                                            5.29177208590000E-11

 *** Conversion factors ***

 [u] -> [a.u.]                                              1.82288848426455E+03
 [Angstrom] -> [Bohr] = [a.u.]                              1.88972613288564E+00
 [a.u.] = [Bohr] -> [Angstrom]                              5.29177208590000E-01
 [a.u.] -> [s]                                              2.41888432650478E-17
 [a.u.] -> [fs]                                             2.41888432650478E-02
 [a.u.] -> [J]                                              4.35974393937059E-18
 [a.u.] -> [N]                                              8.23872205491840E-08
 [a.u.] -> [K]                                              3.15774647902944E+05
 [a.u.] -> [kJ/mol]                                         2.62549961709828E+03
 [a.u.] -> [kcal/mol]                                       6.27509468713739E+02
 [a.u.] -> [Pa]                                             2.94210107994716E+13
 [a.u.] -> [bar]                                            2.94210107994716E+08
 [a.u.] -> [atm]                                            2.90362800883016E+08
 [a.u.] -> [eV]                                             2.72113838565563E+01
 [a.u.] -> [Hz]                                             6.57968392072181E+15
 [a.u.] -> [1/cm] (wave numbers)                            2.19474631370540E+05
 [a.u./Bohr**2] -> [1/cm]                                   5.14048714338585E+03
 

 CELL_TOP| Volume [angstrom^3]:                                     17614.982639
 CELL_TOP| Vector a [angstrom    16.869     0.000     0.000   |a| =    16.869000
 CELL_TOP| Vector b [angstrom    -8.434    14.609     0.000   |b| =    16.869015
 CELL_TOP| Vector c [angstrom     0.000     0.000    71.478   |c| =    71.478000
 CELL_TOP| Angle (b,c), alpha [degree]:                                90.000000
 CELL_TOP| Angle (a,c), beta  [degree]:                                90.000000
 CELL_TOP| Angle (a,b), gamma [degree]:                               119.999970
 CELL_TOP| Numerically orthorhombic:                                          NO
 
 GENERATE|  Preliminary Number of Bonds generated:                             0
 GENERATE|  Achieved consistency in connectivity generation.

 CELL| Volume [angstrom^3]:                                         17614.982639
 CELL| Vector a [angstrom]:      16.869     0.000     0.000   |a| =    16.869000
 CELL| Vector b [angstrom]:      -8.434    14.609     0.000   |b| =    16.869015
 CELL| Vector c [angstrom]:       0.000     0.000    71.478   |c| =    71.478000
 CELL| Angle (b,c), alpha [degree]:                                    90.000000
 CELL| Angle (a,c), beta  [degree]:                                    90.000000
 CELL| Angle (a,b), gamma [degree]:                                   119.999970
 CELL| Numerically orthorhombic:                                              NO

 CELL_REF| Volume [angstrom^3]:                                     17614.982639
 CELL_REF| Vector a [angstrom    16.869     0.000     0.000   |a| =    16.869000
 CELL_REF| Vector b [angstrom    -8.434    14.609     0.000   |b| =    16.869015
 CELL_REF| Vector c [angstrom     0.000     0.000    71.478   |c| =    71.478000
 CELL_REF| Angle (b,c), alpha [degree]:                                90.000000
 CELL_REF| Angle (a,c), beta  [degree]:                                90.000000
 CELL_REF| Angle (a,b), gamma [degree]:                               119.999970
 CELL_REF| Numerically orthorhombic:                                          NO

 *******************************************************************************
 *******************************************************************************
 **                                                                           **
 **     #####                         ##              ##                      **
 **    ##   ##            ##          ##              ##                      **
 **   ##     ##                       ##            ######                    **
 **   ##     ##  ##   ##  ##   #####  ##  ##   ####   ##    #####    #####    **
 **   ##     ##  ##   ##  ##  ##      ## ##   ##      ##   ##   ##  ##   ##   **
 **   ##  ## ##  ##   ##  ##  ##      ####     ###    ##   ######   ######    **
 **    ##  ###   ##   ##  ##  ##      ## ##      ##   ##   ##       ##        **
 **     #######   #####   ##   #####  ##  ##  ####    ##    #####   ##        **
 **           ##                                                    ##        **
 **                                                                           **
 **                                                ... make the atoms dance   **
 **                                                                           **
 **            Copyright (C) by CP2K developers group (2000-2022)             **
 **                      J. Chem. Phys. 152, 194103 (2020)                    **
 **                                                                           **
 *******************************************************************************

 DFT| Spin restricted Kohn-Sham (RKS) calculation                            RKS
 DFT| Multiplicity                                                             1
 DFT| Number of spin states                                                    1
 DFT| Charge                                                                   0
 DFT| Self-interaction correction (SIC)                                       NO
 DFT| Cutoffs: density                                              1.000000E-10
 DFT|          gradient                                             1.000000E-10
 DFT|          tau                                                  1.000000E-10
 DFT|          cutoff_smoothing_range                               0.000000E+00
 DFT| XC density smoothing                                                  NONE
 DFT| XC derivatives                                                          PW

 FUNCTIONAL| PBE:
 FUNCTIONAL| J.P.Perdew, K.Burke, M.Ernzerhof, Phys. Rev. Letter, vol. 77, n 18,
 FUNCTIONAL|  pp. 3865-3868, (1996){spin unpolarized}                           

 vdW POTENTIAL|                                                   Pair Potential
 vdW POTENTIAL|          DFT-D3 (Version 3.1)
 vdW POTENTIAL|          Potential Form: S. Grimme et al, JCP 132: 154104 (2010)
 vdW POTENTIAL|          Zero Damping
 vdW POTENTIAL|          Cutoff Radius [Bohr]:                             20.00
 vdW POTENTIAL|          s6 Scaling Factor:                               1.0000
 vdW POTENTIAL|          sr6 Scaling Factor:                              1.2170
 vdW POTENTIAL|          s8 Scaling Factor:                               0.7220
 vdW POTENTIAL|          Cutoff for CN calculation:                   0.1000E-05

 QS| Method:                                                                 GPW
 QS| Density plane wave grid type                        NON-SPHERICAL FULLSPACE
 QS| Number of grid levels:                                                    4
 QS| Density cutoff [a.u.]:                                                200.0
 QS| Multi grid cutoff [a.u.]: 1) grid level                               200.0
 QS|                           2) grid level                                66.7
 QS|                           3) grid level                                22.2
 QS|                           4) grid level                                 7.4
 QS| Grid level progression factor:                                          3.0
 QS| Relative density cutoff [a.u.]:                                        20.0
 QS| Interaction thresholds: eps_pgf_orb:                                3.2E-07
 QS|                         eps_filter_matrix:                          0.0E+00
 QS|                         eps_core_charge:                            1.0E-15
 QS|                         eps_rho_gspace:                             1.0E-13
 QS|                         eps_rho_rspace:                             1.0E-13
 QS|                         eps_gvg_rspace:                             3.2E-07
 QS|                         eps_ppl:                                    1.0E-02
 QS|                         eps_ppnl:                                   3.2E-09


 ATOMIC KIND INFORMATION

  1. Atomic kind: O                                     Number of atoms:      77

     Orbital Basis Set                                        DZVP-MOLOPT-SR-GTH

       Number of orbital shell sets:                                           1
       Number of orbital shells:                                               5
       Number of primitive Cartesian functions:                                5
       Number of Cartesian basis functions:                                   14
       Number of spherical basis functions:                                   13
       Norm type:                                                              2

       Normalised Cartesian orbitals:

                        Set   Shell   Orbital            Exponent    Coefficient

                          1       1    2s               10.389228       0.396646
                                                         3.849621       0.208811
                                                         1.388401      -0.301641
                                                         0.496955      -0.274061
                                                         0.162492      -0.033677

                          1       2    3s               10.389228       0.303673
                                                         3.849621       0.240943
                                                         1.388401      -0.313066
                                                         0.496955      -0.043055
                                                         0.162492       0.213991

                          1       3    3px              10.389228      -1.530415
                                                         3.849621      -1.371928
                                                         1.388401      -0.761951
                                                         0.496955      -0.253695
                                                         0.162492      -0.035541
                          1       3    3py              10.389228      -1.530415
                                                         3.849621      -1.371928
                                                         1.388401      -0.761951
                                                         0.496955      -0.253695
                                                         0.162492      -0.035541
                          1       3    3pz              10.389228      -1.530415
                                                         3.849621      -1.371928
                                                         1.388401      -0.761951
                                                         0.496955      -0.253695
                                                         0.162492      -0.035541

                          1       4    4px              10.389228      -0.565392
                                                         3.849621      -0.038231
                                                         1.388401      -0.382373
                                                         0.496955       0.179070
                                                         0.162492       0.122714
                          1       4    4py              10.389228      -0.565392
                                                         3.849621      -0.038231
                                                         1.388401      -0.382373
                                                         0.496955       0.179070
                                                         0.162492       0.122714
                          1       4    4pz              10.389228      -0.565392
                                                         3.849621      -0.038231
                                                         1.388401      -0.382373
                                                         0.496955       0.179070
                                                         0.162492       0.122714

                          1       5    4dx2             10.389228       1.867377
                                                         3.849621       0.670994
                                                         1.388401       1.353441
                                                         0.496955       0.273538
                                                         0.162492       0.006620
                          1       5    4dxy             10.389228       3.234392
                                                         3.849621       1.162195
                                                         1.388401       2.344229
                                                         0.496955       0.473781
                                                         0.162492       0.011466
                          1       5    4dxz             10.389228       3.234392
                                                         3.849621       1.162195
                                                         1.388401       2.344229
                                                         0.496955       0.473781
                                                         0.162492       0.011466
                          1       5    4dy2             10.389228       1.867377
                                                         3.849621       0.670994
                                                         1.388401       1.353441
                                                         0.496955       0.273538
                                                         0.162492       0.006620
                          1       5    4dyz             10.389228       3.234392
                                                         3.849621       1.162195
                                                         1.388401       2.344229
                                                         0.496955       0.473781
                                                         0.162492       0.011466
                          1       5    4dz2             10.389228       1.867377
                                                         3.849621       0.670994
                                                         1.388401       1.353441
                                                         0.496955       0.273538
                                                         0.162492       0.006620

       Atomic covalent radius [Angstrom]:                                  0.730

       Atomic van der Waals radius [Angstrom]:                             1.520

     GTH Potential information for                                    GTH-PBE-q6

       Description:                       Goedecker-Teter-Hutter pseudopotential
                                           Goedecker et al., PRB 54, 1703 (1996)
                                          Hartwigsen et al., PRB 58, 3641 (1998)
                                                      Krack, TCA 114, 145 (2005)

       Gaussian exponent of the core charge distribution:               8.360253
       Electronic configuration (s p d ...):                               2   4

       Parameters of the local part of the GTH pseudopotential:

                          rloc        C1          C2          C3          C4
                        0.244554  -16.667215    2.487311

       Parameters of the non-local part of the GTH pseudopotential:

                   l      r(l)      h(i,j,l)

                   0    0.220956   18.337458
                   1    0.211332

  2. Atomic kind: H                                     Number of atoms:     154

     Orbital Basis Set                                        DZVP-MOLOPT-SR-GTH

       Number of orbital shell sets:                                           1
       Number of orbital shells:                                               3
       Number of primitive Cartesian functions:                                5
       Number of Cartesian basis functions:                                    5
       Number of spherical basis functions:                                    5
       Norm type:                                                              2

       Normalised Cartesian orbitals:

                        Set   Shell   Orbital            Exponent    Coefficient

                          1       1    2s               10.068468      -0.133023
                                                         2.680223      -0.177618
                                                         0.791502      -0.258419
                                                         0.239116      -0.107525
                                                         0.082193      -0.014019

                          1       2    3s               10.068468       0.344673
                                                         2.680223       1.819821
                                                         0.791502      -0.999069
                                                         0.239116       0.017430
                                                         0.082193       0.082660

                          1       3    3px              10.068468       0.155326
                                                         2.680223       0.367157
                                                         0.791502       0.311480
                                                         0.239116       0.080105
                                                         0.082193       0.033440
                          1       3    3py              10.068468       0.155326
                                                         2.680223       0.367157
                                                         0.791502       0.311480
                                                         0.239116       0.080105
                                                         0.082193       0.033440
                          1       3    3pz              10.068468       0.155326
                                                         2.680223       0.367157
                                                         0.791502       0.311480
                                                         0.239116       0.080105
                                                         0.082193       0.033440

       Atomic covalent radius [Angstrom]:                                  0.320

       Atomic van der Waals radius [Angstrom]:                             1.090

     GTH Potential information for                                    GTH-PBE-q1

       Description:                       Goedecker-Teter-Hutter pseudopotential
                                           Goedecker et al., PRB 54, 1703 (1996)
                                          Hartwigsen et al., PRB 58, 3641 (1998)
                                                      Krack, TCA 114, 145 (2005)

       Gaussian exponent of the core charge distribution:              12.500000
       Electronic configuration (s p d ...):                                   1

       Parameters of the local part of the GTH pseudopotential:

                          rloc        C1          C2          C3          C4
                        0.200000   -4.178900    0.724463

  3. Atomic kind: Pt                                    Number of atoms:     216

     Orbital Basis Set                      DZVP-A5-Q10-323-MOL-T1-DERIVED_SET-1

       Number of orbital shell sets:                                           1
       Number of orbital shells:                                               6
       Number of primitive Cartesian functions:                                5
       Number of Cartesian basis functions:                                   23
       Number of spherical basis functions:                                   20
       Norm type:                                                              2

       Normalised Cartesian orbitals:

                        Set   Shell   Orbital            Exponent    Coefficient

                          1       1    2s                2.521825       0.177473
                                                         1.453920      -0.063399
                                                         0.614053      -0.407089
                                                         0.232656       0.262254
                                                         0.074788       0.047371

                          1       2    3s                2.521825      -0.049056
                                                         1.453920       0.044904
                                                         0.614053      -0.009756
                                                         0.232656      -0.144709
                                                         0.074788       0.144085

                          1       3    3px               2.521825      -0.317572
                                                         1.453920       0.534826
                                                         0.614053      -0.489458
                                                         0.232656       0.245631
                                                         0.074788       0.018221
                          1       3    3py               2.521825      -0.317572
                                                         1.453920       0.534826
                                                         0.614053      -0.489458
                                                         0.232656       0.245631
                                                         0.074788       0.018221
                          1       3    3pz               2.521825      -0.317572
                                                         1.453920       0.534826
                                                         0.614053      -0.489458
                                                         0.232656       0.245631
                                                         0.074788       0.018221

                          1       4    4dx2              2.521825       3.008522
                                                         1.453920      -1.224251
                                                         0.614053       0.225691
                                                         0.232656       0.125144
                                                         0.074788      -0.015348
                          1       4    4dxy              2.521825       5.210912
                                                         1.453920      -2.120465
                                                         0.614053       0.390909
                                                         0.232656       0.216756
                                                         0.074788      -0.026584
                          1       4    4dxz              2.521825       5.210912
                                                         1.453920      -2.120465
                                                         0.614053       0.390909
                                                         0.232656       0.216756
                                                         0.074788      -0.026584
                          1       4    4dy2              2.521825       3.008522
                                                         1.453920      -1.224251
                                                         0.614053       0.225691
                                                         0.232656       0.125144
                                                         0.074788      -0.015348
                          1       4    4dyz              2.521825       5.210912
                                                         1.453920      -2.120465
                                                         0.614053       0.390909
                                                         0.232656       0.216756
                                                         0.074788      -0.026584
                          1       4    4dz2              2.521825       3.008522
                                                         1.453920      -1.224251
                                                         0.614053       0.225691
                                                         0.232656       0.125144
                                                         0.074788      -0.015348

                          1       5    5dx2              2.521825       0.698026
                                                         1.453920      -1.511486
                                                         0.614053      -0.335394
                                                         0.232656      -0.025564
                                                         0.074788      -0.002699
                          1       5    5dxy              2.521825       1.209017
                                                         1.453920      -2.617970
                                                         0.614053      -0.580920
                                                         0.232656      -0.044277
                                                         0.074788      -0.004674
                          1       5    5dxz              2.521825       1.209017
                                                         1.453920      -2.617970
                                                         0.614053      -0.580920
                                                         0.232656      -0.044277
                                                         0.074788      -0.004674
                          1       5    5dy2              2.521825       0.698026
                                                         1.453920      -1.511486
                                                         0.614053      -0.335394
                                                         0.232656      -0.025564
                                                         0.074788      -0.002699
                          1       5    5dyz              2.521825       1.209017
                                                         1.453920      -2.617970
                                                         0.614053      -0.580920
                                                         0.232656      -0.044277
                                                         0.074788      -0.004674
                          1       5    5dz2              2.521825       0.698026
                                                         1.453920      -1.511486
                                                         0.614053      -0.335394
                                                         0.232656      -0.025564
                                                         0.074788      -0.002699

                          1       6    6dx2              2.521825       0.831079
                                                         1.453920      -0.709226
                                                         0.614053      -0.137351
                                                         0.232656       0.068642
                                                         0.074788       0.011745
                          1       6    6dxy              2.521825       1.439472
                                                         1.453920      -1.228415
                                                         0.614053      -0.237899
                                                         0.232656       0.118891
                                                         0.074788       0.020343
                          1       6    6dxz              2.521825       1.439472
                                                         1.453920      -1.228415
                                                         0.614053      -0.237899
                                                         0.232656       0.118891
                                                         0.074788       0.020343
                          1       6    6dy2              2.521825       0.831079
                                                         1.453920      -0.709226
                                                         0.614053      -0.137351
                                                         0.232656       0.068642
                                                         0.074788       0.011745
                          1       6    6dyz              2.521825       1.439472
                                                         1.453920      -1.228415
                                                         0.614053      -0.237899
                                                         0.232656       0.118891
                                                         0.074788       0.020343
                          1       6    6dz2              2.521825       0.831079
                                                         1.453920      -0.709226
                                                         0.614053      -0.137351
                                                         0.232656       0.068642
                                                         0.074788       0.011745

       Atomic covalent radius [Angstrom]:                                  1.300

       Atomic van der Waals radius [Angstrom]:                             1.750

     GTH Potential information for                                   GTH-PBE-q10

       Description:                       Goedecker-Teter-Hutter pseudopotential
                                           Goedecker et al., PRB 54, 1703 (1996)
                                          Hartwigsen et al., PRB 58, 3641 (1998)
                                                      Krack, TCA 114, 145 (2005)

       Gaussian exponent of the core charge distribution:               1.317676
       Electronic configuration (s p d ...):                           1   0   9

       Parameters of the local part of the GTH pseudopotential:

                          rloc        C1          C2          C3          C4
                        0.616000   11.313635

       Parameters of the non-local part of the GTH pseudopotential:

                   l      r(l)      h(i,j,l)

                   0    0.550904    4.733491   -1.784594
                                   -1.784594    2.303901
                   1    0.674138    2.534798   -1.778066
                                   -1.778066    2.103836
                   2    0.457392   -7.264011    2.558665
                                    2.558665   -2.901253


 MOLECULE KIND INFORMATION


 All atoms are their own molecule, skipping detailed information


 TOTAL NUMBERS AND MAXIMUM NUMBERS

  Total number of            - Atomic kinds:                                   3
                             - Atoms:                                        447
                             - Shell sets:                                   447
                             - Shells:                                      2143
                             - Primitive Cartesian functions:               2235
                             - Cartesian basis functions:                   6816
                             - Spherical basis functions:                   6091

  Maximum angular momentum of- Orbital basis functions:                        2
                             - Local part of the GTH pseudopotential:          2
                             - Non-local part of the GTH pseudopotential:      4


 MODULE QUICKSTEP:  ATOMIC COORDINATES IN angstrom

 Atom  Kind  Element       X           Y           Z          Z(eff)       Mass
    1   1 O    8      11.680001    0.590000   32.537999       6.0000     15.9994
    2   2 H    1      11.510000    0.290000   31.567998       1.0000      1.0079
    3   2 H    1      11.530000    1.560000   32.557998       1.0000      1.0079
    4   1 O    8      16.040001    9.530001   35.207998       6.0000     15.9994
    5   2 H    1      15.230001    9.050000   34.957999       1.0000      1.0079
    6   2 H    1      15.840001   10.480001   34.927998       1.0000      1.0079
    7   1 O    8     -11.210001  -24.260002   28.927998       6.0000     15.9994
    8   2 H    1     -10.240001  -24.010000   29.137998       1.0000      1.0079
    9   2 H    1     -11.630001  -23.460003   29.347998       1.0000      1.0079
   10   1 O    8      20.540001   22.840002   32.357998       6.0000     15.9994
   11   2 H    1      20.870001   22.860001   31.447997       1.0000      1.0079
   12   2 H    1      28.440001    9.130000   32.587999       1.0000      1.0079
   13   1 O    8      -1.870000  -53.970001   36.767998       6.0000     15.9994
   14   2 H    1      -2.170000  -53.040005   36.737998       1.0000      1.0079
   15   2 H    1      -0.890000  -54.070000   36.657998       1.0000      1.0079
   16   1 O    8      24.040001    0.740000   33.547998       6.0000     15.9994
   17   2 H    1      23.330002    0.120000   33.777998       1.0000      1.0079
   18   2 H    1      24.910002    0.320000   33.807998       1.0000      1.0079
   19   1 O    8      31.060001  -29.260002   33.137998       6.0000     15.9994
   20   2 H    1      30.110001  -29.150002   32.867998       1.0000      1.0079
   21   2 H    1      48.370003  -29.950001   32.597998       1.0000      1.0079
   22   1 O    8      10.530001   -7.080000   29.947997       6.0000     15.9994
   23   2 H    1      -6.430000   -7.210000   28.957998       1.0000      1.0079
   24   2 H    1      10.910001   -6.120000   30.017998       1.0000      1.0079
   25   1 O    8      -1.390000  -11.360001   32.467998       6.0000     15.9994
   26   2 H    1      -1.340000  -12.310000   32.887998       1.0000      1.0079
   27   2 H    1      -1.810000  -11.490001   31.537999       1.0000      1.0079
   28   1 O    8      13.770000   55.410004   30.187998       6.0000     15.9994
   29   2 H    1      14.300001   54.550003   30.287999       1.0000      1.0079
   30   2 H    1      13.660001   55.470005   29.167998       1.0000      1.0079
   31   1 O    8      37.430004   19.780001   29.827998       6.0000     15.9994
   32   2 H    1      37.000004   19.660000   28.967998       1.0000      1.0079
   33   2 H    1      21.260002   20.510002   29.697998       1.0000      1.0079
   34   1 O    8      -9.580001   16.639999   30.057998       6.0000     15.9994
   35   2 H    1      -8.730000   16.290001   29.637998       1.0000      1.0079
   36   2 H    1      -9.470000   16.600000   31.047998       1.0000      1.0079
   37   1 O    8      41.870003    5.610001   32.997999       6.0000     15.9994
   38   2 H    1      41.530003    4.640000   32.887998       1.0000      1.0079
   39   2 H    1      41.230003    6.180000   32.487998       1.0000      1.0079
   40   1 O    8      25.900002   20.640001   34.117998       6.0000     15.9994
   41   2 H    1      25.830002   20.160000   35.037999       1.0000      1.0079
   42   2 H    1      24.970001   20.990002   33.987998       1.0000      1.0079
   43   1 O    8      -5.860000   -5.850000   36.707998       6.0000     15.9994
   44   2 H    1      -6.740000   -5.300000   36.867998       1.0000      1.0079
   45   2 H    1     -13.570002    9.380000   36.747999       1.0000      1.0079
   46   1 O    8       4.480000   17.210001   29.487998       6.0000     15.9994
   47   2 H    1       4.390000   18.120001   29.717998       1.0000      1.0079
   48   2 H    1       5.440001   16.970001   29.497998       1.0000      1.0079
   49   1 O    8     -28.670002   -7.020000   30.117998       6.0000     15.9994
   50   2 H    1     -27.690001   -7.000000   30.227998       1.0000      1.0079
   51   2 H    1     -28.800001   -6.510000   29.257998       1.0000      1.0079
   52   1 O    8      28.230001  -10.580001   29.947997       6.0000     15.9994
   53   2 H    1      27.480001  -10.200001   30.507998       1.0000      1.0079
   54   2 H    1      28.420002  -10.040001   29.177998       1.0000      1.0079
   55   1 O    8      -1.750000   -5.190001   30.067998       6.0000     15.9994
   56   2 H    1      -1.940000   -5.790000   30.887998       1.0000      1.0079
   57   2 H    1      -2.120000   -5.680000   29.347998       1.0000      1.0079
   58   1 O    8      54.900002   -2.110000   30.037998       6.0000     15.9994
   59   2 H    1      55.810005   -2.150000   29.727998       1.0000      1.0079
   60   2 H    1      55.060001   -2.130000   31.007998       1.0000      1.0079
   61   1 O    8      18.360001   -1.760000   36.577998       6.0000     15.9994
   62   2 H    1      18.100000   -2.130000   37.457998       1.0000      1.0079
   63   2 H    1      19.330002   -1.670000   36.657998       1.0000      1.0079
   64   1 O    8      36.310001   21.470001   35.917998       6.0000     15.9994
   65   2 H    1      36.040001   22.430000   36.017998       1.0000      1.0079
   66   2 H    1      36.330002   21.290001   34.937999       1.0000      1.0079
   67   1 O    8      23.510000  -14.440001   35.997999       6.0000     15.9994
   68   2 H    1      22.920000  -13.760000   35.577998       1.0000      1.0079
   69   2 H    1      23.980000  -14.860001   35.297999       1.0000      1.0079
   70   1 O    8     -21.510000   44.360004   30.207998       6.0000     15.9994
   71   2 H    1     -20.760002   44.970001   30.067998       1.0000      1.0079
   72   2 H    1     -21.250000   43.450005   29.847998       1.0000      1.0079
   73   1 O    8      26.260002   19.160002   36.207999       6.0000     15.9994
   74   2 H    1      26.510000   18.310001   35.647998       1.0000      1.0079
   75   2 H    1      26.960001   19.330002   36.897998       1.0000      1.0079
   76   1 O    8      26.800001    7.150001   29.977998       6.0000     15.9994
   77   2 H    1      26.700001    8.120001   29.727998       1.0000      1.0079
   78   2 H    1      27.750000    7.130001   30.157998       1.0000      1.0079
   79   1 O    8      21.580000   12.750001   35.787998       6.0000     15.9994
   80   2 H    1      13.110001   27.020000   34.907998       1.0000      1.0079
   81   2 H    1      22.280003   13.460001   35.907998       1.0000      1.0079
   82   1 O    8     -26.780003   -0.120000   30.597998       6.0000     15.9994
   83   2 H    1     -25.860003    0.230000   30.407998       1.0000      1.0079
   84   2 H    1     -26.950001    0.160000   31.517999       1.0000      1.0079
   85   1 O    8     -40.430000   32.410004   31.067998       6.0000     15.9994
   86   2 H    1     -40.100002   32.490002   31.997999       1.0000      1.0079
   87   2 H    1     -39.800003   33.010002   30.527998       1.0000      1.0079
   88   1 O    8      14.520000    7.310000   33.667998       6.0000     15.9994
   89   2 H    1      31.130001    7.150001   34.657998       1.0000      1.0079
   90   2 H    1      13.600000    7.590001   33.277998       1.0000      1.0079
   91   1 O    8      19.970001   53.880005   29.117997       6.0000     15.9994
   92   2 H    1      20.410002   54.800003   29.297998       1.0000      1.0079
   93   2 H    1      35.890003   54.170002   29.377998       1.0000      1.0079
   94   1 O    8       9.230001    1.130000   29.787999       6.0000     15.9994
   95   2 H    1       9.820001    1.830000   30.257998       1.0000      1.0079
   96   2 H    1       9.200000    1.230000   28.847998       1.0000      1.0079
   97   1 O    8      25.100002  -15.890001   29.847998       6.0000     15.9994
   98   2 H    1      25.590000  -15.450001   30.577998       1.0000      1.0079
   99   2 H    1      25.440002  -15.700001   28.977998       1.0000      1.0079
  100   1 O    8      19.220001  -21.060001   34.017999       6.0000     15.9994
  101   2 H    1      18.600002  -21.880001   33.917999       1.0000      1.0079
  102   2 H    1      19.190002  -20.920000   35.017999       1.0000      1.0079
  103   1 O    8      13.850001   17.170002   35.927999       6.0000     15.9994
  104   2 H    1      14.640001   16.840002   36.487998       1.0000      1.0079
  105   2 H    1      13.680000   16.440001   35.287999       1.0000      1.0079
  106   1 O    8      30.110001    2.510000   35.507998       6.0000     15.9994
  107   2 H    1      29.680002    3.150000   34.887999       1.0000      1.0079
  108   2 H    1      39.240002   17.800001   35.967998       1.0000      1.0079
  109   1 O    8       0.710000   -0.220000   32.227998       6.0000     15.9994
  110   2 H    1       1.630000    0.100000   32.177999       1.0000      1.0079
  111   2 H    1       0.260000    0.490000   32.637998       1.0000      1.0079
  112   1 O    8      10.010000   16.610001   29.117997       6.0000     15.9994
  113   2 H    1      -6.450000   17.440001   29.557998       1.0000      1.0079
  114   2 H    1      10.660001   15.870001   29.267998       1.0000      1.0079
  115   1 O    8     -17.600000    8.500000   29.947997       6.0000     15.9994
  116   2 H    1     -17.640001    9.030001   29.157998       1.0000      1.0079
  117   2 H    1     -16.720001    8.090000   30.077998       1.0000      1.0079
  118   1 O    8     -14.680000   20.620001   33.177999       6.0000     15.9994
  119   2 H    1     -15.610001   20.400002   32.837999       1.0000      1.0079
  120   2 H    1     -14.240000   21.430000   32.787999       1.0000      1.0079
  121   1 O    8     -15.470000   11.950001   29.477998       6.0000     15.9994
  122   2 H    1     -16.490000   12.010001   29.537998       1.0000      1.0079
  123   2 H    1     -15.020000   12.790001   29.767998       1.0000      1.0079
  124   1 O    8      -4.070000   -7.990000   32.977998       6.0000     15.9994
  125   2 H    1      -4.040000   -8.570001   33.777998       1.0000      1.0079
  126   2 H    1      -4.750000   -7.360001   33.397998       1.0000      1.0079
  127   1 O    8      44.030003  -19.800001   35.667999       6.0000     15.9994
  128   2 H    1      44.100002  -19.450001   34.727998       1.0000      1.0079
  129   2 H    1      43.050003  -19.790001   35.887998       1.0000      1.0079
  130   1 O    8      30.890003   17.060001   29.947997       6.0000     15.9994
  131   2 H    1      30.670002   17.990002   29.757998       1.0000      1.0079
  132   2 H    1      31.720001   16.840002   29.467998       1.0000      1.0079
  133   1 O    8      11.900001    3.500000   33.137998       6.0000     15.9994
  134   2 H    1      11.480000    4.430000   33.207998       1.0000      1.0079
  135   2 H    1      12.720001    3.790000   32.627998       1.0000      1.0079
  136   1 O    8      23.500002    8.210000   32.267998       6.0000     15.9994
  137   2 H    1      23.630001    8.970000   32.907998       1.0000      1.0079
  138   2 H    1      22.670002    7.780001   32.467998       1.0000      1.0079
  139   1 O    8       5.530000   14.450001   29.687998       6.0000     15.9994
  140   2 H    1       6.120000   13.680000   29.747999       1.0000      1.0079
  141   2 H    1       6.280000   15.120001   29.827998       1.0000      1.0079
  142   1 O    8     -17.300001   20.020000   29.767998       6.0000     15.9994
  143   2 H    1     -16.760002   20.800001   29.837998       1.0000      1.0079
  144   2 H    1     -16.750000   19.220001   29.917999       1.0000      1.0079
  145   1 O    8      -2.380000  -24.680002   32.477998       6.0000     15.9994
  146   2 H    1      -2.320000  -23.800001   32.947998       1.0000      1.0079
  147   2 H    1      -2.160000  -24.530001   31.527997       1.0000      1.0079
  148   1 O    8      13.810000   36.220001   36.287999       6.0000     15.9994
  149   2 H    1      21.210001   21.639999   36.277998       1.0000      1.0079
  150   2 H    1      14.230001   36.860001   36.937998       1.0000      1.0079
  151   1 O    8      21.300001   -2.580000   32.737998       6.0000     15.9994
  152   2 H    1      22.080002   -3.260000   32.707998       1.0000      1.0079
  153   2 H    1      21.610001   -1.780000   33.237998       1.0000      1.0079
  154   1 O    8      24.410002   26.760002   34.157998       6.0000     15.9994
  155   2 H    1      25.330002   26.990002   33.927998       1.0000      1.0079
  156   2 H    1      24.280003   27.360001   34.887999       1.0000      1.0079
  157   1 O    8      32.750000    2.040000   32.627998       6.0000     15.9994
  158   2 H    1      31.930000    1.490000   32.867998       1.0000      1.0079
  159   2 H    1      32.470001    2.940000   32.857998       1.0000      1.0079
  160   1 O    8       6.990001  -22.590000   35.417999       6.0000     15.9994
  161   2 H    1       6.050000  -23.020000   35.357998       1.0000      1.0079
  162   2 H    1       7.440000  -22.740002   34.567998       1.0000      1.0079
  163   1 O    8      18.040001   13.980001   34.147998       6.0000     15.9994
  164   2 H    1      18.890001   14.180001   33.707999       1.0000      1.0079
  165   2 H    1      18.180000   14.330001   35.077998       1.0000      1.0079
  166   1 O    8     -12.010001  -29.660000   34.297999       6.0000     15.9994
  167   2 H    1     -12.110001  -30.020000   35.217999       1.0000      1.0079
  168   2 H    1     -12.790001  -29.030001   34.077998       1.0000      1.0079
  169   1 O    8      18.670002    2.210000   35.387998       6.0000     15.9994
  170   2 H    1      18.810001    1.760000   34.527998       1.0000      1.0079
  171   2 H    1      18.260000    1.610000   35.987998       1.0000      1.0079
  172   1 O    8      19.290001   43.080002   36.857997       6.0000     15.9994
  173   2 H    1      20.060001   42.720001   36.407998       1.0000      1.0079
  174   2 H    1      19.590000   43.990002   37.027998       1.0000      1.0079
  175   1 O    8      24.120003   28.290003   36.477998       6.0000     15.9994
  176   2 H    1      24.200001   29.220001   36.887998       1.0000      1.0079
  177   2 H    1      23.140001   28.070002   36.647998       1.0000      1.0079
  178   1 O    8      -1.100000   23.810001   36.187999       6.0000     15.9994
  179   2 H    1      -1.350000   24.139999   35.347999       1.0000      1.0079
  180   2 H    1      -1.260000   22.810001   36.097998       1.0000      1.0079
  181   1 O    8      18.590000   10.540000   32.677998       6.0000     15.9994
  182   2 H    1      18.920000   10.420000   31.787998       1.0000      1.0079
  183   2 H    1      18.630001    9.640000   33.097999       1.0000      1.0079
  184   1 O    8       7.320001   -2.550000   29.907997       6.0000     15.9994
  185   2 H    1       7.150001   -3.180000   30.627998       1.0000      1.0079
  186   2 H    1       7.070000   -1.640000   30.347998       1.0000      1.0079
  187   1 O    8       2.850000    9.890000   30.207998       6.0000     15.9994
  188   2 H    1       2.290000   10.520000   29.627998       1.0000      1.0079
  189   2 H    1       3.720000   10.250001   29.997998       1.0000      1.0079
  190   1 O    8     -26.560001   19.740002   29.867997       6.0000     15.9994
  191   2 H    1     -25.880001   19.020000   29.747999       1.0000      1.0079
  192   2 H    1     -27.110003   19.640001   29.067998       1.0000      1.0079
  193   1 O    8       0.870000    5.080000   31.417999       6.0000     15.9994
  194   2 H    1       1.150000    5.920000   30.987998       1.0000      1.0079
  195   2 H    1       0.900000    5.300000   32.397998       1.0000      1.0079
  196   1 O    8      11.610001  -13.590001   32.677998       6.0000     15.9994
  197   2 H    1      11.940001  -12.670001   32.767999       1.0000      1.0079
  198   2 H    1      12.030001  -13.840000   31.787998       1.0000      1.0079
  199   1 O    8      25.180000   12.900001   34.427999       6.0000     15.9994
  200   2 H    1      25.670002   13.270000   33.647998       1.0000      1.0079
  201   2 H    1      25.900002   12.740001   35.057998       1.0000      1.0079
  202   1 O    8      -7.680000   10.610001   30.117998       6.0000     15.9994
  203   2 H    1      -8.470000   10.000000   30.137998       1.0000      1.0079
  204   2 H    1      -8.040000   11.530000   29.947997       1.0000      1.0079
  205   1 O    8     -20.710001   13.250000   36.837998       6.0000     15.9994
  206   2 H    1     -21.150000   13.840000   37.517999       1.0000      1.0079
  207   2 H    1     -20.930002   12.300000   37.097999       1.0000      1.0079
  208   1 O    8      15.130001  -18.880001   31.907997       6.0000     15.9994
  209   2 H    1      15.920001  -18.840000   32.547998       1.0000      1.0079
  210   2 H    1      15.190001  -19.760000   31.487998       1.0000      1.0079
  211   1 O    8      23.810001   10.559999   33.877998       6.0000     15.9994
  212   2 H    1      24.350002   11.350001   34.087999       1.0000      1.0079
  213   2 H    1      22.910002   10.780001   33.547998       1.0000      1.0079
  214   1 O    8      -3.770000   19.930002   35.387998       6.0000     15.9994
  215   2 H    1      -3.680000   18.910000   35.517998       1.0000      1.0079
  216   2 H    1      -4.300000   20.180000   36.227998       1.0000      1.0079
  217   1 O    8      20.970001    3.470000   32.757998       6.0000     15.9994
  218   2 H    1      20.740002    3.950000   31.977998       1.0000      1.0079
  219   2 H    1      21.920002    3.660000   32.877998       1.0000      1.0079
  220   1 O    8      -3.840000   26.100002   32.957998       6.0000     15.9994
  221   2 H    1      13.270000   26.310001   31.987998       1.0000      1.0079
  222   2 H    1      12.010001   25.750000   32.887998       1.0000      1.0079
  223   1 O    8      52.810001   -4.210001   32.917999       6.0000     15.9994
  224   2 H    1      53.460003   -3.500000   32.947998       1.0000      1.0079
  225   2 H    1      52.380005   -4.070000   32.057998       1.0000      1.0079
  226   1 O    8     -20.760002  -36.980003   30.307998       6.0000     15.9994
  227   2 H    1     -21.670000  -36.740002   29.917999       1.0000      1.0079
  228   2 H    1     -21.070002  -37.160000   31.247998       1.0000      1.0079
  229   1 O    8      -5.630000   28.610001   30.187998       6.0000     15.9994
  230   2 H    1      -4.800000   28.730001   29.597998       1.0000      1.0079
  231   2 H    1      -6.330000   29.250002   29.937998       1.0000      1.0079
  232   3 Pt  78       1.470000    0.680000   15.160000      10.0000    195.0840
  233   3 Pt  78       4.390000    0.780000   15.269997      10.0000    195.0840
  234   3 Pt  78       7.130001    0.790000   15.369999      10.0000    195.0840
  235   3 Pt  78      10.080000    0.740000   15.279999      10.0000    195.0840
  236   3 Pt  78      12.760000    0.670000   15.279999      10.0000    195.0840
  237   3 Pt  78      15.510001    0.760000   15.220001      10.0000    195.0840
  238   3 Pt  78       2.850000    3.030000   15.169998      10.0000    195.0840
  239   3 Pt  78       5.660000    3.160000   15.129997      10.0000    195.0840
  240   3 Pt  78       8.490001    3.130000   15.220001      10.0000    195.0840
  241   3 Pt  78      11.310000    3.210000   15.189999      10.0000    195.0840
  242   3 Pt  78      14.210001    3.090000   15.320000      10.0000    195.0840
  243   3 Pt  78       0.110000    3.010000   15.320000      10.0000    195.0840
  244   3 Pt  78       4.310000    5.600000   15.299999      10.0000    195.0840
  245   3 Pt  78       7.070000    5.500000   15.450001      10.0000    195.0840
  246   3 Pt  78       9.990001    5.490000   15.230000      10.0000    195.0840
  247   3 Pt  78      12.850000    5.600000   15.419998      10.0000    195.0840
  248   3 Pt  78      -1.300000    5.580000   15.259998      10.0000    195.0840
  249   3 Pt  78       1.540000    5.600000   15.369999      10.0000    195.0840
  250   3 Pt  78       5.720000    7.990000   15.259998      10.0000    195.0840
  251   3 Pt  78       8.640000    8.020000   15.250000      10.0000    195.0840
  252   3 Pt  78      11.310000    8.000000   15.139999      10.0000    195.0840
  253   3 Pt  78      -2.700000    8.110001   15.189999      10.0000    195.0840
  254   3 Pt  78       0.080000    8.150001   15.209999      10.0000    195.0840
  255   3 Pt  78       2.960000    8.080000   15.250000      10.0000    195.0840
  256   3 Pt  78       7.160000   10.530001   15.150002      10.0000    195.0840
  257   3 Pt  78       9.930000   10.430001   15.059998      10.0000    195.0840
  258   3 Pt  78      -4.140000   10.559999   15.139999      10.0000    195.0840
  259   3 Pt  78      -1.380000   10.480001   15.000000      10.0000    195.0840
  260   3 Pt  78       1.560000   10.430001   15.209999      10.0000    195.0840
  261   3 Pt  78       4.410000   10.450001   15.310001      10.0000    195.0840
  262   3 Pt  78       8.530001   12.880001   15.299999      10.0000    195.0840
  263   3 Pt  78      -5.440001   13.070001   15.250000      10.0000    195.0840
  264   3 Pt  78      -2.650000   12.920000   15.239998      10.0000    195.0840
  265   3 Pt  78       0.200000   13.000001   15.299999      10.0000    195.0840
  266   3 Pt  78       3.040000   12.860001   15.189999      10.0000    195.0840
  267   3 Pt  78       5.800000   12.920000   15.230000      10.0000    195.0840
  268   3 Pt  78       0.080000    1.540000   17.730000      10.0000    195.0840
  269   3 Pt  78       3.010000    1.500000   17.609997      10.0000    195.0840
  270   3 Pt  78       5.850000    1.630000   17.580002      10.0000    195.0840
  271   3 Pt  78       8.600000    1.430000   17.680000      10.0000    195.0840
  272   3 Pt  78      11.540001    1.510000   17.619999      10.0000    195.0840
  273   3 Pt  78      14.280001    1.440000   17.639999      10.0000    195.0840
  274   3 Pt  78       1.640000    4.000000   17.570000      10.0000    195.0840
  275   3 Pt  78       4.530000    3.860000   17.500000      10.0000    195.0840
  276   3 Pt  78       7.370000    3.900000   17.739998      10.0000    195.0840
  277   3 Pt  78      10.130000    3.880000   17.660000      10.0000    195.0840
  278   3 Pt  78      12.860001    3.880000   17.739998      10.0000    195.0840
  279   3 Pt  78      -1.190000    4.030000   17.650002      10.0000    195.0840
  280   3 Pt  78       2.970000    6.420000   17.509998      10.0000    195.0840
  281   3 Pt  78       5.720000    6.430000   17.650002      10.0000    195.0840
  282   3 Pt  78       8.620001    6.240000   17.609997      10.0000    195.0840
  283   3 Pt  78      11.390000    6.380000   17.549999      10.0000    195.0840
  284   3 Pt  78      -2.570000    6.510000   17.660000      10.0000    195.0840
  285   3 Pt  78       0.190000    6.470000   17.559998      10.0000    195.0840
  286   3 Pt  78       4.360000    8.900001   17.629997      10.0000    195.0840
  287   3 Pt  78       7.200000    8.830000   17.580002      10.0000    195.0840
  288   3 Pt  78      10.030001    8.740000   17.500000      10.0000    195.0840
  289   3 Pt  78      -4.070000    8.830000   17.590000      10.0000    195.0840
  290   3 Pt  78      -1.160000    8.880001   17.500000      10.0000    195.0840
  291   3 Pt  78       1.610000    8.920000   17.599998      10.0000    195.0840
  292   3 Pt  78       5.740000   11.320001   17.629997      10.0000    195.0840
  293   3 Pt  78       8.610001   11.250000   17.529999      10.0000    195.0840
  294   3 Pt  78      -5.480001   11.240001   17.469997      10.0000    195.0840
  295   3 Pt  78      -2.620000   11.240001   17.509998      10.0000    195.0840
  296   3 Pt  78       0.200000   11.430000   17.549999      10.0000    195.0840
  297   3 Pt  78       2.920000   11.400002   17.599998      10.0000    195.0840
  298   3 Pt  78       7.180000   13.600000   17.599998      10.0000    195.0840
  299   3 Pt  78      -6.890000   13.690001   17.629997      10.0000    195.0840
  300   3 Pt  78      -4.160000   13.770000   17.590000      10.0000    195.0840
  301   3 Pt  78      -1.320000   13.740001   17.599998      10.0000    195.0840
  302   3 Pt  78       1.570000   13.780001   17.619999      10.0000    195.0840
  303   3 Pt  78       4.420000   13.700001   17.619999      10.0000    195.0840
  304   3 Pt  78      -8.290001   14.480001   19.849998      10.0000    195.0840
  305   3 Pt  78      -5.460000   14.510001   19.799999      10.0000    195.0840
  306   3 Pt  78      -2.550000   14.440001   19.860001      10.0000    195.0840
  307   3 Pt  78       0.110000   14.410001   20.000000      10.0000    195.0840
  308   3 Pt  78       2.970000   14.460001   19.939999      10.0000    195.0840
  309   3 Pt  78       5.830000   14.520000   20.049999      10.0000    195.0840
  310   3 Pt  78       1.630000    2.420000   19.869999      10.0000    195.0840
  311   3 Pt  78       4.440001    2.400000   19.910000      10.0000    195.0840
  312   3 Pt  78       7.210000    2.330000   20.030003      10.0000    195.0840
  313   3 Pt  78       9.980000    2.150000   19.939999      10.0000    195.0840
  314   3 Pt  78      12.870001    2.250000   19.970001      10.0000    195.0840
  315   3 Pt  78      -1.200000    2.330000   19.910000      10.0000    195.0840
  316   3 Pt  78       3.090000    4.840000   19.840000      10.0000    195.0840
  317   3 Pt  78       5.880000    4.830000   19.900002      10.0000    195.0840
  318   3 Pt  78       8.740000    4.770000   19.959999      10.0000    195.0840
  319   3 Pt  78      11.430000    4.730000   19.980000      10.0000    195.0840
  320   3 Pt  78      -2.690000    4.780000   19.939999      10.0000    195.0840
  321   3 Pt  78       0.250000    4.830000   19.910000      10.0000    195.0840
  322   3 Pt  78       4.440001    7.240000   19.919998      10.0000    195.0840
  323   3 Pt  78       7.200000    7.220001   19.830002      10.0000    195.0840
  324   3 Pt  78       9.970000    7.330000   19.840000      10.0000    195.0840
  325   3 Pt  78      -4.120000    7.220001   19.919998      10.0000    195.0840
  326   3 Pt  78      -1.140000    7.190001   19.980000      10.0000    195.0840
  327   3 Pt  78       1.680000    7.260000   19.900002      10.0000    195.0840
  328   3 Pt  78       5.810000    9.670001   19.860001      10.0000    195.0840
  329   3 Pt  78       8.580000    9.680000   19.790001      10.0000    195.0840
  330   3 Pt  78      -5.390000    9.670001   19.779999      10.0000    195.0840
  331   3 Pt  78      -2.600000    9.570000   19.759998      10.0000    195.0840
  332   3 Pt  78       0.250000    9.530001   19.900002      10.0000    195.0840
  333   3 Pt  78       3.000000    9.670001   19.980000      10.0000    195.0840
  334   3 Pt  78       7.220001   12.060001   19.939999      10.0000    195.0840
  335   3 Pt  78      -6.900001   12.090001   19.809998      10.0000    195.0840
  336   3 Pt  78      -4.030000   12.040001   19.860001      10.0000    195.0840
  337   3 Pt  78      -1.230000   11.970000   19.860001      10.0000    195.0840
  338   3 Pt  78       1.500000   12.090001   20.030003      10.0000    195.0840
  339   3 Pt  78       4.350000   12.190001   19.939999      10.0000    195.0840
  340   3 Pt  78       1.600000    0.670000   22.097998      10.0000    195.0840
  341   3 Pt  78       4.420000    0.660000   22.057998      10.0000    195.0840
  342   3 Pt  78       7.190001    0.700000   22.257998      10.0000    195.0840
  343   3 Pt  78       9.900001    0.710000   22.287998      10.0000    195.0840
  344   3 Pt  78      12.760000    0.680000   22.257998      10.0000    195.0840
  345   3 Pt  78      15.540000    0.740000   22.227998      10.0000    195.0840
  346   3 Pt  78       2.960000    3.060000   22.247998      10.0000    195.0840
  347   3 Pt  78       5.730000    3.150000   22.257998      10.0000    195.0840
  348   3 Pt  78       8.560000    3.240000   22.257998      10.0000    195.0840
  349   3 Pt  78      11.360001    3.090000   22.267998      10.0000    195.0840
  350   3 Pt  78      14.210001    3.110000   22.307998      10.0000    195.0840
  351   3 Pt  78       0.210000    3.070000   22.197998      10.0000    195.0840
  352   3 Pt  78       4.330000    5.650000   22.207998      10.0000    195.0840
  353   3 Pt  78       7.120000    5.660000   22.177998      10.0000    195.0840
  354   3 Pt  78       9.930000    5.580000   22.217998      10.0000    195.0840
  355   3 Pt  78      12.720001    5.470000   22.197998      10.0000    195.0840
  356   3 Pt  78      -1.220000    5.490000   22.217998      10.0000    195.0840
  357   3 Pt  78       1.650000    5.440001   22.097998      10.0000    195.0840
  358   3 Pt  78       5.810000    8.070001   22.247998      10.0000    195.0840
  359   3 Pt  78       8.570001    8.070001   22.187998      10.0000    195.0840
  360   3 Pt  78      11.380000    7.970000   22.267998      10.0000    195.0840
  361   3 Pt  78      -2.670000    7.950000   22.237998      10.0000    195.0840
  362   3 Pt  78       0.210000    7.970000   22.207998      10.0000    195.0840
  363   3 Pt  78       3.020000    8.000000   22.227998      10.0000    195.0840
  364   3 Pt  78       7.260000   10.559999   22.147998      10.0000    195.0840
  365   3 Pt  78      10.000000   10.440001   22.097998      10.0000    195.0840
  366   3 Pt  78      -4.000000   10.430001   22.137998      10.0000    195.0840
  367   3 Pt  78      -1.220000   10.380001   22.237998      10.0000    195.0840
  368   3 Pt  78       1.510000   10.440001   22.337998      10.0000    195.0840
  369   3 Pt  78       4.400000   10.500001   22.217998      10.0000    195.0840
  370   3 Pt  78       8.570001   12.930001   22.217998      10.0000    195.0840
  371   3 Pt  78      -5.480001   12.780001   21.997998      10.0000    195.0840
  372   3 Pt  78      -2.660000   12.830001   22.247998      10.0000    195.0840
  373   3 Pt  78       0.100000   12.800001   22.297998      10.0000    195.0840
  374   3 Pt  78       2.860000   12.880001   22.387998      10.0000    195.0840
  375   3 Pt  78       5.710001   12.850000   22.327998      10.0000    195.0840
  376   3 Pt  78       0.180000    1.410000   24.597998      10.0000    195.0840
  377   3 Pt  78       2.900000    1.550000   24.427998      10.0000    195.0840
  378   3 Pt  78       5.670000    1.600000   24.627998      10.0000    195.0840
  379   3 Pt  78       8.350000    1.610000   24.557998      10.0000    195.0840
  380   3 Pt  78      11.290001    1.570000   24.537998      10.0000    195.0840
  381   3 Pt  78      14.220000    1.500000   24.707998      10.0000    195.0840
  382   3 Pt  78       1.460000    3.880000   24.487998      10.0000    195.0840
  383   3 Pt  78       4.330000    4.070000   24.437998      10.0000    195.0840
  384   3 Pt  78       7.060000    4.020000   24.477998      10.0000    195.0840
  385   3 Pt  78       9.840000    3.930000   24.557998      10.0000    195.0840
  386   3 Pt  78      12.780001    3.910000   24.597998      10.0000    195.0840
  387   3 Pt  78      -1.300000    3.930000   24.517998      10.0000    195.0840
  388   3 Pt  78       2.940000    6.410000   24.517998      10.0000    195.0840
  389   3 Pt  78       5.750000    6.560000   24.567998      10.0000    195.0840
  390   3 Pt  78       8.520000    6.500000   24.507998      10.0000    195.0840
  391   3 Pt  78      11.370001    6.230001   24.467998      10.0000    195.0840
  392   3 Pt  78      -2.780000    6.380000   24.427998      10.0000    195.0840
  393   3 Pt  78       0.170000    6.330000   24.507998      10.0000    195.0840
  394   3 Pt  78       4.340000    8.940001   24.507998      10.0000    195.0840
  395   3 Pt  78       7.260000    8.990001   24.497998      10.0000    195.0840
  396   3 Pt  78      10.110001    8.910000   24.567998      10.0000    195.0840
  397   3 Pt  78      -4.030000    8.930000   24.577998      10.0000    195.0840
  398   3 Pt  78      -1.200000    8.890000   24.447998      10.0000    195.0840
  399   3 Pt  78       1.540000    8.900001   24.507998      10.0000    195.0840
  400   3 Pt  78       5.680000   11.350001   24.607998      10.0000    195.0840
  401   3 Pt  78       8.590000   11.410000   24.467998      10.0000    195.0840
  402   3 Pt  78      -5.500000   11.330000   24.437998      10.0000    195.0840
  403   3 Pt  78      -2.710000   11.350001   24.517998      10.0000    195.0840
  404   3 Pt  78       0.070000   11.320001   24.667998      10.0000    195.0840
  405   3 Pt  78       2.970000   11.270000   24.627998      10.0000    195.0840
  406   3 Pt  78       7.140000   13.730000   24.587998      10.0000    195.0840
  407   3 Pt  78      -6.850000   13.750001   24.387998      10.0000    195.0840
  408   3 Pt  78      -4.080000   13.770000   24.397998      10.0000    195.0840
  409   3 Pt  78      -1.360000   13.670001   24.587998      10.0000    195.0840
  410   3 Pt  78       1.410000   13.680000   24.557998      10.0000    195.0840
  411   3 Pt  78       4.300000   13.780001   24.637998      10.0000    195.0840
  412   3 Pt  78      -8.430000   14.530001   26.917998      10.0000    195.0840
  413   3 Pt  78      -5.620000   14.570000   26.777997      10.0000    195.0840
  414   3 Pt  78      -2.800000   14.600000   26.847998      10.0000    195.0840
  415   3 Pt  78      -0.110000   14.570000   26.847998      10.0000    195.0840
  416   3 Pt  78       2.770000   14.460001   26.887998      10.0000    195.0840
  417   3 Pt  78       5.410000   14.510001   26.997998      10.0000    195.0840
  418   3 Pt  78       1.410000    2.360000   26.947998      10.0000    195.0840
  419   3 Pt  78       4.090000    2.400000   26.807998      10.0000    195.0840
  420   3 Pt  78       7.030000    2.440000   26.897998      10.0000    195.0840
  421   3 Pt  78       9.900001    2.240000   26.797998      10.0000    195.0840
  422   3 Pt  78      12.670001    2.370000   26.957998      10.0000    195.0840
  423   3 Pt  78      -1.310000    2.460000   26.877998      10.0000    195.0840
  424   3 Pt  78       2.810000    4.770000   26.907997      10.0000    195.0840
  425   3 Pt  78       5.630000    4.700000   26.787998      10.0000    195.0840
  426   3 Pt  78       8.440001    4.750000   26.837998      10.0000    195.0840
  427   3 Pt  78      11.180000    4.780000   26.807998      10.0000    195.0840
  428   3 Pt  78      -2.830000    4.890000   26.887998      10.0000    195.0840
  429   3 Pt  78       0.080000    4.870000   26.907997      10.0000    195.0840
  430   3 Pt  78       4.090000    7.270000   26.827998      10.0000    195.0840
  431   3 Pt  78       7.100000    7.130001   26.737998      10.0000    195.0840
  432   3 Pt  78       9.820001    7.190001   26.677998      10.0000    195.0840
  433   3 Pt  78      -4.290000    7.160000   26.837998      10.0000    195.0840
  434   3 Pt  78      -1.430000    7.230001   26.747998      10.0000    195.0840
  435   3 Pt  78       1.320000    7.300000   26.927998      10.0000    195.0840
  436   3 Pt  78       5.600000    9.680000   26.897998      10.0000    195.0840
  437   3 Pt  78       8.430000    9.730001   26.817998      10.0000    195.0840
  438   3 Pt  78      -5.590000    9.680000   26.907997      10.0000    195.0840
  439   3 Pt  78      -2.770000    9.660000   26.917998      10.0000    195.0840
  440   3 Pt  78      -0.040000    9.580001   27.067998      10.0000    195.0840
  441   3 Pt  78       2.740000    9.650001   26.967998      10.0000    195.0840
  442   3 Pt  78       6.970000   12.150001   26.977998      10.0000    195.0840
  443   3 Pt  78      -7.000000   12.120000   26.717998      10.0000    195.0840
  444   3 Pt  78      -4.220000   12.150001   26.787998      10.0000    195.0840
  445   3 Pt  78      -1.370000   12.000000   26.907997      10.0000    195.0840
  446   3 Pt  78       1.400000   12.030001   27.087998      10.0000    195.0840
  447   3 Pt  78       4.140000   11.960001   26.897998      10.0000    195.0840




 SCF PARAMETERS         Density guess:                                   RESTART
                        --------------------------------------------------------
                        max_scf:                                             500
                        max_scf_history:                                       0
                        max_diis:                                              4
                        --------------------------------------------------------
                        eps_scf:                                        1.00E-04
                        eps_scf_history:                                0.00E+00
                        eps_diis:                                       1.00E-01
                        eps_eigval:                                     1.00E-05
                        --------------------------------------------------------
                        level_shift [a.u.]:                             0.000000
                        added MOs                                       500    0
                        --------------------------------------------------------
                        Mixing method:                            BROYDEN_MIXING
                                                charge density mixing in g-space
                        --------------------------------------------------------
                        Smear method:                                FERMI_DIRAC
                        Electronic temperature [K]:                        300.0
                        Electronic temperature [a.u.]:                  9.50E-04
                        Accuracy threshold:                             1.00E-10
                        --------------------------------------------------------
                        No outer SCF

 PW_GRID| Information for grid number                                          1
 PW_GRID| Grid distributed over                                   128 processors
 PW_GRID| Real space group dimensions                                   128    1
 PW_GRID| the grid is blocked:                                                NO
 PW_GRID| Cutoff [a.u.]                                                    200.0
 PW_GRID| spherical cutoff:                                                   NO
 PW_GRID|   Bounds   1           -105     104                Points:         210
 PW_GRID|   Bounds   2           -105     104                Points:         210
 PW_GRID|   Bounds   3           -432     431                Points:         864
 PW_GRID| Volume element (a.u.^3)  0.3120E-02     Volume (a.u.^3)    118871.7965
 PW_GRID| Grid span                                                    FULLSPACE
 PW_GRID|   Distribution                         Average         Max         Min
 PW_GRID|   G-Vectors                           297675.0      297780      297570
 PW_GRID|   G-Rays                                1417.5        1418        1417
 PW_GRID|   Real Space Points                   297675.0      362880      181440

 PW_GRID| Information for grid number                                          2
 PW_GRID| Number of the reference grid                                         1
 PW_GRID| Grid distributed over                                   128 processors
 PW_GRID| Real space group dimensions                                     8   16
 PW_GRID| the grid is blocked:                                                NO
 PW_GRID| Cutoff [a.u.]                                                     66.7
 PW_GRID| spherical cutoff:                                                   NO
 PW_GRID|   Bounds   1            -60      59                Points:         120
 PW_GRID|   Bounds   2            -60      59                Points:         120
 PW_GRID|   Bounds   3           -252     251                Points:         504
 PW_GRID| Volume element (a.u.^3)  0.1638E-01     Volume (a.u.^3)    118871.7965
 PW_GRID| Grid span                                                    FULLSPACE
 PW_GRID|   Distribution                         Average         Max         Min
 PW_GRID|   G-Vectors                            56700.0       57960       55320
 PW_GRID|   G-Rays                                 472.5         483         461
 PW_GRID|   Real Space Points                    56700.0       60480       52920

 PW_GRID| Information for grid number                                          3
 PW_GRID| Number of the reference grid                                         1
 PW_GRID| Grid distributed over                                   128 processors
 PW_GRID| Real space group dimensions                                     8   16
 PW_GRID| the grid is blocked:                                                NO
[...]
 flops     5 x    32 x    13           2909936640       0.0%    100.0%      0.0%
 flops    13 x    32 x    13           3682729024       0.0%    100.0%      0.0%
 flops     5 x     5 x    96           5155920000       0.0%    100.0%      0.0%
 flops     5 x    13 x    96           6657206400       0.0%    100.0%      0.0%
 flops    13 x     5 x    96           6659452800       0.0%    100.0%      0.0%
 flops    13 x    32 x    20           7993489920       0.0%    100.0%      0.0%
 flops    20 x    32 x    13           7993489920       0.0%    100.0%      0.0%
 flops     5 x    32 x    20           8082528000       0.0%    100.0%      0.0%
 flops    20 x    32 x     5           8082528000       0.0%    100.0%      0.0%
 flops    13 x    13 x    96           8539015680       0.0%    100.0%      0.0%
 flops     5 x     5 x   128          15124032000       0.0%    100.0%      0.0%
 flops    13 x    20 x    96          18254246400       0.0%    100.0%      0.0%
 flops    20 x    13 x    96          18326131200       0.0%    100.0%      0.0%
 flops     5 x    20 x    96          18486144000       0.0%    100.0%      0.0%
 flops    20 x     5 x    96          18501696000       0.0%    100.0%      0.0%
 flops     5 x    13 x   128          19527805440       0.0%    100.0%      0.0%
 flops    13 x     5 x   128          19534394880       0.0%    100.0%      0.0%
 flops    13 x    13 x   128          25047779328       0.0%    100.0%      0.0%
 flops    13 x    20 x   128          53545789440       0.0%    100.0%      0.0%
 flops    20 x    13 x   128          53756651520       0.0%    100.0%      0.0%
 flops     5 x    20 x   128          54226022400       0.0%    100.0%      0.0%
 flops    20 x     5 x   128          54271641600       0.0%    100.0%      0.0%
 flops    20 x    32 x    20          70469222400       0.0%    100.0%      0.0%
 flops    20 x    20 x    96         161989632000       0.0%    100.0%      0.0%
 flops    20 x    20 x   128         475169587200       0.0%    100.0%      0.0%
 flops inhomo. stacks                           0       0.0%      0.0%      0.0%
 flops total                         1.147136E+12       0.0%    100.0%      0.0%
 flops max/rank                     10.563458E+09       0.0%    100.0%      0.0%
 matmuls inhomo. stacks                         0       0.0%      0.0%      0.0%
 matmuls total                           32331015       0.0%    100.0%      0.0%
 number of processed stacks                351146       0.0%    100.0%      0.0%
 average stack size                                     0.0      92.1       0.0
 marketing flops                     2.074500E+12
 -------------------------------------------------------------------------------
 # multiplications                             19
 max memory usage/rank               1.522160E+09
 # max total images/rank                        2
 # max 3D layers                                1
 # MPI messages exchanged                   70528
 MPI messages size (bytes):
  total size                        40.709788E+09
  min size                         271.872000E+03
  max size                           2.006744E+06
  average size                     577.214562E+03
 MPI breakdown and total messages size (bytes):
             size <=      128                   0                        0
       128 < size <=     8192                   0                        0
      8192 < size <=    32768                   0                        0
     32768 < size <=   131072                   0                        0
    131072 < size <=  4194304               70528              40709787272
   4194304 < size <= 16777216                   0                        0
  16777216 < size                               0                        0
 -------------------------------------------------------------------------------

 *** WARNING in dbcsr_mm.F:290 :: Using a non-square number of MPI ranks ***
 *** might lead to poor performance. Used ranks: 128 Suggested: 121 256  ***

 -------------------------------------------------------------------------------
 -                                                                             -
 -                      DBCSR MESSAGE PASSING PERFORMANCE                      -
 -                                                                             -
 -------------------------------------------------------------------------------
 ROUTINE             CALLS      AVE VOLUME [Bytes]
 MP_Bcast               28                     12.
 MP_Allreduce          200                     14.
 MP_Alltoall           525                 528055.
 MP_ISend             1216                 273975.
 MP_IRecv             1216                 268122.
 -------------------------------------------------------------------------------

 -------------------------------------------------------------------------------
 -                                                                             -
 -                                DBM STATISTICS                               -
 -                                                                             -
 -------------------------------------------------------------------------------
    M  x    N  x    K                                          COUNT     PERCENT
 -------------------------------------------------------------------------------

 -------------------------------------------------------------------------------
 -                                                                             -
 -                                GRID STATISTICS                              -
 -                                                                             -
 -------------------------------------------------------------------------------
 LP    KERNEL             BACKEND                              COUNT     PERCENT
 4     collocate general  REF                                6777849      25.22%
 4     integrate general  REF                                6611963      24.61%
 3     collocate general  REF                                3957787      14.73%
 3     integrate general  REF                                3877093      14.43%
 2     collocate general  REF                                2585989       9.62%
 2     integrate general  REF                                2433872       9.06%
 5     integrate general  REF                                 398697       1.48%
 0     collocate general  REF                                 114432       0.43%
 0     integrate general  REF                                  57216       0.21%
 1     integrate general  REF                                  57216       0.21%
 -------------------------------------------------------------------------------

 MEMORY| Estimated peak process memory [MiB]                                1727

 -------------------------------------------------------------------------------
 ----                             MULTIGRID INFO                            ----
 -------------------------------------------------------------------------------
 count for grid        1:        1075192          cutoff [a.u.]          200.00
 count for grid        2:        1070444          cutoff [a.u.]           66.67
 count for grid        3:         678579          cutoff [a.u.]           22.22
 count for grid        4:         504736          cutoff [a.u.]            7.41
 total gridlevel count  :        3328951

 -------------------------------------------------------------------------------
 -                                                                             -
 -                         MESSAGE PASSING PERFORMANCE                         -
 -                                                                             -
 -------------------------------------------------------------------------------

 ROUTINE             CALLS      AVE VOLUME [Bytes]
 MP_Group                4
 MP_Bcast             2051                 321008.
 MP_Allreduce         2782                  34347.
 MP_Sync                40
 MP_Alltoall          1042               17642537.
 MP_SendRecv           508                   6063.
 MP_ISendRecv         8636                  61740.
 MP_Wait             15626
 MP_comm_split          18
 MP_ISend             6596                 256792.
 MP_IRecv             6596                 256792.
 MP_Recv                58                1559296.
 MP_Write_All            3                1797408.
 -------------------------------------------------------------------------------


 -------------------------------------------------------------------------------
 -                                                                             -
 -                           R E F E R E N C E S                               -
 -                                                                             -
 -------------------------------------------------------------------------------
 
 CP2K version 2022.1, the CP2K developers group (2022).
 CP2K is freely available from https://www.cp2k.org/ .

 Kuehne,Thomas D.; Iannuzzi,Marcella; Del Ben,Mauro;
 Rybkin,Vladimir V.; Seewald,Patrick; Stein,Frederick; Laino,Teodoro;
 Khaliullin,Rustam Z.; Schuett,Ole; Schiffmann,Florian; Golze,Dorothea;
 Wilhelm,Jan; Chulkov,Sergey; Bani-Hashemian,Mohammad Hossein;
 Weber,Valery; Borstnik,Urban; Taillefumier,Mathieu;
 Jakobovits,Alice Shoshana; Lazzaro,Alfio; Pabst,Hans; Mueller,Tiziano;
 Schade,Robert; Guidon,Manuel; Andermatt,Samuel; Holmberg,Nico;
 Schenter,Gregory K.; Hehn,Anna; Bussy,Augustin; Belleflamme,Fabian;
 Tabacchi,Gloria; Gloess,Andreas; Lass,Michael; Bethune,Iain;
 Mundy,Christopher J.; Plessl,Christian; Watkins,Matt;
 VandeVondele,Joost; Krack,Matthias; Hutter,Juerg. 
 The Journal of Chemical Physics, 152 (19), (2020). 
 CP2K: An electronic structure and molecular dynamics software package -
 Quickstep: Efficient and accurate electronic structure calculations.
 https://doi.org/10.1063/5.0007045

 Goerigk, Lars; Hansen, Andreas; Bauer, Christoph; Ehrlich, Stephan;
 Najibi, Asim; Grimme, Stefan. , 19 (48), (2017). 
 A look at the density functional theory zoo with the advanced GMTKN55 database
 for general main group thermochemistry, kinetics and noncovalent interactions.
 https://doi.org/10.1039/C7CP04913G

 Bani-Hashemian, MH; Bruck, S; Luisier, M; VandeVondele, J. 
 JOURNAL OF CHEMICAL PHYSICS, 144 (4), 044113 (2016). 
 A generalized Poisson solver for first-principles device simulations.
 https://doi.org/10.1063/1.4940796

 Schuett, Ole; Messmer, Peter; Hutter, Juerg; VandeVondele, Joost. 
 Electronic Structure Calculations on Graphics Processing Units, John
 Wiley & Sons, Ltd, 173-190 (2016). 
 GPU-Accelerated Sparse Matrix-Matrix Multiplication for
 Linear Scaling Density Functional Theory.
 https://doi.org/10.1002/9781118670712.ch8

 Heinecke, A; Henry, G; Hutchinson, M; Pabst, H. 
 Proceedings of Intl. Supercomputing Conference, 981-991 (2016). 
 LIBXSMM: Accelerating Small Matrix Multiplications
 by Runtime Code Generation.
 https://doi.org/10.1109/SC.2016.83

 Borstnik, U; VandeVondele, J; Weber, V; Hutter, J. 
 PARALLEL COMPUTING, 40 (5-6), 47-58 (2014). 
 Sparse matrix multiplication: The distributed block-compressed sparse
 row library.
 https://doi.org/10.1016/j.parco.2014.03.012

 Hutter, J; Iannuzzi, M; Schiffmann, F; VandeVondele, J. 
 WIREs Comput Mol Sci., 4 (1), 15-25 (2014). 
 CP2K: atomistic simulations of condensed matter systems.
 https://doi.org/10.1002/wcms.1159

 Marek, A; Blum, V; Johanni, R; Havu, V; Lang, B; Auckenthaler, T;
 Heinecke, A; Bungartz, H; Lederer, H. 
 Journal of Physics: Condensed Matter, 26 (21), (2014). 
 The ELPA library: scalable parallel eigenvalue solutions for
 electronic structure
 theory and computational science.
 https://doi.org/10.1088/0953-8984/26/21/213201

 Grimme, S; Ehrlich, S; Goerigk, L. 
 JOURNAL OF COMPUTATIONAL CHEMISTRY, 32, 1456 (2011). 
 Effect of the damping function in dispersion corrected density functional theory.
 https://doi.org/10.1002/jcc.21759

 Grimme, S; Antony, J; Ehrlich, S; Krieg, H. 
 JOURNAL OF CHEMICAL PHYSICS, 132 (15), 154104 (2010). 
 A consistent and accurate ab initio parametrization of density
 functional dispersion correction (DFT-D) for the 94 elements H-Pu.
 https://doi.org/10.1063/1.3382344

 VandeVondele, J; Hutter, J. 
 JOURNAL OF CHEMICAL PHYSICS, 127 (11), 114105 (2007). 
 Gaussian basis sets for accurate calculations on molecular systems in
 gas and condensed phases.
 https://doi.org/10.1063/1.2770708

 Krack, M. 
 THEORETICAL CHEMISTRY ACCOUNTS, 114 (1-3), 145-152 (2005). 
 Pseudopotentials for H to Kr optimized for gradient-corrected
 exchange-correlation functionals.
 https://doi.org/10.1007/s00214-005-0655-y

 VandeVondele, J; Krack, M; Mohamed, F; Parrinello, M; Chassaing, T;
 Hutter, J. COMPUTER PHYSICS COMMUNICATIONS, 167 (2), 103-128 (2005). 
 QUICKSTEP: Fast and accurate density functional calculations using a
 mixed Gaussian and plane waves approach.
 https://doi.org/10.1016/j.cpc.2004.12.014

 Frigo, M; Johnson, SG. 
 PROCEEDINGS OF THE IEEE, 93 (2), 216-231 (2005). 
 The design and implementation of FFTW3.
 https://doi.org/10.1109/JPROC.2004.840301

 Hartwigsen, C; Goedecker, S; Hutter, J. 
 PHYSICAL REVIEW B, 58 (7), 3641-3662 (1998). 
 Relativistic separable dual-space Gaussian pseudopotentials from H to Rn.
 https://doi.org/10.1103/PhysRevB.58.3641

 Lippert, G; Hutter, J; Parrinello, M. 
 MOLECULAR PHYSICS, 92 (3), 477-487 (1997). 
 A hybrid Gaussian and plane wave density functional scheme.
 https://doi.org/10.1080/002689797170220

 Perdew, JP; Burke, K; Ernzerhof, M. 
 PHYSICAL REVIEW LETTERS, 77 (18), 3865-3868 (1996). 
 Generalized gradient approximation made simple.
 https://doi.org/10.1103/PhysRevLett.77.3865

 Goedecker, S; Teter, M; Hutter, J. 
 PHYSICAL REVIEW B, 54 (3), 1703-1710 (1996). 
 Separable dual-space Gaussian pseudopotentials.
 https://doi.org/10.1103/PhysRevB.54.1703


 -------------------------------------------------------------------------------
 -                                                                             -
 -                                T I M I N G                                  -
 -                                                                             -
 -------------------------------------------------------------------------------
 SUBROUTINE                       CALLS  ASD         SELF TIME        TOTAL TIME
                                MAXIMUM       AVERAGE  MAXIMUM  AVERAGE  MAXIMUM
 CP2K                                 1  1.0    0.019    0.033  122.798  122.799
 qs_forces                            1  2.0    0.002    0.002  122.478  122.479
 qs_energies                          1  3.0    0.000    0.000  116.368  116.371
 scf_env_do_scf                       1  4.0    0.000    0.000  105.125  105.265
 scf_env_do_scf_inner_loop           16  5.0    0.002    0.003  105.121  105.261
 rebuild_ks_matrix                   17  6.8    0.000    0.000   61.762   61.774
 qs_ks_build_kohn_sham_matrix        17  7.8    0.003    0.004   61.762   61.773
 qs_ks_update_qs_env                 16  6.0    0.000    0.000   57.660   57.672
 pw_transfer                        888 12.1    0.065    0.082   39.337   40.147
 fft_wrap_pw1pw2                    888 13.1    0.009    0.011   39.272   40.072
 fft_wrap_pw1pw2_200                786 14.3    2.613    3.085   38.756   39.541
 pw_poisson_solve                    17  8.8    0.002    0.004   33.260   33.273
 fft3d_ps                           888 15.1   11.157   12.470   31.721   32.949
 implicit_poisson_solver_mixed_      17  9.8    0.704    0.857   31.245   31.279
 qs_scf_new_mos                      16  6.0    0.001    0.003   27.179   27.222
 eigensolver                         16  7.0    0.001    0.002   25.581   25.654
 derive_fft                         102 12.0    0.006    0.008   21.886   21.947
 mp_alltoall_z22v                   888 17.1   17.325   21.152   17.325   21.152
 cp_fm_diag_elpa                     18  8.1    0.000    0.000   19.039   19.096
 qs_rho_update_rho_low               17  6.0    0.000    0.000   19.083   19.087
 calculate_rho_elec                  17  7.0    0.033    0.041   19.083   19.087
 sum_up_and_integrate                17  8.8    0.092    0.111   19.061   19.079
 integrate_v_rspace                  17  9.8    0.001    0.001   18.969   19.014
 cp_fm_redistribute_end              18  9.1    3.753   18.873    3.774   18.878
 apply_P_operator                    85 11.0    0.456    0.508   18.720   18.778
 cp_fm_diag_elpa_base                18  9.1   14.868   18.415   15.012   18.602
 grid_collocate_task_list            17  8.0   11.060   15.069   11.060   15.069
 grid_integrate_task_list            17 10.8   10.308   13.898   10.308   13.898
 x_to_yz                            511 16.3    2.157    2.796   13.292   13.806
 rs_pw_transfer                     140 10.3    0.002    0.002   10.170   12.489
 density_rs2pw                       17  8.0    0.001    0.001    7.699   10.127
 yz_to_x                            275 16.3    0.751    0.876    6.879    9.406
 qs_vxc_create                       17  8.8    0.001    0.001    8.353    8.460
 xc_vxc_pw_create                    17  9.8    0.146    0.181    8.353    8.460
 cp_fm_triangular_multiply           48  8.0    7.966    8.054    7.966    8.054
 scf_post_calculation_gpw             1  4.0    0.000    0.000    8.036    8.041
 write_available_results              1  5.0    0.000    0.000    8.035    8.040
 mp_waitany                        6596 12.2    5.286    7.650    5.286    7.650
 rs_pw_transfer_RS2PW_200            19  9.8    1.177    1.373    5.277    7.583
 xc_pw_derive                       102 11.8    0.002    0.004    5.888    6.525
 mp_alltoall_d11v                   260 10.2    4.235    6.485    4.235    6.485
 rs_gather_matrices                  17 10.8    0.019    0.023    3.778    6.032
 write_mo_free_results                1  6.0    0.259    0.437    5.793    5.804
 apply_poisson_operator_fft          17 10.8    0.000    0.000    5.503    5.599
 apply_inv_laplace_operator_fft      53 11.5    0.132    0.150    5.160    5.361
 potential_pw2rs                     17 10.8    0.005    0.005    4.871    4.918
 xc_pw_divergence                    17 10.8    0.001    0.001    3.965    4.442
 xc_rho_set_and_dset_create          17 10.8    0.085    0.097    4.084    4.321
 qs_ks_update_qs_env_forces           1  3.0    0.000    0.000    4.126    4.127
 ps_implicit_compute_error_fft       34 10.8    0.214    0.260    3.707    3.968
 pw_to_cube                           3  7.0    0.482    3.453    3.646    3.819
 ps_implicit_compute_veps            17 10.8    0.100    0.120    3.723    3.787
 pw_scatter_p                       562 15.3    3.135    3.660    3.135    3.660
 write_mo_dependent_results           1  6.0    0.000    0.000    2.243    3.502
 calculate_projected_dos              1  7.0    0.293    1.691    2.242    3.501
 rs_pw_transfer_PW2RS_200            19 12.4    1.442    1.506    3.018    3.113
 mp_bcast_l                           3  8.0    2.763    2.786    2.763    2.786
 pw_derive                          408 12.9    2.578    2.774    2.578    2.774
 -------------------------------------------------------------------------------

 The number of warnings for this run is : 1
 
 -------------------------------------------------------------------------------
  **** **** ******  **  PROGRAM ENDED AT                 2024-07-18 02:14:28.476
 ***** ** ***  *** **   PROGRAM RAN ON                                     cu042
 **    ****   ******    PROGRAM RAN BY                                     jxzhu
 ***** **    ** ** **   PROGRAM PROCESS ID                                 35779
  **** **  *******  **  PROGRAM STOPPED IN /public/home/jxzhu/tmp_calc/f85208eeb
                                           d2c32708b87769b80162e12d9400419/calc/
                                           003000.000/search_lo.000000
