 DBCSR| CPU Multiplication driver                                           XSMM
 DBCSR| Multrec recursion limit                                              512
 DBCSR| Multiplication stack size                                           1000
 DBCSR| Maximum elements for images                                    UNLIMITED
 DBCSR| Multiplicative factor virtual images                                   1
 DBCSR| Use multiplication densification                                       T
 DBCSR| Multiplication size stacks                                             3
 DBCSR| Use memory pool for CPU allocation                                     F
 DBCSR| Number of 3D layers                                               SINGLE
 DBCSR| Use MPI memory allocation                                              F
 DBCSR| Use RMA algorithm                                                      F
 DBCSR| Use Communication thread                                               T
 DBCSR| Communication thread load                                             87
 DBCSR| MPI: My node id                                                        0
 DBCSR| MPI: Number of nodes                                                 128
 DBCSR| OMP: Current number of threads                                         1
 DBCSR| OMP: Max number of threads                                             1
 DBCSR| Split modifier for TAS multiplication algorithm                  1.0E+00


  **** **** ******  **  PROGRAM STARTED AT               2023-12-02 02:44:13.434
 ***** ** ***  *** **   PROGRAM STARTED ON                                 cu001
 **    ****   ******    PROGRAM STARTED BY                                 jxzhu
 ***** **    ** ** **   PROGRAM PROCESS ID                                 26229
  **** **  *******  **  PROGRAM STARTED IN /public/home/jxzhu/tmp_calc/3903a863e
                                           65d7b74065912328cf943ac122894d7/calc/
                                           000500.000/search_lo.000000

 CP2K| version string:                                       CP2K version 2022.1
 CP2K| source code revision number:                                  git:2caeb6f
 CP2K| cp2kflags: omp libint fftw3 libxc elpa parallel mpi3 scalapack cosma xsmm
 CP2K|             plumed2 spglib mkl sirius libvori libbqb
 CP2K| is freely available from                            https://www.cp2k.org/
 CP2K| Program compiled at                           Mon Jul 3 17:37:06 CST 2023
 CP2K| Program compiled on                                                 mu003
 CP2K| Program compiled for                                                local
 CP2K| Data directory path                             /public/home/jxzhu/basis/
 CP2K| Input file name                                                 input.inp
 
 GLOBAL| Force Environment number                                              1
 GLOBAL| Basis set file name                                        BASIS_MOLOPT
 GLOBAL| Potential file name                                      GTH_POTENTIALS
 GLOBAL| MM Potential file name                                     MM_POTENTIAL
 GLOBAL| Coordinate file name                                          coord.xyz
 GLOBAL| Method name                                                        CP2K
 GLOBAL| Project name                                                       cp2k
 GLOBAL| Run type                                                   ENERGY_FORCE
 GLOBAL| FFT library                                                       FFTW3
 GLOBAL| Diagonalization library                                            ELPA
 GLOBAL| Minimum number of eigenvectors for ELPA usage                        16
 GLOBAL| Orthonormality check for eigenvectors                          DISABLED
 GLOBAL| Matrix multiplication library                                     COSMA
 GLOBAL| All-to-all communication in single precision                          F
 GLOBAL| FFTs using library dependent lengths                                  T
 GLOBAL| Grid backend                                                       AUTO
 GLOBAL| Global print level                                               MEDIUM
 GLOBAL| MPI I/O enabled                                                       T
 GLOBAL| Total number of message passing processes                           128
 GLOBAL| Number of threads for this process                                    1
 GLOBAL| This output is from process                                           0
 GLOBAL| Stack size for threads created by OpenMP (OMP_STACKSIZE)        default
 GLOBAL| CPU model name                 Intel(R) Xeon(R) Gold 6338 CPU @ 2.00GHz
 GLOBAL| CPUID                                                              1003

 MEMORY| system memory details [Kb]
 MEMORY|                        rank 0           min           max       average
 MEMORY| MemTotal            263619172     263619172     263619172     263619172
 MEMORY| MemFree             219356104     216385144     219358584     217870924
 MEMORY| Buffers                    20            20            36            28
 MEMORY| Cached                1543412        798252       1543412       1170832
 MEMORY| Slab                  1353848       1353848       1407264       1380556
 MEMORY| SReclaimable           243900        230172        243900        237036
 MEMORY| MemLikelyFree       221143436     217413604     221145916     219278820


 *** Fundamental physical constants (SI units) ***

 *** Literature: B. J. Mohr and B. N. Taylor,
 ***             CODATA recommended values of the fundamental physical
 ***             constants: 2006, Web Version 5.1
 ***             http://physics.nist.gov/constants

 Speed of light in vacuum [m/s]                             2.99792458000000E+08
 Magnetic constant or permeability of vacuum [N/A**2]       1.25663706143592E-06
 Electric constant or permittivity of vacuum [F/m]          8.85418781762039E-12
 Planck constant (h) [J*s]                                  6.62606896000000E-34
 Planck constant (h-bar) [J*s]                              1.05457162825177E-34
 Elementary charge [C]                                      1.60217648700000E-19
 Electron mass [kg]                                         9.10938215000000E-31
 Electron g factor [ ]                                     -2.00231930436220E+00
 Proton mass [kg]                                           1.67262163700000E-27
 Fine-structure constant                                    7.29735253760000E-03
 Rydberg constant [1/m]                                     1.09737315685270E+07
 Avogadro constant [1/mol]                                  6.02214179000000E+23
 Boltzmann constant [J/K]                                   1.38065040000000E-23
 Atomic mass unit [kg]                                      1.66053878200000E-27
 Bohr radius [m]                                            5.29177208590000E-11

 *** Conversion factors ***

 [u] -> [a.u.]                                              1.82288848426455E+03
 [Angstrom] -> [Bohr] = [a.u.]                              1.88972613288564E+00
 [a.u.] = [Bohr] -> [Angstrom]                              5.29177208590000E-01
 [a.u.] -> [s]                                              2.41888432650478E-17
 [a.u.] -> [fs]                                             2.41888432650478E-02
 [a.u.] -> [J]                                              4.35974393937059E-18
 [a.u.] -> [N]                                              8.23872205491840E-08
 [a.u.] -> [K]                                              3.15774647902944E+05
 [a.u.] -> [kJ/mol]                                         2.62549961709828E+03
 [a.u.] -> [kcal/mol]                                       6.27509468713739E+02
 [a.u.] -> [Pa]                                             2.94210107994716E+13
 [a.u.] -> [bar]                                            2.94210107994716E+08
 [a.u.] -> [atm]                                            2.90362800883016E+08
 [a.u.] -> [eV]                                             2.72113838565563E+01
 [a.u.] -> [Hz]                                             6.57968392072181E+15
 [a.u.] -> [1/cm] (wave numbers)                            2.19474631370540E+05
 [a.u./Bohr**2] -> [1/cm]                                   5.14048714338585E+03
 

 CELL_TOP| Volume [angstrom^3]:                                     17614.982639
 CELL_TOP| Vector a [angstrom    16.869     0.000     0.000   |a| =    16.869000
 CELL_TOP| Vector b [angstrom    -8.434    14.609     0.000   |b| =    16.869015
 CELL_TOP| Vector c [angstrom     0.000     0.000    71.478   |c| =    71.478000
 CELL_TOP| Angle (b,c), alpha [degree]:                                90.000000
 CELL_TOP| Angle (a,c), beta  [degree]:                                90.000000
 CELL_TOP| Angle (a,b), gamma [degree]:                               119.999970
 CELL_TOP| Numerically orthorhombic:                                          NO
 
 GENERATE|  Preliminary Number of Bonds generated:                             0
 GENERATE|  Achieved consistency in connectivity generation.

 CELL| Volume [angstrom^3]:                                         17614.982639
 CELL| Vector a [angstrom]:      16.869     0.000     0.000   |a| =    16.869000
 CELL| Vector b [angstrom]:      -8.434    14.609     0.000   |b| =    16.869015
 CELL| Vector c [angstrom]:       0.000     0.000    71.478   |c| =    71.478000
 CELL| Angle (b,c), alpha [degree]:                                    90.000000
 CELL| Angle (a,c), beta  [degree]:                                    90.000000
 CELL| Angle (a,b), gamma [degree]:                                   119.999970
 CELL| Numerically orthorhombic:                                              NO

 CELL_REF| Volume [angstrom^3]:                                     17614.982639
 CELL_REF| Vector a [angstrom    16.869     0.000     0.000   |a| =    16.869000
 CELL_REF| Vector b [angstrom    -8.434    14.609     0.000   |b| =    16.869015
 CELL_REF| Vector c [angstrom     0.000     0.000    71.478   |c| =    71.478000
 CELL_REF| Angle (b,c), alpha [degree]:                                90.000000
 CELL_REF| Angle (a,c), beta  [degree]:                                90.000000
 CELL_REF| Angle (a,b), gamma [degree]:                               119.999970
 CELL_REF| Numerically orthorhombic:                                          NO

 *******************************************************************************
 *******************************************************************************
 **                                                                           **
 **     #####                         ##              ##                      **
 **    ##   ##            ##          ##              ##                      **
 **   ##     ##                       ##            ######                    **
 **   ##     ##  ##   ##  ##   #####  ##  ##   ####   ##    #####    #####    **
 **   ##     ##  ##   ##  ##  ##      ## ##   ##      ##   ##   ##  ##   ##   **
 **   ##  ## ##  ##   ##  ##  ##      ####     ###    ##   ######   ######    **
 **    ##  ###   ##   ##  ##  ##      ## ##      ##   ##   ##       ##        **
 **     #######   #####   ##   #####  ##  ##  ####    ##    #####   ##        **
 **           ##                                                    ##        **
 **                                                                           **
 **                                                ... make the atoms dance   **
 **                                                                           **
 **            Copyright (C) by CP2K developers group (2000-2022)             **
 **                      J. Chem. Phys. 152, 194103 (2020)                    **
 **                                                                           **
 *******************************************************************************

 DFT| Spin restricted Kohn-Sham (RKS) calculation                            RKS
 DFT| Multiplicity                                                             1
 DFT| Number of spin states                                                    1
 DFT| Charge                                                                   0
 DFT| Self-interaction correction (SIC)                                       NO
 DFT| Cutoffs: density                                              1.000000E-10
 DFT|          gradient                                             1.000000E-10
 DFT|          tau                                                  1.000000E-10
 DFT|          cutoff_smoothing_range                               0.000000E+00
 DFT| XC density smoothing                                                  NONE
 DFT| XC derivatives                                                          PW

 FUNCTIONAL| PBE:
 FUNCTIONAL| J.P.Perdew, K.Burke, M.Ernzerhof, Phys. Rev. Letter, vol. 77, n 18,
 FUNCTIONAL|  pp. 3865-3868, (1996){spin unpolarized}                           

 vdW POTENTIAL|                                                   Pair Potential
 vdW POTENTIAL|          DFT-D3 (Version 3.1)
 vdW POTENTIAL|          Potential Form: S. Grimme et al, JCP 132: 154104 (2010)
 vdW POTENTIAL|          Zero Damping
 vdW POTENTIAL|          Cutoff Radius [Bohr]:                             20.00
 vdW POTENTIAL|          s6 Scaling Factor:                               1.0000
 vdW POTENTIAL|          sr6 Scaling Factor:                              1.2170
 vdW POTENTIAL|          s8 Scaling Factor:                               0.7220
 vdW POTENTIAL|          Cutoff for CN calculation:                   0.1000E-05

 QS| Method:                                                                 GPW
 QS| Density plane wave grid type                        NON-SPHERICAL FULLSPACE
 QS| Number of grid levels:                                                    4
 QS| Density cutoff [a.u.]:                                                200.0
 QS| Multi grid cutoff [a.u.]: 1) grid level                               200.0
 QS|                           2) grid level                                66.7
 QS|                           3) grid level                                22.2
 QS|                           4) grid level                                 7.4
 QS| Grid level progression factor:                                          3.0
 QS| Relative density cutoff [a.u.]:                                        20.0
 QS| Interaction thresholds: eps_pgf_orb:                                3.2E-07
 QS|                         eps_filter_matrix:                          0.0E+00
 QS|                         eps_core_charge:                            1.0E-15
 QS|                         eps_rho_gspace:                             1.0E-13
 QS|                         eps_rho_rspace:                             1.0E-13
 QS|                         eps_gvg_rspace:                             3.2E-07
 QS|                         eps_ppl:                                    1.0E-02
 QS|                         eps_ppnl:                                   3.2E-09


 ATOMIC KIND INFORMATION

  1. Atomic kind: O                                     Number of atoms:      97

     Orbital Basis Set                                        DZVP-MOLOPT-SR-GTH

       Number of orbital shell sets:                                           1
       Number of orbital shells:                                               5
       Number of primitive Cartesian functions:                                5
       Number of Cartesian basis functions:                                   14
       Number of spherical basis functions:                                   13
       Norm type:                                                              2

       Normalised Cartesian orbitals:

                        Set   Shell   Orbital            Exponent    Coefficient

                          1       1    2s               10.389228       0.396646
                                                         3.849621       0.208811
                                                         1.388401      -0.301641
                                                         0.496955      -0.274061
                                                         0.162492      -0.033677

                          1       2    3s               10.389228       0.303673
                                                         3.849621       0.240943
                                                         1.388401      -0.313066
                                                         0.496955      -0.043055
                                                         0.162492       0.213991

                          1       3    3px              10.389228      -1.530415
                                                         3.849621      -1.371928
                                                         1.388401      -0.761951
                                                         0.496955      -0.253695
                                                         0.162492      -0.035541
                          1       3    3py              10.389228      -1.530415
                                                         3.849621      -1.371928
                                                         1.388401      -0.761951
                                                         0.496955      -0.253695
                                                         0.162492      -0.035541
                          1       3    3pz              10.389228      -1.530415
                                                         3.849621      -1.371928
                                                         1.388401      -0.761951
                                                         0.496955      -0.253695
                                                         0.162492      -0.035541

                          1       4    4px              10.389228      -0.565392
                                                         3.849621      -0.038231
                                                         1.388401      -0.382373
                                                         0.496955       0.179070
                                                         0.162492       0.122714
                          1       4    4py              10.389228      -0.565392
                                                         3.849621      -0.038231
                                                         1.388401      -0.382373
                                                         0.496955       0.179070
                                                         0.162492       0.122714
                          1       4    4pz              10.389228      -0.565392
                                                         3.849621      -0.038231
                                                         1.388401      -0.382373
                                                         0.496955       0.179070
                                                         0.162492       0.122714

                          1       5    4dx2             10.389228       1.867377
                                                         3.849621       0.670994
                                                         1.388401       1.353441
                                                         0.496955       0.273538
                                                         0.162492       0.006620
                          1       5    4dxy             10.389228       3.234392
                                                         3.849621       1.162195
                                                         1.388401       2.344229
                                                         0.496955       0.473781
                                                         0.162492       0.011466
                          1       5    4dxz             10.389228       3.234392
                                                         3.849621       1.162195
                                                         1.388401       2.344229
                                                         0.496955       0.473781
                                                         0.162492       0.011466
                          1       5    4dy2             10.389228       1.867377
                                                         3.849621       0.670994
                                                         1.388401       1.353441
                                                         0.496955       0.273538
                                                         0.162492       0.006620
                          1       5    4dyz             10.389228       3.234392
                                                         3.849621       1.162195
                                                         1.388401       2.344229
                                                         0.496955       0.473781
                                                         0.162492       0.011466
                          1       5    4dz2             10.389228       1.867377
                                                         3.849621       0.670994
                                                         1.388401       1.353441
                                                         0.496955       0.273538
                                                         0.162492       0.006620

       Atomic covalent radius [Angstrom]:                                  0.730

       Atomic van der Waals radius [Angstrom]:                             1.520

     GTH Potential information for                                    GTH-PBE-q6

       Description:                       Goedecker-Teter-Hutter pseudopotential
                                           Goedecker et al., PRB 54, 1703 (1996)
                                          Hartwigsen et al., PRB 58, 3641 (1998)
                                                      Krack, TCA 114, 145 (2005)

       Gaussian exponent of the core charge distribution:               8.360253
       Electronic configuration (s p d ...):                               2   4

       Parameters of the local part of the GTH pseudopotential:

                          rloc        C1          C2          C3          C4
                        0.244554  -16.667215    2.487311

       Parameters of the non-local part of the GTH pseudopotential:

                   l      r(l)      h(i,j,l)

                   0    0.220956   18.337458
                   1    0.211332

  2. Atomic kind: H                                     Number of atoms:     194

     Orbital Basis Set                                        DZVP-MOLOPT-SR-GTH

       Number of orbital shell sets:                                           1
       Number of orbital shells:                                               3
       Number of primitive Cartesian functions:                                5
       Number of Cartesian basis functions:                                    5
       Number of spherical basis functions:                                    5
       Norm type:                                                              2

       Normalised Cartesian orbitals:

                        Set   Shell   Orbital            Exponent    Coefficient

                          1       1    2s               10.068468      -0.133023
                                                         2.680223      -0.177618
                                                         0.791502      -0.258419
                                                         0.239116      -0.107525
                                                         0.082193      -0.014019

                          1       2    3s               10.068468       0.344673
                                                         2.680223       1.819821
                                                         0.791502      -0.999069
                                                         0.239116       0.017430
                                                         0.082193       0.082660

                          1       3    3px              10.068468       0.155326
                                                         2.680223       0.367157
                                                         0.791502       0.311480
                                                         0.239116       0.080105
                                                         0.082193       0.033440
                          1       3    3py              10.068468       0.155326
                                                         2.680223       0.367157
                                                         0.791502       0.311480
                                                         0.239116       0.080105
                                                         0.082193       0.033440
                          1       3    3pz              10.068468       0.155326
                                                         2.680223       0.367157
                                                         0.791502       0.311480
                                                         0.239116       0.080105
                                                         0.082193       0.033440

       Atomic covalent radius [Angstrom]:                                  0.320

       Atomic van der Waals radius [Angstrom]:                             1.090

     GTH Potential information for                                    GTH-PBE-q1

       Description:                       Goedecker-Teter-Hutter pseudopotential
                                           Goedecker et al., PRB 54, 1703 (1996)
                                          Hartwigsen et al., PRB 58, 3641 (1998)
                                                      Krack, TCA 114, 145 (2005)

       Gaussian exponent of the core charge distribution:              12.500000
       Electronic configuration (s p d ...):                                   1

       Parameters of the local part of the GTH pseudopotential:

                          rloc        C1          C2          C3          C4
                        0.200000   -4.178900    0.724463

  3. Atomic kind: Pt                                    Number of atoms:     216

     Orbital Basis Set                      DZVP-A5-Q10-323-MOL-T1-DERIVED_SET-1

       Number of orbital shell sets:                                           1
       Number of orbital shells:                                               6
       Number of primitive Cartesian functions:                                5
       Number of Cartesian basis functions:                                   23
       Number of spherical basis functions:                                   20
       Norm type:                                                              2

       Normalised Cartesian orbitals:

                        Set   Shell   Orbital            Exponent    Coefficient

                          1       1    2s                2.521825       0.177473
                                                         1.453920      -0.063399
                                                         0.614053      -0.407089
                                                         0.232656       0.262254
                                                         0.074788       0.047371

                          1       2    3s                2.521825      -0.049056
                                                         1.453920       0.044904
                                                         0.614053      -0.009756
                                                         0.232656      -0.144709
                                                         0.074788       0.144085

                          1       3    3px               2.521825      -0.317572
                                                         1.453920       0.534826
                                                         0.614053      -0.489458
                                                         0.232656       0.245631
                                                         0.074788       0.018221
                          1       3    3py               2.521825      -0.317572
                                                         1.453920       0.534826
                                                         0.614053      -0.489458
                                                         0.232656       0.245631
                                                         0.074788       0.018221
                          1       3    3pz               2.521825      -0.317572
                                                         1.453920       0.534826
                                                         0.614053      -0.489458
                                                         0.232656       0.245631
                                                         0.074788       0.018221

                          1       4    4dx2              2.521825       3.008522
                                                         1.453920      -1.224251
                                                         0.614053       0.225691
                                                         0.232656       0.125144
                                                         0.074788      -0.015348
                          1       4    4dxy              2.521825       5.210912
                                                         1.453920      -2.120465
                                                         0.614053       0.390909
                                                         0.232656       0.216756
                                                         0.074788      -0.026584
                          1       4    4dxz              2.521825       5.210912
                                                         1.453920      -2.120465
                                                         0.614053       0.390909
                                                         0.232656       0.216756
                                                         0.074788      -0.026584
                          1       4    4dy2              2.521825       3.008522
                                                         1.453920      -1.224251
                                                         0.614053       0.225691
                                                         0.232656       0.125144
                                                         0.074788      -0.015348
                          1       4    4dyz              2.521825       5.210912
                                                         1.453920      -2.120465
                                                         0.614053       0.390909
                                                         0.232656       0.216756
                                                         0.074788      -0.026584
                          1       4    4dz2              2.521825       3.008522
                                                         1.453920      -1.224251
                                                         0.614053       0.225691
                                                         0.232656       0.125144
                                                         0.074788      -0.015348

                          1       5    5dx2              2.521825       0.698026
                                                         1.453920      -1.511486
                                                         0.614053      -0.335394
                                                         0.232656      -0.025564
                                                         0.074788      -0.002699
                          1       5    5dxy              2.521825       1.209017
                                                         1.453920      -2.617970
                                                         0.614053      -0.580920
                                                         0.232656      -0.044277
                                                         0.074788      -0.004674
                          1       5    5dxz              2.521825       1.209017
                                                         1.453920      -2.617970
                                                         0.614053      -0.580920
                                                         0.232656      -0.044277
                                                         0.074788      -0.004674
                          1       5    5dy2              2.521825       0.698026
                                                         1.453920      -1.511486
                                                         0.614053      -0.335394
                                                         0.232656      -0.025564
                                                         0.074788      -0.002699
                          1       5    5dyz              2.521825       1.209017
                                                         1.453920      -2.617970
                                                         0.614053      -0.580920
                                                         0.232656      -0.044277
                                                         0.074788      -0.004674
                          1       5    5dz2              2.521825       0.698026
                                                         1.453920      -1.511486
                                                         0.614053      -0.335394
                                                         0.232656      -0.025564
                                                         0.074788      -0.002699

                          1       6    6dx2              2.521825       0.831079
                                                         1.453920      -0.709226
                                                         0.614053      -0.137351
                                                         0.232656       0.068642
                                                         0.074788       0.011745
                          1       6    6dxy              2.521825       1.439472
                                                         1.453920      -1.228415
                                                         0.614053      -0.237899
                                                         0.232656       0.118891
                                                         0.074788       0.020343
                          1       6    6dxz              2.521825       1.439472
                                                         1.453920      -1.228415
                                                         0.614053      -0.237899
                                                         0.232656       0.118891
                                                         0.074788       0.020343
                          1       6    6dy2              2.521825       0.831079
                                                         1.453920      -0.709226
                                                         0.614053      -0.137351
                                                         0.232656       0.068642
                                                         0.074788       0.011745
                          1       6    6dyz              2.521825       1.439472
                                                         1.453920      -1.228415
                                                         0.614053      -0.237899
                                                         0.232656       0.118891
                                                         0.074788       0.020343
                          1       6    6dz2              2.521825       0.831079
                                                         1.453920      -0.709226
                                                         0.614053      -0.137351
                                                         0.232656       0.068642
                                                         0.074788       0.011745

       Atomic covalent radius [Angstrom]:                                  1.300

       Atomic van der Waals radius [Angstrom]:                             1.750

     GTH Potential information for                                   GTH-PBE-q10

       Description:                       Goedecker-Teter-Hutter pseudopotential
                                           Goedecker et al., PRB 54, 1703 (1996)
                                          Hartwigsen et al., PRB 58, 3641 (1998)
                                                      Krack, TCA 114, 145 (2005)

       Gaussian exponent of the core charge distribution:               1.317676
       Electronic configuration (s p d ...):                           1   0   9

       Parameters of the local part of the GTH pseudopotential:

                          rloc        C1          C2          C3          C4
                        0.616000   11.313635

       Parameters of the non-local part of the GTH pseudopotential:

                   l      r(l)      h(i,j,l)

                   0    0.550904    4.733491   -1.784594
                                   -1.784594    2.303901
                   1    0.674138    2.534798   -1.778066
                                   -1.778066    2.103836
                   2    0.457392   -7.264011    2.558665
                                    2.558665   -2.901253


 MOLECULE KIND INFORMATION


 All atoms are their own molecule, skipping detailed information


 TOTAL NUMBERS AND MAXIMUM NUMBERS

  Total number of            - Atomic kinds:                                   3
                             - Atoms:                                        507
                             - Shell sets:                                   507
                             - Shells:                                      2363
                             - Primitive Cartesian functions:               2535
                             - Cartesian basis functions:                   7296
                             - Spherical basis functions:                   6551

  Maximum angular momentum of- Orbital basis functions:                        2
                             - Local part of the GTH pseudopotential:          2
                             - Non-local part of the GTH pseudopotential:      4


 MODULE QUICKSTEP:  ATOMIC COORDINATES IN angstrom

 Atom  Kind  Element       X           Y           Z          Z(eff)       Mass
    1   1 O    8       1.350000    2.140000   36.367999       6.0000     15.9994
    2   2 H    1       0.630000    1.620000   36.077998       1.0000      1.0079
    3   2 H    1       2.180000    1.570000   36.247999       1.0000      1.0079
    4   1 O    8      10.820000   -1.740000   33.897998       6.0000     15.9994
    5   2 H    1      10.470000   -1.820000   34.817998       1.0000      1.0079
    6   2 H    1      10.190001   -1.820000   33.187999       1.0000      1.0079
    7   1 O    8       3.410000   16.680000   36.057999       6.0000     15.9994
    8   2 H    1       3.230000   15.890001   36.737998       1.0000      1.0079
    9   2 H    1       2.830000   16.440001   35.307999       1.0000      1.0079
   10   1 O    8      -1.320000   17.320002   30.027999       6.0000     15.9994
   11   2 H    1      -1.530000   17.360001   30.937999       1.0000      1.0079
   12   2 H    1       7.870001    3.320000   29.877999       1.0000      1.0079
   13   1 O    8      20.700001   23.380001   29.667999       6.0000     15.9994
   14   2 H    1      21.600000   23.710001   30.057999       1.0000      1.0079
   15   2 H    1      20.930002   23.310001   28.687999       1.0000      1.0079
   16   1 O    8     -14.190001   17.690001   31.937999       6.0000     15.9994
   17   2 H    1     -14.380001   18.550001   32.517998       1.0000      1.0079
   18   2 H    1     -14.510001   17.000000   32.557999       1.0000      1.0079
   19   1 O    8      -0.510000   -6.760001   37.357999       6.0000     15.9994
   20   2 H    1      -0.510000   -7.820001   37.247999       1.0000      1.0079
   21   2 H    1      15.400001   -6.560000   37.627998       1.0000      1.0079
   22   1 O    8      17.950001   -0.860000   29.957999       6.0000     15.9994
   23   2 H    1       9.750000   13.660001   28.967999       1.0000      1.0079
   24   2 H    1      16.940001   -0.880000   29.987998       1.0000      1.0079
   25   1 O    8       9.300001    4.540000   30.107999       6.0000     15.9994
   26   2 H    1       9.870001    4.270000   30.907998       1.0000      1.0079
   27   2 H    1       9.770000    5.180000   29.547999       1.0000      1.0079
   28   1 O    8      -0.720000   15.380001   33.897998       6.0000     15.9994
   29   2 H    1      -0.920000   15.450001   34.877999       1.0000      1.0079
   30   2 H    1      -1.410000   16.030001   33.467999       1.0000      1.0079
   31   1 O    8       8.500000   12.080001   39.317998       6.0000     15.9994
   32   2 H    1       8.940001   11.370001   38.757999       1.0000      1.0079
   33   2 H    1       8.430000   12.860001   38.748000       1.0000      1.0079
   34   1 O    8      -4.890000   -4.600000   30.347999       6.0000     15.9994
   35   2 H    1      -4.750000   -3.850000   30.987998       1.0000      1.0079
   36   2 H    1      -5.000000   -4.180000   29.487998       1.0000      1.0079
   37   1 O    8       7.880001    3.560000   39.628000       6.0000     15.9994
   38   2 H    1       7.650001    4.410000   40.097999       1.0000      1.0079
   39   2 H    1      -9.520000    3.560000   38.787999       1.0000      1.0079
   40   1 O    8      -1.370000    8.420001   33.837999       6.0000     15.9994
   41   2 H    1      -1.610000    9.100000   33.217999       1.0000      1.0079
   42   2 H    1      -0.900000    7.710000   33.277999       1.0000      1.0079
   43   1 O    8      14.500000   10.430001   30.267999       6.0000     15.9994
   44   2 H    1      14.000001   11.190001   29.787999       1.0000      1.0079
   45   2 H    1      14.660001   10.740000   31.197998       1.0000      1.0079
   46   1 O    8     -16.920000    6.470000   36.457999       6.0000     15.9994
   47   2 H    1     -15.940001    6.440001   36.337999       1.0000      1.0079
   48   2 H    1     -17.090000    7.500000   36.548000       1.0000      1.0079
   49   1 O    8      -3.680000   13.960000   30.737998       6.0000     15.9994
   50   2 H    1      -4.280000   14.630001   30.347999       1.0000      1.0079
   51   2 H    1      -2.800000   14.350000   30.537999       1.0000      1.0079
   52   1 O    8     -18.070000   13.530001   37.458000       6.0000     15.9994
   53   2 H    1     -26.820002   28.240002   38.447999       1.0000      1.0079
   54   2 H    1     -18.660000   12.770000   37.217998       1.0000      1.0079
   55   1 O    8      11.130000   -8.170000   36.067998       6.0000     15.9994
   56   2 H    1      11.660000   -8.840000   36.597999       1.0000      1.0079
   57   2 H    1       2.920000    6.210001   35.127999       1.0000      1.0079
   58   1 O    8     -17.330000   19.850002   36.737998       6.0000     15.9994
   59   2 H    1     -16.390001   19.570002   36.907999       1.0000      1.0079
   60   2 H    1     -17.560001   19.930002   35.777999       1.0000      1.0079
   61   1 O    8      -6.560000    3.170000   39.228000       6.0000     15.9994
   62   2 H    1      -6.260000    3.110000   38.277999       1.0000      1.0079
   63   2 H    1      -7.550001    3.250000   39.177999       1.0000      1.0079
   64   1 O    8       6.250000    9.350000   30.187998       6.0000     15.9994
   65   2 H    1       5.280000    9.450001   30.307999       1.0000      1.0079
   66   2 H    1       6.330000    8.390000   30.477999       1.0000      1.0079
   67   1 O    8     -10.340000   25.650002   33.437998       6.0000     15.9994
   68   2 H    1       7.050000   26.580002   33.237998       1.0000      1.0079
   69   2 H    1     -11.070000   25.890003   34.087999       1.0000      1.0079
   70   1 O    8       4.270000   -2.590000   28.987998       6.0000     15.9994
   71   2 H    1       4.310000   -1.760000   29.587999       1.0000      1.0079
   72   2 H    1       3.400000   -3.020000   29.257999       1.0000      1.0079
   73   1 O    8      -2.190000   17.230000   32.747999       6.0000     15.9994
   74   2 H    1      -3.140000   17.180000   33.057998       1.0000      1.0079
   75   2 H    1      -1.890000   18.050001   33.247999       1.0000      1.0079
   76   1 O    8       3.180000    5.490000   33.507999       6.0000     15.9994
   77   2 H    1       2.240000    5.730000   33.137999       1.0000      1.0079
   78   2 H    1       3.320000    4.550000   33.417999       1.0000      1.0079
   79   1 O    8      -7.080000   27.560001   36.307999       6.0000     15.9994
   80   2 H    1      -8.070001   27.660000   36.537999       1.0000      1.0079
   81   2 H    1      -6.590000   28.210001   36.837999       1.0000      1.0079
   82   1 O    8      -5.350000    8.280001   35.897999       6.0000     15.9994
   83   2 H    1      -5.090000    9.210001   35.717999       1.0000      1.0079
   84   2 H    1      -6.320000    8.240001   35.867998       1.0000      1.0079
   85   1 O    8      -2.270000   17.850000   37.308000       6.0000     15.9994
   86   2 H    1      -3.150000   18.250000   37.487998       1.0000      1.0079
   87   2 H    1      -1.710000   18.590000   36.987998       1.0000      1.0079
   88   1 O    8      16.960001   -4.770000   28.937999       6.0000     15.9994
   89   2 H    1       9.030001    8.900001   29.327998       1.0000      1.0079
   90   2 H    1      16.000000   -4.830000   29.197998       1.0000      1.0079
   91   1 O    8      -1.000000   -0.230000   38.017999       6.0000     15.9994
   92   2 H    1      -0.860000    0.200000   37.117999       1.0000      1.0079
   93   2 H    1      -1.120000    0.470000   38.697999       1.0000      1.0079
   94   1 O    8       7.900000    9.020000   34.968000       6.0000     15.9994
   95   2 H    1       6.900001    9.040001   34.877999       1.0000      1.0079
   96   2 H    1       8.080000    8.610001   35.917999       1.0000      1.0079
   97   1 O    8     -11.390000    8.750001   38.367999       6.0000     15.9994
   98   2 H    1       5.130000    8.270000   39.157998       1.0000      1.0079
   99   2 H    1     -11.200000    9.650001   38.807998       1.0000      1.0079
  100   1 O    8      -1.670000   26.260002   31.557999       6.0000     15.9994
  101   2 H    1      -2.330000   26.170002   32.338000       1.0000      1.0079
  102   2 H    1      15.310000   25.380001   31.237999       1.0000      1.0079
  103   1 O    8       2.020000   -3.310000   30.627999       6.0000     15.9994
  104   2 H    1       1.570000   -3.940000   29.997999       1.0000      1.0079
  105   2 H    1       1.530000   -2.480000   30.597999       1.0000      1.0079
  106   1 O    8       8.120001   -1.560000   32.747999       6.0000     15.9994
  107   2 H    1       7.980001   -0.770000   33.287999       1.0000      1.0079
  108   2 H    1       7.960001   -1.170000   31.817999       1.0000      1.0079
  109   1 O    8      -5.180000   15.790001   29.547999       6.0000     15.9994
  110   2 H    1      -6.070001   15.370001   29.807999       1.0000      1.0079
  111   2 H    1      -5.260000   16.030001   28.597999       1.0000      1.0079
  112   1 O    8     -12.980001    4.570000   37.697999       6.0000     15.9994
  113   2 H    1     -13.810000    4.190001   38.058000       1.0000      1.0079
  114   2 H    1     -12.810000    5.310000   38.388000       1.0000      1.0079
  115   1 O    8      -7.490000   -8.340000   32.597999       6.0000     15.9994
  116   2 H    1      -7.940001   -9.160001   32.267999       1.0000      1.0079
  117   2 H    1       0.990000    6.810000   31.757999       1.0000      1.0079
  118   1 O    8      -2.510000   -3.380000   39.237998       6.0000     15.9994
  119   2 H    1      -1.510000   -3.200000   39.327998       1.0000      1.0079
  120   2 H    1      -2.810000   -2.850000   38.437999       1.0000      1.0079
  121   1 O    8       7.270000   -0.160000   30.107999       6.0000     15.9994
  122   2 H    1       7.540000    0.740000   29.827998       1.0000      1.0079
  123   2 H    1       7.740001   -0.760000   29.487998       1.0000      1.0079
  124   1 O    8      -9.900001    6.810000   30.497999       6.0000     15.9994
  125   2 H    1     -10.640000    6.220000   30.077998       1.0000      1.0079
  126   2 H    1      -9.040001    6.710000   29.977999       1.0000      1.0079
  127   1 O    8      10.540000    1.440000   30.027999       6.0000     15.9994
  128   2 H    1       9.690001    1.930000   29.867999       1.0000      1.0079
  129   2 H    1      10.410000    0.640000   29.417999       1.0000      1.0079
  130   1 O    8      -1.370000    6.620001   30.057999       6.0000     15.9994
  131   2 H    1      -1.510000    6.790000   29.087999       1.0000      1.0079
  132   2 H    1      -2.170000    5.970000   30.197999       1.0000      1.0079
  133   1 O    8      -2.960000    6.210001   39.687999       6.0000     15.9994
  134   2 H    1      -2.970000    7.200000   39.888000       1.0000      1.0079
  135   2 H    1      -2.080000    6.240000   39.327998       1.0000      1.0079
  136   1 O    8      -5.950000   13.240002   37.077998       6.0000     15.9994
  137   2 H    1      -6.610000   12.650002   36.678000       1.0000      1.0079
  138   2 H    1      -6.060000   13.500000   38.058000       1.0000      1.0079
  139   1 O    8       3.020000   14.520000   37.748000       6.0000     15.9994
  140   2 H    1      12.290001   -0.710000   37.828000       1.0000      1.0079
  141   2 H    1     -14.050001   14.930000   38.597999       1.0000      1.0079
  142   1 O    8      11.930000   23.780001   36.587999       6.0000     15.9994
  143   2 H    1      12.610001   23.540001   37.287999       1.0000      1.0079
  144   2 H    1      11.500001   22.870003   36.447999       1.0000      1.0079
  145   1 O    8      11.930000   10.140000   39.078000       6.0000     15.9994
  146   2 H    1      11.080000    9.850000   38.708000       1.0000      1.0079
  147   2 H    1      12.300000   10.780001   38.458000       1.0000      1.0079
  148   1 O    8      15.250001    4.930000   34.517999       6.0000     15.9994
  149   2 H    1      15.810001    5.400000   35.197999       1.0000      1.0079
  150   2 H    1      14.430000    5.450000   34.558000       1.0000      1.0079
  151   1 O    8       3.480000    2.880000   33.247999       6.0000     15.9994
  152   2 H    1       2.630000    2.520000   32.847999       1.0000      1.0079
  153   2 H    1       3.500000    2.390000   34.097999       1.0000      1.0079
  154   1 O    8      -3.220000   -1.020000   34.838000       6.0000     15.9994
  155   2 H    1      -2.530000   -0.330000   34.717999       1.0000      1.0079
  156   2 H    1      -4.030000   -0.800000   34.378000       1.0000      1.0079
  157   1 O    8       9.200000   16.940001   32.177999       6.0000     15.9994
  158   2 H    1       8.970000   16.800001   33.097999       1.0000      1.0079
  159   2 H    1       8.520000   17.600000   31.887999       1.0000      1.0079
  160   1 O    8      -4.930000   15.210000   35.478000       6.0000     15.9994
  161   2 H    1      -5.240001   14.520000   36.157999       1.0000      1.0079
  162   2 H    1      -3.940000   15.360001   35.687999       1.0000      1.0079
  163   1 O    8      -4.520000    6.210001   37.427999       6.0000     15.9994
  164   2 H    1      -4.130000    6.180000   38.357999       1.0000      1.0079
  165   2 H    1      -4.460000    7.190001   37.187999       1.0000      1.0079
  166   1 O    8       0.750000   12.470001   29.387999       6.0000     15.9994
  167   2 H    1       0.560000   11.530000   29.437999       1.0000      1.0079
  168   2 H    1       1.660000   12.600001   29.647999       1.0000      1.0079
  169   1 O    8      -5.030000   11.030001   34.797999       6.0000     15.9994
  170   2 H    1      -4.780000   11.890000   34.367999       1.0000      1.0079
  171   2 H    1      -5.940001   11.250000   35.077998       1.0000      1.0079
  172   1 O    8       7.090001   16.880001   29.387999       6.0000     15.9994
  173   2 H    1       7.200000   16.020000   29.867999       1.0000      1.0079
  174   2 H    1       6.090000   16.940001   29.447998       1.0000      1.0079
  175   1 O    8      18.460001   20.040001   33.937999       6.0000     15.9994
  176   2 H    1      18.790001   19.950001   34.817998       1.0000      1.0079
  177   2 H    1      18.400000   20.930002   33.687999       1.0000      1.0079
  178   1 O    8      16.960001    4.500000   29.147999       6.0000     15.9994
  179   2 H    1      16.540001    5.220000   29.627999       1.0000      1.0079
  180   2 H    1      16.330002    3.730000   29.297999       1.0000      1.0079
  181   1 O    8     -10.220001   13.990001   30.017999       6.0000     15.9994
  182   2 H    1     -10.220001   13.000001   30.317998       1.0000      1.0079
  183   2 H    1     -10.240001   14.000001   29.037999       1.0000      1.0079
  184   1 O    8      16.460001   29.610003   34.747999       6.0000     15.9994
  185   2 H    1      15.960001   30.190001   34.187999       1.0000      1.0079
  186   2 H    1      16.730001   28.900002   34.177999       1.0000      1.0079
  187   1 O    8      13.080001    5.190001   29.847999       6.0000     15.9994
  188   2 H    1      12.500000    5.600000   30.557998       1.0000      1.0079
  189   2 H    1      12.750001    5.490000   28.987998       1.0000      1.0079
  190   1 O    8      -6.170001   13.690001   39.567998       6.0000     15.9994
  191   2 H    1      -5.410000   13.150001   39.897998       1.0000      1.0079
  192   2 H    1      -6.970000   13.260001   39.808000       1.0000      1.0079
  193   1 O    8     -12.530001   11.310000   32.807999       6.0000     15.9994
  194   2 H    1     -13.340001   11.640000   33.308000       1.0000      1.0079
  195   2 H    1      -4.000000   -4.160000   33.277999       1.0000      1.0079
  196   1 O    8      -3.720000   -0.360000   31.977999       6.0000     15.9994
  197   2 H    1      -3.000000   -0.870000   32.388000       1.0000      1.0079
  198   2 H    1      -3.510000    0.630000   31.997999       1.0000      1.0079
  199   1 O    8     -18.020000    4.250000   32.087999       6.0000     15.9994
  200   2 H    1     -18.150002    4.410000   33.027999       1.0000      1.0079
  201   2 H    1     -18.710001    3.570000   32.007999       1.0000      1.0079
  202   1 O    8       1.700000    7.850000   29.937999       6.0000     15.9994
  203   2 H    1       2.200000    8.660001   30.177999       1.0000      1.0079
  204   2 H    1      18.940001    7.540000   29.137999       1.0000      1.0079
  205   1 O    8      -7.400000    9.640000   38.677999       6.0000     15.9994
  206   2 H    1      -7.660000    9.620001   39.628000       1.0000      1.0079
  207   2 H    1      -7.800000    8.880001   38.247999       1.0000      1.0079
  208   1 O    8       8.350000   -4.830000   29.137999       6.0000     15.9994
  209   2 H    1       7.480001   -4.620000   29.457999       1.0000      1.0079
  210   2 H    1       8.770000   -5.590000   29.537999       1.0000      1.0079
  211   1 O    8      14.230001    2.380000   35.017999       6.0000     15.9994
  212   2 H    1      13.350000    2.390000   35.457999       1.0000      1.0079
  213   2 H    1      14.650001    3.290000   35.127999       1.0000      1.0079
  214   1 O    8       8.960000   12.690001   33.077999       6.0000     15.9994
  215   2 H    1       8.280001   12.560000   32.377999       1.0000      1.0079
  216   2 H    1       9.740001   12.930001   32.587999       1.0000      1.0079
  217   1 O    8      13.800001    2.390000   32.347999       6.0000     15.9994
  218   2 H    1      12.890000    2.780000   32.128000       1.0000      1.0079
  219   2 H    1      13.890000    2.460000   33.327999       1.0000      1.0079
  220   1 O    8      12.830001    2.510000   29.187999       6.0000     15.9994
  221   2 H    1      12.170000    1.980000   29.747999       1.0000      1.0079
  222   2 H    1      12.890000    3.460000   29.497999       1.0000      1.0079
  223   1 O    8       3.070000    3.910000   30.197999       6.0000     15.9994
  224   2 H    1       2.080000    3.990000   30.017999       1.0000      1.0079
  225   2 H    1       3.200000    2.950000   29.997999       1.0000      1.0079
  226   1 O    8      -4.200000   -8.210000   39.907998       6.0000     15.9994
  227   2 H    1      -4.920000   -7.590001   40.057998       1.0000      1.0079
  228   2 H    1      -4.210001   -8.730000   40.738000       1.0000      1.0079
  229   1 O    8       6.250000    1.090000   36.017999       6.0000     15.9994
  230   2 H    1       6.260000    1.840000   36.647999       1.0000      1.0079
  231   2 H    1       6.470000    0.350000   36.587999       1.0000      1.0079
  232   1 O    8     -11.480000    9.270000   34.447999       6.0000     15.9994
  233   2 H    1     -12.090001    9.290000   35.218000       1.0000      1.0079
  234   2 H    1     -11.550001    8.390000   34.017999       1.0000      1.0079
  235   1 O    8       5.360000    4.750000   29.407999       6.0000     15.9994
  236   2 H    1       4.380000    4.470000   29.647999       1.0000      1.0079
  237   2 H    1       5.910000    3.940000   29.617998       1.0000      1.0079
  238   1 O    8       9.610001    8.050001   30.207999       6.0000     15.9994
  239   2 H    1      10.600000    8.230000   30.127999       1.0000      1.0079
  240   2 H    1       9.310000    8.060000   31.127999       1.0000      1.0079
  241   1 O    8       3.610000   21.180000   31.667999       6.0000     15.9994
  242   2 H    1       3.790000   22.130001   31.707999       1.0000      1.0079
  243   2 H    1       4.100000   20.910000   32.507999       1.0000      1.0079
  244   1 O    8      15.740002    9.190001   36.517999       6.0000     15.9994
  245   2 H    1      15.490000    9.040001   35.607998       1.0000      1.0079
  246   2 H    1      16.560001    9.710001   36.628000       1.0000      1.0079
  247   1 O    8      -3.160000   11.280001   37.097999       6.0000     15.9994
  248   2 H    1      -2.460000   10.570001   37.037998       1.0000      1.0079
  249   2 H    1      -3.800000   11.130000   36.327998       1.0000      1.0079
  250   1 O    8     -15.940001  -18.710001   37.597999       6.0000     15.9994
  251   2 H    1     -15.110001  -19.190002   37.378000       1.0000      1.0079
  252   2 H    1     -15.760001  -17.820000   37.238000       1.0000      1.0079
  253   1 O    8      -4.540000   13.260001   33.267999       6.0000     15.9994
  254   2 H    1      -4.110000   13.470001   32.447998       1.0000      1.0079
  255   2 H    1      -4.530000   14.000001   33.937999       1.0000      1.0079
  256   1 O    8      -6.310000    4.410000   36.707999       6.0000     15.9994
  257   2 H    1      -5.720000    5.140000   37.187999       1.0000      1.0079
  258   2 H    1      -5.800000    3.640000   36.367999       1.0000      1.0079
  259   1 O    8       0.720000   -3.140000   35.537999       6.0000     15.9994
  260   2 H    1       0.160000   -3.930000   35.487998       1.0000      1.0079
  261   2 H    1       0.600000   -2.840000   34.617998       1.0000      1.0079
  262   1 O    8       7.240000    4.800000   34.027998       6.0000     15.9994
  263   2 H    1       8.240001    4.960000   33.767999       1.0000      1.0079
  264   2 H    1       6.720000    5.640000   33.708000       1.0000      1.0079
  265   1 O    8      -3.620000    6.640000   34.167999       6.0000     15.9994
  266   2 H    1      -3.080000    7.430000   33.918000       1.0000      1.0079
  267   2 H    1      -4.390000    7.070000   34.717999       1.0000      1.0079
  268   1 O    8       8.180000   -8.720000   38.987998       6.0000     15.9994
  269   2 H    1       8.760000   -8.150001   39.527999       1.0000      1.0079
  270   2 H    1       8.250000   -8.460000   38.007999       1.0000      1.0079
  271   1 O    8       5.460000    6.850000   33.027999       6.0000     15.9994
  272   2 H    1       4.610000    6.330000   32.947999       1.0000      1.0079
  273   2 H    1       5.610001    7.060000   32.087999       1.0000      1.0079
  274   1 O    8       5.220000   13.080001   37.427999       6.0000     15.9994
  275   2 H    1       6.040000   13.590001   37.657998       1.0000      1.0079
  276   2 H    1       5.260000   13.010001   36.457999       1.0000      1.0079
  277   1 O    8     -14.860001   15.880001   33.897998       6.0000     15.9994
  278   2 H    1       2.210000   14.930000   33.887999       1.0000      1.0079
  279   2 H    1       1.030000   15.740002   33.887999       1.0000      1.0079
  280   1 O    8       1.360000    3.710000   38.697999       6.0000     15.9994
  281   2 H    1       1.040000    3.110000   37.958000       1.0000      1.0079
  282   2 H    1       0.750000    4.470000   38.767999       1.0000      1.0079
  283   1 O    8      -4.890000    9.340000   32.367998       6.0000     15.9994
  284   2 H    1      -5.310000   10.090000   31.817999       1.0000      1.0079
  285   2 H    1      -4.630000    9.860001   33.167999       1.0000      1.0079
  286   1 O    8       9.440001    7.980001   32.857999       6.0000     15.9994
  287   2 H    1      10.210000    8.650001   32.867999       1.0000      1.0079
  288   2 H    1       8.920000    8.460000   33.577998       1.0000      1.0079
  289   1 O    8     -13.640001   13.150001   30.097999       6.0000     15.9994
  290   2 H    1     -13.100000   13.680000   30.797999       1.0000      1.0079
  291   2 H    1       3.790000   13.170000   29.297999       1.0000      1.0079
  292   3 Pt  78       1.600000    0.790000   15.149998      10.0000    195.0840
  293   3 Pt  78       4.360000    0.920000   15.130001      10.0000    195.0840
  294   3 Pt  78       7.220001    0.910000   15.279999      10.0000    195.0840
  295   3 Pt  78      10.190001    0.930000   15.299999      10.0000    195.0840
  296   3 Pt  78      12.990000    0.910000   15.180000      10.0000    195.0840
  297   3 Pt  78      15.740002    0.930000   15.130001      10.0000    195.0840
  298   3 Pt  78       3.110000    3.280000   15.130001      10.0000    195.0840
  299   3 Pt  78       5.830000    3.260000   15.110001      10.0000    195.0840
  300   3 Pt  78       8.660001    3.240000   15.299999      10.0000    195.0840
  301   3 Pt  78      11.500001    3.300000   15.149998      10.0000    195.0840
  302   3 Pt  78      14.250001    3.350000   15.250000      10.0000    195.0840
  303   3 Pt  78       0.200000    3.330000   15.279999      10.0000    195.0840
  304   3 Pt  78       4.460000    5.710001   15.189999      10.0000    195.0840
  305   3 Pt  78       7.190001    5.670000   15.139999      10.0000    195.0840
  306   3 Pt  78      10.070001    5.760000   15.139999      10.0000    195.0840
  307   3 Pt  78      12.900001    5.830000   15.170002      10.0000    195.0840
  308   3 Pt  78      -1.130000    5.750000   15.299999      10.0000    195.0840
  309   3 Pt  78       1.580000    5.680000   15.170002      10.0000    195.0840
  310   3 Pt  78       5.880000    8.150001   15.260002      10.0000    195.0840
  311   3 Pt  78       8.600000    8.120001   15.110001      10.0000    195.0840
  312   3 Pt  78      11.470001    8.110001   15.000000      10.0000    195.0840
  313   3 Pt  78      -2.580000    8.120001   15.149998      10.0000    195.0840
  314   3 Pt  78       0.240000    8.150001   15.320000      10.0000    195.0840
  315   3 Pt  78       3.060000    8.140000   15.209999      10.0000    195.0840
  316   3 Pt  78       7.200000   10.580001   15.240002      10.0000    195.0840
  317   3 Pt  78      10.160000   10.520000   15.139999      10.0000    195.0840
  318   3 Pt  78      -3.920000   10.680000   15.149998      10.0000    195.0840
  319   3 Pt  78      -1.040000   10.580001   15.310001      10.0000    195.0840
  320   3 Pt  78       1.610000   10.660001   15.180000      10.0000    195.0840
  321   3 Pt  78       4.330000   10.620001   15.130001      10.0000    195.0840
  322   3 Pt  78       8.690001   12.880001   15.090000      10.0000    195.0840
  323   3 Pt  78      -5.260000   13.040000   15.170002      10.0000    195.0840
  324   3 Pt  78      -2.560000   13.220000   15.180000      10.0000    195.0840
  325   3 Pt  78       0.160000   13.090000   15.219997      10.0000    195.0840
  326   3 Pt  78       3.110000   13.040000   15.209999      10.0000    195.0840
  327   3 Pt  78       5.960000   13.100000   15.170002      10.0000    195.0840
  328   3 Pt  78       0.170000    1.510000   17.610001      10.0000    195.0840
  329   3 Pt  78       2.910000    1.520000   17.520000      10.0000    195.0840
  330   3 Pt  78       5.790000    1.610000   17.590000      10.0000    195.0840
  331   3 Pt  78       8.680000    1.520000   17.579998      10.0000    195.0840
  332   3 Pt  78      11.530000    1.540000   17.600002      10.0000    195.0840
  333   3 Pt  78      14.230001    1.590000   17.610001      10.0000    195.0840
  334   3 Pt  78       1.700000    3.980000   17.530003      10.0000    195.0840
  335   3 Pt  78       4.480000    4.020000   17.590000      10.0000    195.0840
  336   3 Pt  78       7.270000    4.110000   17.520000      10.0000    195.0840
  337   3 Pt  78       9.990001    4.010000   17.619999      10.0000    195.0840
  338   3 Pt  78      12.920000    4.170000   17.470001      10.0000    195.0840
  339   3 Pt  78      -1.270000    3.940000   17.680000      10.0000    195.0840
  340   3 Pt  78       3.010000    6.510000   17.439999      10.0000    195.0840
  341   3 Pt  78       5.840001    6.360001   17.579998      10.0000    195.0840
  342   3 Pt  78       8.630000    6.480000   17.509998      10.0000    195.0840
  343   3 Pt  78      11.480000    6.490001   17.540001      10.0000    195.0840
  344   3 Pt  78      -2.600000    6.520000   17.489998      10.0000    195.0840
  345   3 Pt  78       0.140000    6.360001   17.549999      10.0000    195.0840
  346   3 Pt  78       4.440001    8.910000   17.500000      10.0000    195.0840
  347   3 Pt  78       7.240000    8.880001   17.549999      10.0000    195.0840
  348   3 Pt  78      10.050000    8.870000   17.419998      10.0000    195.0840
  349   3 Pt  78      -4.080000    8.870000   17.419998      10.0000    195.0840
  350   3 Pt  78      -1.190000    8.870000   17.570000      10.0000    195.0840
  351   3 Pt  78       1.580000    8.850000   17.570000      10.0000    195.0840
  352   3 Pt  78       5.730000   11.280001   17.489998      10.0000    195.0840
  353   3 Pt  78       8.640000   11.250000   17.489998      10.0000    195.0840
  354   3 Pt  78      -5.360000   11.320001   17.500000      10.0000    195.0840
  355   3 Pt  78      -2.630000   11.300000   17.419998      10.0000    195.0840
  356   3 Pt  78       0.250000   11.280001   17.610001      10.0000    195.0840
  357   3 Pt  78       2.980000   11.280001   17.509998      10.0000    195.0840
  358   3 Pt  78       7.240000   13.770000   17.530003      10.0000    195.0840
  359   3 Pt  78      -6.820001   13.660001   17.450001      10.0000    195.0840
  360   3 Pt  78      -4.060000   13.830000   17.530003      10.0000    195.0840
  361   3 Pt  78      -1.130000   13.680000   17.700001      10.0000    195.0840
  362   3 Pt  78       1.700000   13.760000   17.540001      10.0000    195.0840
  363   3 Pt  78       4.480000   13.690001   17.559998      10.0000    195.0840
  364   3 Pt  78      -8.260000   14.500000   19.840000      10.0000    195.0840
  365   3 Pt  78      -5.440001   14.550000   19.759998      10.0000    195.0840
  366   3 Pt  78      -2.570000   14.540001   19.829998      10.0000    195.0840
  367   3 Pt  78       0.190000   14.430000   19.899998      10.0000    195.0840
  368   3 Pt  78       3.010000   14.530001   19.910000      10.0000    195.0840
  369   3 Pt  78       5.810000   14.550000   19.950001      10.0000    195.0840
  370   3 Pt  78       1.660000    2.420000   19.750000      10.0000    195.0840
  371   3 Pt  78       4.410000    2.450000   19.829998      10.0000    195.0840
  372   3 Pt  78       7.230001    2.380000   19.930000      10.0000    195.0840
  373   3 Pt  78       9.990001    2.200000   19.930000      10.0000    195.0840
  374   3 Pt  78      12.890000    2.320000   19.889999      10.0000    195.0840
  375   3 Pt  78      -1.210000    2.300000   19.899998      10.0000    195.0840
  376   3 Pt  78       3.090000    4.790000   19.850002      10.0000    195.0840
  377   3 Pt  78       5.810000    4.800000   19.850002      10.0000    195.0840
  378   3 Pt  78       8.670000    4.810000   19.850002      10.0000    195.0840
  379   3 Pt  78      11.360001    4.770000   19.910000      10.0000    195.0840
  380   3 Pt  78      -2.670000    4.730000   19.880001      10.0000    195.0840
  381   3 Pt  78       0.230000    4.720000   19.840000      10.0000    195.0840
  382   3 Pt  78       4.430000    7.290000   19.810001      10.0000    195.0840
  383   3 Pt  78       7.230001    7.170000   19.820000      10.0000    195.0840
  384   3 Pt  78       9.990001    7.270000   19.770000      10.0000    195.0840
  385   3 Pt  78      -4.110000    7.240000   19.759998      10.0000    195.0840
  386   3 Pt  78      -1.140000    7.180000   19.880001      10.0000    195.0840
  387   3 Pt  78       1.650000    7.150001   19.810001      10.0000    195.0840
  388   3 Pt  78       5.840001    9.750000   19.840000      10.0000    195.0840
  389   3 Pt  78       8.590000    9.670001   19.740002      10.0000    195.0840
  390   3 Pt  78      -5.410000    9.720000   19.720001      10.0000    195.0840
  391   3 Pt  78      -2.630000    9.560000   19.759998      10.0000    195.0840
  392   3 Pt  78       0.250000    9.530001   19.880001      10.0000    195.0840
  393   3 Pt  78       3.050000    9.680000   19.899998      10.0000    195.0840
  394   3 Pt  78       7.190001   12.160001   19.889999      10.0000    195.0840
  395   3 Pt  78      -6.900001   12.130001   19.790001      10.0000    195.0840
  396   3 Pt  78      -4.020000   12.130001   19.810001      10.0000    195.0840
  397   3 Pt  78      -1.250000   12.020000   19.880001      10.0000    195.0840
  398   3 Pt  78       1.580000   12.090001   19.880001      10.0000    195.0840
  399   3 Pt  78       4.380000   12.190001   19.869999      10.0000    195.0840
  400   3 Pt  78       1.600000    0.690000   22.097998      10.0000    195.0840
  401   3 Pt  78       4.460000    0.650000   22.087998      10.0000    195.0840
  402   3 Pt  78       7.280001    0.620000   22.147998      10.0000    195.0840
  403   3 Pt  78       9.940001    0.640000   22.257998      10.0000    195.0840
  404   3 Pt  78      12.820001    0.630000   22.247998      10.0000    195.0840
  405   3 Pt  78      15.530001    0.700000   22.267998      10.0000    195.0840
  406   3 Pt  78       2.970000    3.050000   22.117998      10.0000    195.0840
  407   3 Pt  78       5.730000    3.210000   22.147998      10.0000    195.0840
  408   3 Pt  78       8.500000    3.230000   22.177998      10.0000    195.0840
  409   3 Pt  78      11.380000    3.090000   22.197998      10.0000    195.0840
  410   3 Pt  78      14.180001    3.030000   22.227998      10.0000    195.0840
  411   3 Pt  78       0.120000    3.040000   22.187998      10.0000    195.0840
  412   3 Pt  78       4.300000    5.600000   22.187998      10.0000    195.0840
  413   3 Pt  78       7.110000    5.670000   22.137998      10.0000    195.0840
  414   3 Pt  78       9.950001    5.650000   22.187998      10.0000    195.0840
  415   3 Pt  78      12.700001    5.510000   22.147998      10.0000    195.0840
  416   3 Pt  78      -1.280000    5.470000   22.187998      10.0000    195.0840
  417   3 Pt  78       1.670000    5.480001   22.107998      10.0000    195.0840
  418   3 Pt  78       5.780000    8.080000   22.127998      10.0000    195.0840
  419   3 Pt  78       8.610001    8.050001   22.167998      10.0000    195.0840
  420   3 Pt  78      11.370001    8.030001   22.117998      10.0000    195.0840
  421   3 Pt  78      -2.700000    7.930000   22.177998      10.0000    195.0840
  422   3 Pt  78       0.240000    7.890000   22.197998      10.0000    195.0840
  423   3 Pt  78       3.040000    8.040000   22.167998      10.0000    195.0840
  424   3 Pt  78       7.180000   10.610001   22.107998      10.0000    195.0840
  425   3 Pt  78      10.030001   10.430001   22.057998      10.0000    195.0840
  426   3 Pt  78      -3.990000   10.410000   22.097998      10.0000    195.0840
  427   3 Pt  78      -1.220000   10.330000   22.237998      10.0000    195.0840
  428   3 Pt  78       1.480000   10.420000   22.277998      10.0000    195.0840
  429   3 Pt  78       4.350000   10.450001   22.087998      10.0000    195.0840
  430   3 Pt  78       8.580000   12.940001   22.207998      10.0000    195.0840
  431   3 Pt  78      -5.480001   12.860001   21.977998      10.0000    195.0840
  432   3 Pt  78      -2.670000   12.800001   22.137998      10.0000    195.0840
  433   3 Pt  78       0.050000   12.780001   22.257998      10.0000    195.0840
  434   3 Pt  78       2.860000   12.880001   22.287998      10.0000    195.0840
  435   3 Pt  78       5.660000   12.910000   22.207998      10.0000    195.0840
  436   3 Pt  78       0.040000    1.470000   24.497999      10.0000    195.0840
  437   3 Pt  78       2.940000    1.480000   24.297999      10.0000    195.0840
  438   3 Pt  78       5.770000    1.630000   24.407998      10.0000    195.0840
  439   3 Pt  78       8.540000    1.450000   24.447998      10.0000    195.0840
  440   3 Pt  78      11.320001    1.450000   24.447998      10.0000    195.0840
  441   3 Pt  78      14.110001    1.480000   24.617998      10.0000    195.0840
  442   3 Pt  78       1.520000    4.010000   24.367999      10.0000    195.0840
  443   3 Pt  78       4.280000    4.040000   24.347998      10.0000    195.0840
  444   3 Pt  78       7.050000    4.000000   24.567998      10.0000    195.0840
  445   3 Pt  78       9.840000    3.850000   24.537999      10.0000    195.0840
  446   3 Pt  78      12.670001    3.890000   24.577998      10.0000    195.0840
  447   3 Pt  78      -1.320000    3.880000   24.567998      10.0000    195.0840
  448   3 Pt  78       2.930000    6.330000   24.447998      10.0000    195.0840
  449   3 Pt  78       5.690000    6.310000   24.557998      10.0000    195.0840
  450   3 Pt  78       8.480000    6.400001   24.627999      10.0000    195.0840
  451   3 Pt  78      11.250000    6.340000   24.437999      10.0000    195.0840
  452   3 Pt  78      -2.730000    6.240000   24.537999      10.0000    195.0840
  453   3 Pt  78       0.100000    6.380000   24.497999      10.0000    195.0840
  454   3 Pt  78       4.400000    8.800000   24.427998      10.0000    195.0840
  455   3 Pt  78       7.100000    8.790001   24.467999      10.0000    195.0840
  456   3 Pt  78       9.840000    8.790001   24.447998      10.0000    195.0840
  457   3 Pt  78      -4.220000    8.810000   24.427998      10.0000    195.0840
  458   3 Pt  78      -1.170000    8.730000   24.437999      10.0000    195.0840
  459   3 Pt  78       1.480000    8.730000   24.547998      10.0000    195.0840
  460   3 Pt  78       5.710001   11.260000   24.407998      10.0000    195.0840
  461   3 Pt  78       8.570001   11.270000   24.367999      10.0000    195.0840
  462   3 Pt  78      -5.580000   11.290001   24.257999      10.0000    195.0840
  463   3 Pt  78      -2.820000   11.200000   24.377998      10.0000    195.0840
  464   3 Pt  78       0.080000   11.160001   24.547998      10.0000    195.0840
  465   3 Pt  78       2.910000   11.150000   24.567998      10.0000    195.0840
  466   3 Pt  78       7.070000   13.730000   24.567998      10.0000    195.0840
  467   3 Pt  78      -6.870000   13.640001   24.407998      10.0000    195.0840
  468   3 Pt  78      -4.160000   13.780001   24.377998      10.0000    195.0840
  469   3 Pt  78      -1.350000   13.640001   24.557998      10.0000    195.0840
  470   3 Pt  78       1.470000   13.590001   24.497999      10.0000    195.0840
  471   3 Pt  78       4.250000   13.710001   24.687998      10.0000    195.0840
  472   3 Pt  78      -8.430000   14.420000   26.827999      10.0000    195.0840
  473   3 Pt  78      -5.640000   14.590001   26.747999      10.0000    195.0840
  474   3 Pt  78      -2.880000   14.510001   26.767999      10.0000    195.0840
  475   3 Pt  78       0.060000   14.520000   26.867998      10.0000    195.0840
  476   3 Pt  78       2.780000   14.570000   26.857998      10.0000    195.0840
  477   3 Pt  78       5.580000   14.570000   27.007999      10.0000    195.0840
  478   3 Pt  78       1.470000    2.360000   26.607999      10.0000    195.0840
  479   3 Pt  78       4.250000    2.340000   26.737999      10.0000    195.0840
  480   3 Pt  78       7.140000    2.220000   26.777999      10.0000    195.0840
  481   3 Pt  78       9.830000    2.390000   26.897999      10.0000    195.0840
  482   3 Pt  78      12.610001    2.380000   26.997999      10.0000    195.0840
  483   3 Pt  78      -1.420000    2.340000   26.887999      10.0000    195.0840
  484   3 Pt  78       2.860000    4.730000   26.757999      10.0000    195.0840
  485   3 Pt  78       5.710001    4.740000   26.847998      10.0000    195.0840
  486   3 Pt  78       8.520000    4.760000   26.857998      10.0000    195.0840
  487   3 Pt  78      11.230000    4.780000   26.967999      10.0000    195.0840
  488   3 Pt  78      -2.720000    4.720000   26.837999      10.0000    195.0840
  489   3 Pt  78       0.050000    4.800000   26.797999      10.0000    195.0840
  490   3 Pt  78       4.240000    7.150001   26.837999      10.0000    195.0840
  491   3 Pt  78       7.150001    7.180000   26.947998      10.0000    195.0840
  492   3 Pt  78       9.990001    7.170000   26.827999      10.0000    195.0840
  493   3 Pt  78      -4.180000    7.150001   26.767999      10.0000    195.0840
  494   3 Pt  78      -1.360000    7.220001   26.737999      10.0000    195.0840
  495   3 Pt  78       1.510000    7.200000   26.767999      10.0000    195.0840
  496   3 Pt  78       5.690000    9.640000   26.707999      10.0000    195.0840
  497   3 Pt  78       8.430000    9.700001   26.807998      10.0000    195.0840
  498   3 Pt  78      -5.580000    9.590000   26.797999      10.0000    195.0840
  499   3 Pt  78      -2.880000    9.620001   26.767999      10.0000    195.0840
  500   3 Pt  78       0.030000    9.700001   26.877999      10.0000    195.0840
  501   3 Pt  78       2.880000    9.590000   26.887999      10.0000    195.0840
  502   3 Pt  78       6.990001   12.130001   26.797999      10.0000    195.0840
  503   3 Pt  78      -6.940000   12.100000   26.987998      10.0000    195.0840
  504   3 Pt  78      -4.240000   12.100000   26.707999      10.0000    195.0840
  505   3 Pt  78      -1.430000   12.080001   26.687999      10.0000    195.0840
[...]
 -                                                                             -
 -                                DBCSR STATISTICS                             -
 -                                                                             -
 -------------------------------------------------------------------------------
 COUNTER                                    TOTAL       BLAS       SMM       ACC
 flops     5 x     5 x   112           4976848800       0.0%    100.0%      0.0%
 flops    13 x     5 x   112           6324485440       0.0%    100.0%      0.0%
 flops     5 x    13 x   112           6328591360       0.0%    100.0%      0.0%
 flops    13 x    13 x   112           7609775264       0.0%    100.0%      0.0%
 flops     5 x     5 x    96           8531740800       0.0%    100.0%      0.0%
 flops    13 x     5 x    96          10841975040       0.0%    100.0%      0.0%
 flops     5 x    13 x    96          10849013760       0.0%    100.0%      0.0%
 flops    20 x    13 x   112          11285805440       0.0%    100.0%      0.0%
 flops    13 x    20 x   112          11299491840       0.0%    100.0%      0.0%
 flops     5 x    20 x   112          11970336000       0.0%    100.0%      0.0%
 flops    20 x     5 x   112          12004025600       0.0%    100.0%      0.0%
 flops    13 x    13 x    96          13045329024       0.0%    100.0%      0.0%
 flops    20 x    13 x    96          19347095040       0.0%    100.0%      0.0%
 flops    13 x    20 x    96          19370557440       0.0%    100.0%      0.0%
 flops     5 x    20 x    96          20520576000       0.0%    100.0%      0.0%
 flops    20 x     5 x    96          20578329600       0.0%    100.0%      0.0%
 flops     5 x     5 x   128          73941753600       0.0%    100.0%      0.0%
 flops    13 x     5 x   128          93963783680       0.0%    100.0%      0.0%
 flops     5 x    13 x   128          94024785920       0.0%    100.0%      0.0%
 flops    20 x    20 x   112          98693683200       0.0%    100.0%      0.0%
 flops    13 x    13 x   128         113059518208       0.0%    100.0%      0.0%
 flops    20 x    13 x   128         167674823680       0.0%    100.0%      0.0%
 flops    13 x    20 x   128         167878164480       0.0%    100.0%      0.0%
 flops    20 x    20 x    96         169189171200       0.0%    100.0%      0.0%
 flops     5 x    20 x   128         177844992000       0.0%    100.0%      0.0%
 flops    20 x     5 x   128         178345523200       0.0%    100.0%      0.0%
 flops    20 x    20 x   128        1466306150400       0.0%    100.0%      0.0%
 flops inhomo. stacks                           0       0.0%      0.0%      0.0%
 flops total                         2.995806E+12       0.0%    100.0%      0.0%
 flops max/rank                     27.736591E+09       0.0%    100.0%      0.0%
 matmuls inhomo. stacks                         0       0.0%      0.0%      0.0%
 matmuls total                           72293520       0.0%    100.0%      0.0%
 number of processed stacks                864048       0.0%    100.0%      0.0%
 average stack size                                     0.0      83.7       0.0
 marketing flops                     6.169033E+12
 -------------------------------------------------------------------------------
 # multiplications                             47
 max memory usage/rank               1.632494E+09
 # max total images/rank                        2
 # max 3D layers                                1
 # MPI messages exchanged                  174464
 MPI messages size (bytes):
  total size                       106.645668E+09
  min size                         311.808000E+03
  max size                         841.728000E+03
  average size                     611.276062E+03
 MPI breakdown and total messages size (bytes):
             size <=      128                   0                        0
       128 < size <=     8192                   0                        0
      8192 < size <=    32768                   0                        0
     32768 < size <=   131072                   0                        0
    131072 < size <=  4194304              174464             106645668096
   4194304 < size <= 16777216                   0                        0
  16777216 < size                               0                        0
 -------------------------------------------------------------------------------

 *** WARNING in dbcsr_mm.F:290 :: Using a non-square number of MPI ranks ***
 *** might lead to poor performance. Used ranks: 128 Suggested: 121 256  ***

 -------------------------------------------------------------------------------
 -                                                                             -
 -                      DBCSR MESSAGE PASSING PERFORMANCE                      -
 -                                                                             -
 -------------------------------------------------------------------------------
 ROUTINE             CALLS      AVE VOLUME [Bytes]
 MP_Bcast               28                     12.
 MP_Allreduce          403                     11.
 MP_Alltoall          1328                 574593.
 MP_ISend             3008                 289127.
 MP_IRecv             3008                 282557.
 -------------------------------------------------------------------------------

 -------------------------------------------------------------------------------
 -                                                                             -
 -                                DBM STATISTICS                               -
 -                                                                             -
 -------------------------------------------------------------------------------
    M  x    N  x    K                                          COUNT     PERCENT
 -------------------------------------------------------------------------------

 -------------------------------------------------------------------------------
 -                                                                             -
 -                                GRID STATISTICS                              -
 -                                                                             -
 -------------------------------------------------------------------------------
 LP    KERNEL             BACKEND                              COUNT     PERCENT
 4     collocate general  REF                               19007223      22.64%
 4     integrate general  REF                               18875310      22.48%
 3     collocate general  REF                               12807312      15.25%
 3     integrate general  REF                               12748369      15.18%
 2     collocate general  REF                               10036991      11.95%
 2     integrate general  REF                                9823438      11.70%
 5     integrate general  REF                                 404409       0.48%
 0     collocate general  REF                                 129792       0.15%
 0     integrate general  REF                                  64896       0.08%
 1     integrate general  REF                                  64896       0.08%
 -------------------------------------------------------------------------------

 MEMORY| Estimated peak process memory [MiB]                                1820

 -------------------------------------------------------------------------------
 ----                             MULTIGRID INFO                            ----
 -------------------------------------------------------------------------------
 count for grid        1:        1092780          cutoff [a.u.]          200.00
 count for grid        2:        1087647          cutoff [a.u.]           66.67
 count for grid        3:         709303          cutoff [a.u.]           22.22
 count for grid        4:         546085          cutoff [a.u.]            7.41
 total gridlevel count  :        3435815

 -------------------------------------------------------------------------------
 -                                                                             -
 -                         MESSAGE PASSING PERFORMANCE                         -
 -                                                                             -
 -------------------------------------------------------------------------------

 ROUTINE             CALLS      AVE VOLUME [Bytes]
 MP_Group                4
 MP_Bcast              244                2336111.
 MP_Allreduce         3607                  29600.
 MP_Sync                98
 MP_Alltoall          2842               16924622.
 MP_SendRecv           508                   6033.
 MP_ISendRecv        23876                  61740.
 MP_Wait             42206
 MP_comm_split          47
 MP_ISend            17276                 256021.
 MP_IRecv            17276                 256021.
 MP_Recv               183                1677056.
 MP_Write_All            3                1797408.
 -------------------------------------------------------------------------------


 -------------------------------------------------------------------------------
 -                                                                             -
 -                           R E F E R E N C E S                               -
 -                                                                             -
 -------------------------------------------------------------------------------
 
 CP2K version 2022.1, the CP2K developers group (2022).
 CP2K is freely available from https://www.cp2k.org/ .

 Kuehne,Thomas D.; Iannuzzi,Marcella; Del Ben,Mauro;
 Rybkin,Vladimir V.; Seewald,Patrick; Stein,Frederick; Laino,Teodoro;
 Khaliullin,Rustam Z.; Schuett,Ole; Schiffmann,Florian; Golze,Dorothea;
 Wilhelm,Jan; Chulkov,Sergey; Bani-Hashemian,Mohammad Hossein;
 Weber,Valery; Borstnik,Urban; Taillefumier,Mathieu;
 Jakobovits,Alice Shoshana; Lazzaro,Alfio; Pabst,Hans; Mueller,Tiziano;
 Schade,Robert; Guidon,Manuel; Andermatt,Samuel; Holmberg,Nico;
 Schenter,Gregory K.; Hehn,Anna; Bussy,Augustin; Belleflamme,Fabian;
 Tabacchi,Gloria; Gloess,Andreas; Lass,Michael; Bethune,Iain;
 Mundy,Christopher J.; Plessl,Christian; Watkins,Matt;
 VandeVondele,Joost; Krack,Matthias; Hutter,Juerg. 
 The Journal of Chemical Physics, 152 (19), (2020). 
 CP2K: An electronic structure and molecular dynamics software package -
 Quickstep: Efficient and accurate electronic structure calculations.
 https://doi.org/10.1063/5.0007045

 Goerigk, Lars; Hansen, Andreas; Bauer, Christoph; Ehrlich, Stephan;
 Najibi, Asim; Grimme, Stefan. , 19 (48), (2017). 
 A look at the density functional theory zoo with the advanced GMTKN55 database
 for general main group thermochemistry, kinetics and noncovalent interactions.
 https://doi.org/10.1039/C7CP04913G

 Bani-Hashemian, MH; Bruck, S; Luisier, M; VandeVondele, J. 
 JOURNAL OF CHEMICAL PHYSICS, 144 (4), 044113 (2016). 
 A generalized Poisson solver for first-principles device simulations.
 https://doi.org/10.1063/1.4940796

 Schuett, Ole; Messmer, Peter; Hutter, Juerg; VandeVondele, Joost. 
 Electronic Structure Calculations on Graphics Processing Units, John
 Wiley & Sons, Ltd, 173-190 (2016). 
 GPU-Accelerated Sparse Matrix-Matrix Multiplication for
 Linear Scaling Density Functional Theory.
 https://doi.org/10.1002/9781118670712.ch8

 Heinecke, A; Henry, G; Hutchinson, M; Pabst, H. 
 Proceedings of Intl. Supercomputing Conference, 981-991 (2016). 
 LIBXSMM: Accelerating Small Matrix Multiplications
 by Runtime Code Generation.
 https://doi.org/10.1109/SC.2016.83

 Borstnik, U; VandeVondele, J; Weber, V; Hutter, J. 
 PARALLEL COMPUTING, 40 (5-6), 47-58 (2014). 
 Sparse matrix multiplication: The distributed block-compressed sparse
 row library.
 https://doi.org/10.1016/j.parco.2014.03.012

 Hutter, J; Iannuzzi, M; Schiffmann, F; VandeVondele, J. 
 WIREs Comput Mol Sci., 4 (1), 15-25 (2014). 
 CP2K: atomistic simulations of condensed matter systems.
 https://doi.org/10.1002/wcms.1159

 Marek, A; Blum, V; Johanni, R; Havu, V; Lang, B; Auckenthaler, T;
 Heinecke, A; Bungartz, H; Lederer, H. 
 Journal of Physics: Condensed Matter, 26 (21), (2014). 
 The ELPA library: scalable parallel eigenvalue solutions for
 electronic structure
 theory and computational science.
 https://doi.org/10.1088/0953-8984/26/21/213201

 Grimme, S; Ehrlich, S; Goerigk, L. 
 JOURNAL OF COMPUTATIONAL CHEMISTRY, 32, 1456 (2011). 
 Effect of the damping function in dispersion corrected density functional theory.
 https://doi.org/10.1002/jcc.21759

 Grimme, S; Antony, J; Ehrlich, S; Krieg, H. 
 JOURNAL OF CHEMICAL PHYSICS, 132 (15), 154104 (2010). 
 A consistent and accurate ab initio parametrization of density
 functional dispersion correction (DFT-D) for the 94 elements H-Pu.
 https://doi.org/10.1063/1.3382344

 VandeVondele, J; Hutter, J. 
 JOURNAL OF CHEMICAL PHYSICS, 127 (11), 114105 (2007). 
 Gaussian basis sets for accurate calculations on molecular systems in
 gas and condensed phases.
 https://doi.org/10.1063/1.2770708

 Krack, M. 
 THEORETICAL CHEMISTRY ACCOUNTS, 114 (1-3), 145-152 (2005). 
 Pseudopotentials for H to Kr optimized for gradient-corrected
 exchange-correlation functionals.
 https://doi.org/10.1007/s00214-005-0655-y

 VandeVondele, J; Krack, M; Mohamed, F; Parrinello, M; Chassaing, T;
 Hutter, J. COMPUTER PHYSICS COMMUNICATIONS, 167 (2), 103-128 (2005). 
 QUICKSTEP: Fast and accurate density functional calculations using a
 mixed Gaussian and plane waves approach.
 https://doi.org/10.1016/j.cpc.2004.12.014

 Frigo, M; Johnson, SG. 
 PROCEEDINGS OF THE IEEE, 93 (2), 216-231 (2005). 
 The design and implementation of FFTW3.
 https://doi.org/10.1109/JPROC.2004.840301

 Hartwigsen, C; Goedecker, S; Hutter, J. 
 PHYSICAL REVIEW B, 58 (7), 3641-3662 (1998). 
 Relativistic separable dual-space Gaussian pseudopotentials from H to Rn.
 https://doi.org/10.1103/PhysRevB.58.3641

 Lippert, G; Hutter, J; Parrinello, M. 
 MOLECULAR PHYSICS, 92 (3), 477-487 (1997). 
 A hybrid Gaussian and plane wave density functional scheme.
 https://doi.org/10.1080/002689797170220

 Perdew, JP; Burke, K; Ernzerhof, M. 
 PHYSICAL REVIEW LETTERS, 77 (18), 3865-3868 (1996). 
 Generalized gradient approximation made simple.
 https://doi.org/10.1103/PhysRevLett.77.3865

 Goedecker, S; Teter, M; Hutter, J. 
 PHYSICAL REVIEW B, 54 (3), 1703-1710 (1996). 
 Separable dual-space Gaussian pseudopotentials.
 https://doi.org/10.1103/PhysRevB.54.1703


 -------------------------------------------------------------------------------
 -                                                                             -
 -                                T I M I N G                                  -
 -                                                                             -
 -------------------------------------------------------------------------------
 SUBROUTINE                       CALLS  ASD         SELF TIME        TOTAL TIME
                                MAXIMUM       AVERAGE  MAXIMUM  AVERAGE  MAXIMUM
 CP2K                                 1  1.0    0.042    0.052  329.205  329.207
 qs_forces                            1  2.0    0.002    0.002  328.840  328.842
 qs_energies                          1  3.0    0.000    0.001  322.659  322.662
 scf_env_do_scf                       1  4.0    0.000    0.001  314.414  314.552
 scf_env_do_scf_inner_loop           46  5.0    0.003    0.006  314.414  314.551
 rebuild_ks_matrix                   47  6.9    0.000    0.000  169.556  169.602
 qs_ks_build_kohn_sham_matrix        47  7.9    0.007    0.008  169.555  169.602
 qs_ks_update_qs_env                 46  6.0    0.000    0.000  165.498  165.545
 pw_transfer                       2448 12.2    0.179    0.240  106.136  108.431
 fft_wrap_pw1pw2                   2448 13.2    0.025    0.031  105.957  108.191
 fft_wrap_pw1pw2_200               2166 14.4    7.191    8.507  104.509  106.589
 pw_poisson_solve                    47  8.9    0.005    0.013   91.183   91.220
 qs_scf_new_mos                      46  6.0    0.002    0.005   88.426   88.558
 fft3d_ps                          2448 15.2   30.680   34.275   85.095   88.213
 implicit_poisson_solver_mixed_      47  9.9    1.940    2.353   86.382   86.445
 eigensolver                         46  7.0    0.004    0.005   83.414   83.644
 derive_fft                         282 12.1    0.018    0.040   60.700   60.831
 cp_fm_diag_elpa                     47  8.0    0.001    0.001   58.717   58.861
 cp_fm_redistribute_end              47  9.0    7.688   58.189    7.782   58.249
 cp_fm_diag_elpa_base                47  9.0   49.676   56.829   50.173   57.453
 mp_alltoall_z22v                  2448 17.2   45.455   55.883   45.455   55.883
 qs_rho_update_rho_low               47  6.0    0.000    0.001   53.506   53.517
 calculate_rho_elec                  47  7.0    0.091    0.125   53.505   53.517
 sum_up_and_integrate                47  8.9    0.255    0.318   52.419   52.467
 integrate_v_rspace                  47  9.9    0.002    0.002   52.163   52.276
 apply_P_operator                   235 11.1    1.250    1.384   51.805   51.940
 grid_collocate_task_list            47  8.0   33.522   42.102   33.522   42.102
 grid_integrate_task_list            47 10.9   31.071   38.289   31.071   38.289
 x_to_yz                           1411 16.4    5.975    7.689   34.369   35.613
 rs_pw_transfer                     380 10.4    0.005    0.006   24.395   29.464
 cp_fm_triangular_multiply          138  8.0   25.891   26.187   25.891   26.187
 yz_to_x                            755 16.4    2.063    2.386   18.934   25.783
 density_rs2pw                       47  8.0    0.003    0.004   18.830   24.064
 qs_vxc_create                       47  8.9    0.001    0.002   23.184   23.473
 xc_vxc_pw_create                    47  9.9    0.400    0.496   23.182   23.472
 xc_pw_derive                       282 11.9    0.004    0.005   16.372   18.109
 mp_waitany                       17276 12.4   11.594   17.239   11.594   17.239
 rs_pw_transfer_RS2PW_200            49  9.9    3.139    3.599   11.685   16.725
 apply_poisson_operator_fft          47 10.9    0.001    0.001   15.107   15.365
 apply_inv_laplace_operator_fft     143 11.6    0.357    0.410   13.825   14.296
 mp_alltoall_d11v                   665 10.2    9.173   13.750    9.173   13.750
 potential_pw2rs                     47 10.9    0.014    0.016   13.353   13.450
 xc_pw_divergence                    47 10.9    0.002    0.003   11.046   12.399
 rs_gather_matrices                  47 10.9    0.056    0.071    7.726   12.290
 xc_rho_set_and_dset_create          47 10.9    0.232    0.265   11.324   12.060
 ps_implicit_compute_error_fft       94 10.9    0.591    0.715   10.158   10.864
 ps_implicit_compute_veps            47 10.9    0.273    0.319   10.422   10.605
 pw_scatter_p                      1552 15.4    8.702   10.164    8.702   10.164
 rs_pw_transfer_PW2RS_200            49 12.8    3.701    3.880    7.719    7.911
 gspace_mixing                       45  6.0    0.086    0.106    7.809    7.811
 pw_derive                         1128 13.1    7.157    7.616    7.157    7.616
 -------------------------------------------------------------------------------

 The number of warnings for this run is : 1
 
 -------------------------------------------------------------------------------
  **** **** ******  **  PROGRAM ENDED AT                 2023-12-02 02:49:46.885
 ***** ** ***  *** **   PROGRAM RAN ON                                     cu001
 **    ****   ******    PROGRAM RAN BY                                     jxzhu
 ***** **    ** ** **   PROGRAM PROCESS ID                                 26229
  **** **  *******  **  PROGRAM STOPPED IN /public/home/jxzhu/tmp_calc/3903a863e
                                           65d7b74065912328cf943ac122894d7/calc/
                                           000500.000/search_lo.000000
