 DBCSR| CPU Multiplication driver                                           XSMM
 DBCSR| Multrec recursion limit                                              512
 DBCSR| Multiplication stack size                                           1000
 DBCSR| Maximum elements for images                                    UNLIMITED
 DBCSR| Multiplicative factor virtual images                                   1
 DBCSR| Use multiplication densification                                       T
 DBCSR| Multiplication size stacks                                             3
 DBCSR| Use memory pool for CPU allocation                                     F
 DBCSR| Number of 3D layers                                               SINGLE
 DBCSR| Use MPI memory allocation                                              F
 DBCSR| Use RMA algorithm                                                      F
 DBCSR| Use Communication thread                                               T
 DBCSR| Communication thread load                                             87
 DBCSR| MPI: My node id                                                        0
 DBCSR| MPI: Number of nodes                                                  32
 DBCSR| OMP: Current number of threads                                         1
 DBCSR| OMP: Max number of threads                                             1
 DBCSR| Split modifier for TAS multiplication algorithm                  1.0E+00


  **** **** ******  **  PROGRAM STARTED AT               2023-12-03 03:29:32.802
 ***** ** ***  *** **   PROGRAM STARTED ON                                 cu042
 **    ****   ******    PROGRAM STARTED BY                                 jxzhu
 ***** **    ** ** **   PROGRAM PROCESS ID                                 17586
  **** **  *******  **  PROGRAM STARTED IN /public/home/jxzhu/tmp_calc/04c0855f9
                                           8753fac23fde4df51ba20f3741a9e9a/calc/
                                           task.002.000000

 CP2K| version string:                                       CP2K version 2022.1
 CP2K| source code revision number:                                  git:2caeb6f
 CP2K| cp2kflags: omp libint fftw3 libxc elpa parallel mpi3 scalapack cosma xsmm
 CP2K|             plumed2 spglib mkl sirius libvori libbqb
 CP2K| is freely available from                            https://www.cp2k.org/
 CP2K| Program compiled at                           Mon Jul 3 17:37:06 CST 2023
 CP2K| Program compiled on                                                 mu003
 CP2K| Program compiled for                                                local
 CP2K| Data directory path                             /public/home/jxzhu/basis/
 CP2K| Input file name                                                 input.inp
 
 GLOBAL| Force Environment number                                              1
 GLOBAL| Basis set file name                                        BASIS_MOLOPT
 GLOBAL| Potential file name                                      GTH_POTENTIALS
 GLOBAL| MM Potential file name                                     MM_POTENTIAL
 GLOBAL| Coordinate file name                                          coord.xyz
 GLOBAL| Method name                                                        CP2K
 GLOBAL| Project name                                                       cp2k
 GLOBAL| Run type                                                   ENERGY_FORCE
 GLOBAL| FFT library                                                       FFTW3
 GLOBAL| Diagonalization library                                            ELPA
 GLOBAL| Minimum number of eigenvectors for ELPA usage                        16
 GLOBAL| Orthonormality check for eigenvectors                          DISABLED
 GLOBAL| Matrix multiplication library                                     COSMA
 GLOBAL| All-to-all communication in single precision                          F
 GLOBAL| FFTs using library dependent lengths                                  T
 GLOBAL| Grid backend                                                       AUTO
 GLOBAL| Global print level                                               MEDIUM
 GLOBAL| MPI I/O enabled                                                       T
 GLOBAL| Total number of message passing processes                            32
 GLOBAL| Number of threads for this process                                    1
 GLOBAL| This output is from process                                           0
 GLOBAL| Stack size for threads created by OpenMP (OMP_STACKSIZE)        default
 GLOBAL| CPU model name                 Intel(R) Xeon(R) Gold 6338 CPU @ 2.00GHz
 GLOBAL| CPUID                                                              1003

 MEMORY| system memory details [Kb]
 MEMORY|                        rank 0           min           max       average
 MEMORY| MemTotal            263619172     263619172     263619172     263619172
 MEMORY| MemFree             173647384     173647384     173648004     173647616
 MEMORY| Buffers                  3320          3320          3320          3320
 MEMORY| Cached                9134328       9134328       9134328       9134328
 MEMORY| Slab                  1954288       1954288       1954288       1954288
 MEMORY| SReclaimable           248628        248628        248628        248628
 MEMORY| MemLikelyFree       183033660     183033660     183034280     183033892


 *** Fundamental physical constants (SI units) ***

 *** Literature: B. J. Mohr and B. N. Taylor,
 ***             CODATA recommended values of the fundamental physical
 ***             constants: 2006, Web Version 5.1
 ***             http://physics.nist.gov/constants

 Speed of light in vacuum [m/s]                             2.99792458000000E+08
 Magnetic constant or permeability of vacuum [N/A**2]       1.25663706143592E-06
 Electric constant or permittivity of vacuum [F/m]          8.85418781762039E-12
 Planck constant (h) [J*s]                                  6.62606896000000E-34
 Planck constant (h-bar) [J*s]                              1.05457162825177E-34
 Elementary charge [C]                                      1.60217648700000E-19
 Electron mass [kg]                                         9.10938215000000E-31
 Electron g factor [ ]                                     -2.00231930436220E+00
 Proton mass [kg]                                           1.67262163700000E-27
 Fine-structure constant                                    7.29735253760000E-03
 Rydberg constant [1/m]                                     1.09737315685270E+07
 Avogadro constant [1/mol]                                  6.02214179000000E+23
 Boltzmann constant [J/K]                                   1.38065040000000E-23
 Atomic mass unit [kg]                                      1.66053878200000E-27
 Bohr radius [m]                                            5.29177208590000E-11

 *** Conversion factors ***

 [u] -> [a.u.]                                              1.82288848426455E+03
 [Angstrom] -> [Bohr] = [a.u.]                              1.88972613288564E+00
 [a.u.] = [Bohr] -> [Angstrom]                              5.29177208590000E-01
 [a.u.] -> [s]                                              2.41888432650478E-17
 [a.u.] -> [fs]                                             2.41888432650478E-02
 [a.u.] -> [J]                                              4.35974393937059E-18
 [a.u.] -> [N]                                              8.23872205491840E-08
 [a.u.] -> [K]                                              3.15774647902944E+05
 [a.u.] -> [kJ/mol]                                         2.62549961709828E+03
 [a.u.] -> [kcal/mol]                                       6.27509468713739E+02
 [a.u.] -> [Pa]                                             2.94210107994716E+13
 [a.u.] -> [bar]                                            2.94210107994716E+08
 [a.u.] -> [atm]                                            2.90362800883016E+08
 [a.u.] -> [eV]                                             2.72113838565563E+01
 [a.u.] -> [Hz]                                             6.57968392072181E+15
 [a.u.] -> [1/cm] (wave numbers)                            2.19474631370540E+05
 [a.u./Bohr**2] -> [1/cm]                                   5.14048714338585E+03
 

 CELL_TOP| Volume [angstrom^3]:                                     12686.086737
 CELL_TOP| Vector a [angstrom    16.869     0.000     0.000   |a| =    16.869000
 CELL_TOP| Vector b [angstrom    -8.434    14.609     0.000   |b| =    16.868929
 CELL_TOP| Vector c [angstrom     0.000     0.000    51.478   |c| =    51.477900
 CELL_TOP| Angle (b,c), alpha [degree]:                                90.000000
 CELL_TOP| Angle (a,c), beta  [degree]:                                90.000000
 CELL_TOP| Angle (a,b), gamma [degree]:                               120.000140
 CELL_TOP| Numerically orthorhombic:                                          NO
 
 GENERATE|  Preliminary Number of Bonds generated:                             0
 GENERATE|  Achieved consistency in connectivity generation.

 CELL| Volume [angstrom^3]:                                         12686.086737
 CELL| Vector a [angstrom]:      16.869     0.000     0.000   |a| =    16.869000
 CELL| Vector b [angstrom]:      -8.434    14.609     0.000   |b| =    16.868929
 CELL| Vector c [angstrom]:       0.000     0.000    51.478   |c| =    51.477900
 CELL| Angle (b,c), alpha [degree]:                                    90.000000
 CELL| Angle (a,c), beta  [degree]:                                    90.000000
 CELL| Angle (a,b), gamma [degree]:                                   120.000140
 CELL| Numerically orthorhombic:                                              NO

 CELL_REF| Volume [angstrom^3]:                                     12686.086737
 CELL_REF| Vector a [angstrom    16.869     0.000     0.000   |a| =    16.869000
 CELL_REF| Vector b [angstrom    -8.434    14.609     0.000   |b| =    16.868929
 CELL_REF| Vector c [angstrom     0.000     0.000    51.478   |c| =    51.477900
 CELL_REF| Angle (b,c), alpha [degree]:                                90.000000
 CELL_REF| Angle (a,c), beta  [degree]:                                90.000000
 CELL_REF| Angle (a,b), gamma [degree]:                               120.000140
 CELL_REF| Numerically orthorhombic:                                          NO

 *******************************************************************************
 *******************************************************************************
 **                                                                           **
 **     #####                         ##              ##                      **
 **    ##   ##            ##          ##              ##                      **
 **   ##     ##                       ##            ######                    **
 **   ##     ##  ##   ##  ##   #####  ##  ##   ####   ##    #####    #####    **
 **   ##     ##  ##   ##  ##  ##      ## ##   ##      ##   ##   ##  ##   ##   **
 **   ##  ## ##  ##   ##  ##  ##      ####     ###    ##   ######   ######    **
 **    ##  ###   ##   ##  ##  ##      ## ##      ##   ##   ##       ##        **
 **     #######   #####   ##   #####  ##  ##  ####    ##    #####   ##        **
 **           ##                                                    ##        **
 **                                                                           **
 **                                                ... make the atoms dance   **
 **                                                                           **
 **            Copyright (C) by CP2K developers group (2000-2022)             **
 **                      J. Chem. Phys. 152, 194103 (2020)                    **
 **                                                                           **
 *******************************************************************************

 DFT| Spin restricted Kohn-Sham (RKS) calculation                            RKS
 DFT| Multiplicity                                                             1
 DFT| Number of spin states                                                    1
 DFT| Charge                                                                   0
 DFT| Self-interaction correction (SIC)                                       NO
 DFT| Cutoffs: density                                              1.000000E-10
 DFT|          gradient                                             1.000000E-10
 DFT|          tau                                                  1.000000E-10
 DFT|          cutoff_smoothing_range                               0.000000E+00
 DFT| XC density smoothing                                                  NONE
 DFT| XC derivatives                                                          PW

 FUNCTIONAL| PBE:
 FUNCTIONAL| J.P.Perdew, K.Burke, M.Ernzerhof, Phys. Rev. Letter, vol. 77, n 18,
 FUNCTIONAL|  pp. 3865-3868, (1996){spin unpolarized}                           

 vdW POTENTIAL|                                                   Pair Potential
 vdW POTENTIAL|          DFT-D3 (Version 3.1)
 vdW POTENTIAL|          Potential Form: S. Grimme et al, JCP 132: 154104 (2010)
 vdW POTENTIAL|          Zero Damping
 vdW POTENTIAL|          Cutoff Radius [Bohr]:                             20.00
 vdW POTENTIAL|          s6 Scaling Factor:                               1.0000
 vdW POTENTIAL|          sr6 Scaling Factor:                              1.2170
 vdW POTENTIAL|          s8 Scaling Factor:                               0.7220
 vdW POTENTIAL|          Cutoff for CN calculation:                   0.1000E-05

 QS| Method:                                                                 GPW
 QS| Density plane wave grid type                        NON-SPHERICAL FULLSPACE
 QS| Number of grid levels:                                                    4
 QS| Density cutoff [a.u.]:                                                200.0
 QS| Multi grid cutoff [a.u.]: 1) grid level                               200.0
 QS|                           2) grid level                                66.7
 QS|                           3) grid level                                22.2
 QS|                           4) grid level                                 7.4
 QS| Grid level progression factor:                                          3.0
 QS| Relative density cutoff [a.u.]:                                        20.0
 QS| Interaction thresholds: eps_pgf_orb:                                3.2E-07
 QS|                         eps_filter_matrix:                          0.0E+00
 QS|                         eps_core_charge:                            1.0E-15
 QS|                         eps_rho_gspace:                             1.0E-13
 QS|                         eps_rho_rspace:                             1.0E-13
 QS|                         eps_gvg_rspace:                             3.2E-07
 QS|                         eps_ppl:                                    1.0E-02
 QS|                         eps_ppnl:                                   3.2E-09


 ATOMIC KIND INFORMATION

  1. Atomic kind: Pt                                    Number of atoms:     216

     Orbital Basis Set                      DZVP-A5-Q10-323-MOL-T1-DERIVED_SET-1

       Number of orbital shell sets:                                           1
       Number of orbital shells:                                               6
       Number of primitive Cartesian functions:                                5
       Number of Cartesian basis functions:                                   23
       Number of spherical basis functions:                                   20
       Norm type:                                                              2

       Normalised Cartesian orbitals:

                        Set   Shell   Orbital            Exponent    Coefficient

                          1       1    2s                2.521825       0.177473
                                                         1.453920      -0.063399
                                                         0.614053      -0.407089
                                                         0.232656       0.262254
                                                         0.074788       0.047371

                          1       2    3s                2.521825      -0.049056
                                                         1.453920       0.044904
                                                         0.614053      -0.009756
                                                         0.232656      -0.144709
                                                         0.074788       0.144085

                          1       3    3px               2.521825      -0.317572
                                                         1.453920       0.534826
                                                         0.614053      -0.489458
                                                         0.232656       0.245631
                                                         0.074788       0.018221
                          1       3    3py               2.521825      -0.317572
                                                         1.453920       0.534826
                                                         0.614053      -0.489458
                                                         0.232656       0.245631
                                                         0.074788       0.018221
                          1       3    3pz               2.521825      -0.317572
                                                         1.453920       0.534826
                                                         0.614053      -0.489458
                                                         0.232656       0.245631
                                                         0.074788       0.018221

                          1       4    4dx2              2.521825       3.008522
                                                         1.453920      -1.224251
                                                         0.614053       0.225691
                                                         0.232656       0.125144
                                                         0.074788      -0.015348
                          1       4    4dxy              2.521825       5.210912
                                                         1.453920      -2.120465
                                                         0.614053       0.390909
                                                         0.232656       0.216756
                                                         0.074788      -0.026584
                          1       4    4dxz              2.521825       5.210912
                                                         1.453920      -2.120465
                                                         0.614053       0.390909
                                                         0.232656       0.216756
                                                         0.074788      -0.026584
                          1       4    4dy2              2.521825       3.008522
                                                         1.453920      -1.224251
                                                         0.614053       0.225691
                                                         0.232656       0.125144
                                                         0.074788      -0.015348
                          1       4    4dyz              2.521825       5.210912
                                                         1.453920      -2.120465
                                                         0.614053       0.390909
                                                         0.232656       0.216756
                                                         0.074788      -0.026584
                          1       4    4dz2              2.521825       3.008522
                                                         1.453920      -1.224251
                                                         0.614053       0.225691
                                                         0.232656       0.125144
                                                         0.074788      -0.015348

                          1       5    5dx2              2.521825       0.698026
                                                         1.453920      -1.511486
                                                         0.614053      -0.335394
                                                         0.232656      -0.025564
                                                         0.074788      -0.002699
                          1       5    5dxy              2.521825       1.209017
                                                         1.453920      -2.617970
                                                         0.614053      -0.580920
                                                         0.232656      -0.044277
                                                         0.074788      -0.004674
                          1       5    5dxz              2.521825       1.209017
                                                         1.453920      -2.617970
                                                         0.614053      -0.580920
                                                         0.232656      -0.044277
                                                         0.074788      -0.004674
                          1       5    5dy2              2.521825       0.698026
                                                         1.453920      -1.511486
                                                         0.614053      -0.335394
                                                         0.232656      -0.025564
                                                         0.074788      -0.002699
                          1       5    5dyz              2.521825       1.209017
                                                         1.453920      -2.617970
                                                         0.614053      -0.580920
                                                         0.232656      -0.044277
                                                         0.074788      -0.004674
                          1       5    5dz2              2.521825       0.698026
                                                         1.453920      -1.511486
                                                         0.614053      -0.335394
                                                         0.232656      -0.025564
                                                         0.074788      -0.002699

                          1       6    6dx2              2.521825       0.831079
                                                         1.453920      -0.709226
                                                         0.614053      -0.137351
                                                         0.232656       0.068642
                                                         0.074788       0.011745
                          1       6    6dxy              2.521825       1.439472
                                                         1.453920      -1.228415
                                                         0.614053      -0.237899
                                                         0.232656       0.118891
                                                         0.074788       0.020343
                          1       6    6dxz              2.521825       1.439472
                                                         1.453920      -1.228415
                                                         0.614053      -0.237899
                                                         0.232656       0.118891
                                                         0.074788       0.020343
                          1       6    6dy2              2.521825       0.831079
                                                         1.453920      -0.709226
                                                         0.614053      -0.137351
                                                         0.232656       0.068642
                                                         0.074788       0.011745
                          1       6    6dyz              2.521825       1.439472
                                                         1.453920      -1.228415
                                                         0.614053      -0.237899
                                                         0.232656       0.118891
                                                         0.074788       0.020343
                          1       6    6dz2              2.521825       0.831079
                                                         1.453920      -0.709226
                                                         0.614053      -0.137351
                                                         0.232656       0.068642
                                                         0.074788       0.011745

       Atomic covalent radius [Angstrom]:                                  1.300

       Atomic van der Waals radius [Angstrom]:                             1.750

     GTH Potential information for                                   GTH-PBE-q10

       Description:                       Goedecker-Teter-Hutter pseudopotential
                                           Goedecker et al., PRB 54, 1703 (1996)
                                          Hartwigsen et al., PRB 58, 3641 (1998)
                                                      Krack, TCA 114, 145 (2005)

       Gaussian exponent of the core charge distribution:               1.317676
       Electronic configuration (s p d ...):                           1   0   9

       Parameters of the local part of the GTH pseudopotential:

                          rloc        C1          C2          C3          C4
                        0.616000   11.313635

       Parameters of the non-local part of the GTH pseudopotential:

                   l      r(l)      h(i,j,l)

                   0    0.550904    4.733491   -1.784594
                                   -1.784594    2.303901
                   1    0.674138    2.534798   -1.778066
                                   -1.778066    2.103836
                   2    0.457392   -7.264011    2.558665
                                    2.558665   -2.901253


 MOLECULE KIND INFORMATION


 All atoms are their own molecule, skipping detailed information


 TOTAL NUMBERS AND MAXIMUM NUMBERS

  Total number of            - Atomic kinds:                                   1
                             - Atoms:                                        216
                             - Shell sets:                                   216
                             - Shells:                                      1296
                             - Primitive Cartesian functions:               1080
                             - Cartesian basis functions:                   4968
                             - Spherical basis functions:                   4320

  Maximum angular momentum of- Orbital basis functions:                        2
                             - Local part of the GTH pseudopotential:          0
                             - Non-local part of the GTH pseudopotential:      4


 MODULE QUICKSTEP:  ATOMIC COORDINATES IN angstrom

 Atom  Kind  Element       X           Y           Z          Z(eff)       Mass
    1   1 Pt  78       2.030757    0.399470   19.819938      10.0000    195.0840
    2   1 Pt  78       4.880757    0.429470   19.889938      10.0000    195.0840
    3   1 Pt  78       7.630757    0.289470   19.789935      10.0000    195.0840
    4   1 Pt  78      10.480758    0.379470   19.949935      10.0000    195.0840
    5   1 Pt  78      13.310758    0.309470   19.879935      10.0000    195.0840
    6   1 Pt  78      16.260758    0.439470   19.779933      10.0000    195.0840
    7   1 Pt  78       3.530757    2.899471   19.829936      10.0000    195.0840
    8   1 Pt  78       6.190757    2.789471   19.979938      10.0000    195.0840
    9   1 Pt  78       9.040757    2.879471   19.839934      10.0000    195.0840
   10   1 Pt  78      11.920758    2.769471   19.969936      10.0000    195.0840
   11   1 Pt  78      14.710758    2.839471   20.029937      10.0000    195.0840
   12   1 Pt  78       0.750757    2.819471   19.719936      10.0000    195.0840
   13   1 Pt  78       4.840757    5.429471   19.829936      10.0000    195.0840
   14   1 Pt  78       7.700757    5.149471   19.999934      10.0000    195.0840
   15   1 Pt  78      10.590757    5.249470   20.039935      10.0000    195.0840
   16   1 Pt  78      13.450758    5.339471   19.919936      10.0000    195.0840
   17   1 Pt  78      -0.739243    5.339471   19.889938      10.0000    195.0840
   18   1 Pt  78       2.060757    5.269471   19.809936      10.0000    195.0840
   19   1 Pt  78       6.370757    7.689471   19.869933      10.0000    195.0840
   20   1 Pt  78       9.170757    7.619471   19.859935      10.0000    195.0840
   21   1 Pt  78      11.930757    7.629471   19.959937      10.0000    195.0840
   22   1 Pt  78      -2.059243    7.769471   19.939933      10.0000    195.0840
   23   1 Pt  78       0.580757    7.769471   19.899936      10.0000    195.0840
   24   1 Pt  78       3.310757    7.749470   19.869933      10.0000    195.0840
   25   1 Pt  78       7.790757   10.149471   19.889938      10.0000    195.0840
   26   1 Pt  78      10.720757   10.089471   19.639934      10.0000    195.0840
   27   1 Pt  78      -3.499243   10.149471   19.829936      10.0000    195.0840
   28   1 Pt  78      -0.699243   10.379471   19.839934      10.0000    195.0840
   29   1 Pt  78       2.050757   10.179472   19.919936      10.0000    195.0840
   30   1 Pt  78       4.990757   10.199471   20.059936      10.0000    195.0840
   31   1 Pt  78       9.100758   12.489471   19.919936      10.0000    195.0840
   32   1 Pt  78      -4.929244   12.629471   19.949935      10.0000    195.0840
   33   1 Pt  78      -2.109243   12.549472   19.809936      10.0000    195.0840
   34   1 Pt  78       0.720757   12.569471   19.939933      10.0000    195.0840
   35   1 Pt  78       3.610757   12.589471   19.959937      10.0000    195.0840
   36   1 Pt  78       6.340757   12.579471   19.989936      10.0000    195.0840
   37   1 Pt  78       0.770757    1.319470   22.219936      10.0000    195.0840
   38   1 Pt  78       3.550757    1.169470   22.169936      10.0000    195.0840
   39   1 Pt  78       6.330757    1.199470   22.309936      10.0000    195.0840
   40   1 Pt  78       9.090757    1.199470   22.219936      10.0000    195.0840
   41   1 Pt  78      11.900758    1.149470   22.329936      10.0000    195.0840
   42   1 Pt  78      14.720757    1.359471   22.259936      10.0000    195.0840
   43   1 Pt  78       2.050757    3.749470   22.149936      10.0000    195.0840
   44   1 Pt  78       4.920757    3.649471   22.109935      10.0000    195.0840
   45   1 Pt  78       7.710757    3.539470   22.259936      10.0000    195.0840
   46   1 Pt  78      10.380757    3.559471   22.359935      10.0000    195.0840
   47   1 Pt  78      13.270758    3.689471   22.279933      10.0000    195.0840
   48   1 Pt  78      -0.739243    3.599471   22.209933      10.0000    195.0840
   49   1 Pt  78       3.510757    6.119471   22.129935      10.0000    195.0840
   50   1 Pt  78       6.280757    6.119471   22.229934      10.0000    195.0840
   51   1 Pt  78       9.110758    6.079470   22.269935      10.0000    195.0840
   52   1 Pt  78      11.870758    6.079470   22.269935      10.0000    195.0840
   53   1 Pt  78      -2.189243    6.239471   22.289935      10.0000    195.0840
   54   1 Pt  78       0.680757    6.039470   22.229934      10.0000    195.0840
   55   1 Pt  78       4.910757    8.539471   22.299934      10.0000    195.0840
   56   1 Pt  78       7.580758    8.519471   22.249938      10.0000    195.0840
   57   1 Pt  78      10.510757    8.539471   22.179935      10.0000    195.0840
   58   1 Pt  78      -3.489243    8.569471   22.209933      10.0000    195.0840
   59   1 Pt  78      -0.589243    8.579470   22.309936      10.0000    195.0840
   60   1 Pt  78       2.090757    8.619470   22.239936      10.0000    195.0840
   61   1 Pt  78       6.310757   11.049471   22.329936      10.0000    195.0840
   62   1 Pt  78       9.030757   10.939471   22.199935      10.0000    195.0840
   63   1 Pt  78      -4.949243   10.919471   22.249938      10.0000    195.0840
   64   1 Pt  78      -2.229243   11.079470   22.199935      10.0000    195.0840
   65   1 Pt  78       0.740757   11.009471   22.259936      10.0000    195.0840
   66   1 Pt  78       3.480757   11.009471   22.359935      10.0000    195.0840
   67   1 Pt  78       7.730758   13.669471   22.269935      10.0000    195.0840
   68   1 Pt  78      -6.459243   13.359471   22.179935      10.0000    195.0840
   69   1 Pt  78      -3.609243   13.399470   22.229934      10.0000    195.0840
   70   1 Pt  78      -0.719243   13.379471   22.309936      10.0000    195.0840
   71   1 Pt  78       2.060757   13.299471   22.259936      10.0000    195.0840
   72   1 Pt  78       4.890758   13.469472   22.259936      10.0000    195.0840
   73   1 Pt  78      -7.809243   14.249470   24.509936      10.0000    195.0840
   74   1 Pt  78      -4.979243   14.279471   24.419936      10.0000    195.0840
   75   1 Pt  78      -2.129243   14.189472   24.549934      10.0000    195.0840
   76   1 Pt  78       0.600757   14.129471   24.589934      10.0000    195.0840
   77   1 Pt  78       3.440757   14.219471   24.579936      10.0000    195.0840
   78   1 Pt  78       6.260757   14.309472   24.689933      10.0000    195.0840
   79   1 Pt  78       2.010757    2.199470   24.499938      10.0000    195.0840
   80   1 Pt  78       4.880757    2.179470   24.579936      10.0000    195.0840
   81   1 Pt  78       7.710757    2.099471   24.679935      10.0000    195.0840
   82   1 Pt  78      10.460757    1.909471   24.599937      10.0000    195.0840
   83   1 Pt  78      13.370757    2.049470   24.669936      10.0000    195.0840
   84   1 Pt  78      -0.779243    2.059470   24.569938      10.0000    195.0840
   85   1 Pt  78       3.560757    4.589471   24.519935      10.0000    195.0840
   86   1 Pt  78       6.290758    4.559471   24.549934      10.0000    195.0840
   87   1 Pt  78       9.190757    4.529471   24.649936      10.0000    195.0840
   88   1 Pt  78      11.840757    4.509471   24.619933      10.0000    195.0840
   89   1 Pt  78      -2.199243    4.479470   24.559936      10.0000    195.0840
   90   1 Pt  78       0.690757    4.489471   24.549934      10.0000    195.0840
   91   1 Pt  78       4.890758    7.029471   24.579936      10.0000    195.0840
   92   1 Pt  78       7.650757    6.909471   24.579936      10.0000    195.0840
   93   1 Pt  78      10.450757    7.099471   24.519935      10.0000    195.0840
   94   1 Pt  78      -3.689243    6.949471   24.569938      10.0000    195.0840
   95   1 Pt  78      -0.689243    6.929471   24.639938      10.0000    195.0840
   96   1 Pt  78       2.080757    6.929471   24.529937      10.0000    195.0840
   97   1 Pt  78       6.260757    9.479471   24.579936      10.0000    195.0840
   98   1 Pt  78       9.090757    9.399471   24.459937      10.0000    195.0840
   99   1 Pt  78      -4.919243    9.429471   24.439937      10.0000    195.0840
  100   1 Pt  78      -2.159243    9.309471   24.489936      10.0000    195.0840
  101   1 Pt  78       0.780757    9.319470   24.579936      10.0000    195.0840
  102   1 Pt  78       3.480757    9.429471   24.629935      10.0000    195.0840
  103   1 Pt  78       7.650757   11.869470   24.599937      10.0000    195.0840
  104   1 Pt  78      -6.469243   11.859471   24.439937      10.0000    195.0840
  105   1 Pt  78      -3.569243   11.819470   24.569938      10.0000    195.0840
  106   1 Pt  78      -0.779243   11.739470   24.539935      10.0000    195.0840
  107   1 Pt  78       2.000757   11.859471   24.639938      10.0000    195.0840
  108   1 Pt  78       4.780757   11.909471   24.589934      10.0000    195.0840
  109   1 Pt  78       2.050757    0.479470   26.747934      10.0000    195.0840
  110   1 Pt  78       4.910757    0.359470   26.717934      10.0000    195.0840
  111   1 Pt  78       7.650757    0.439470   26.877934      10.0000    195.0840
  112   1 Pt  78      10.360758    0.429470   26.957934      10.0000    195.0840
  113   1 Pt  78      13.240758    0.379470   26.967934      10.0000    195.0840
  114   1 Pt  78      15.970757    0.439470   26.907934      10.0000    195.0840
  115   1 Pt  78       3.500757    2.809471   26.847934      10.0000    195.0840
  116   1 Pt  78       6.180757    2.919470   26.947934      10.0000    195.0840
  117   1 Pt  78       8.970757    2.959470   26.907934      10.0000    195.0840
  118   1 Pt  78      11.790757    2.819471   26.917934      10.0000    195.0840
  119   1 Pt  78      14.640758    2.819471   26.977934      10.0000    195.0840
  120   1 Pt  78       0.610757    2.809471   26.927934      10.0000    195.0840
  121   1 Pt  78       4.780757    5.349470   26.867934      10.0000    195.0840
  122   1 Pt  78       7.590757    5.449471   26.867934      10.0000    195.0840
  123   1 Pt  78      10.360758    5.389471   26.927934      10.0000    195.0840
  124   1 Pt  78      13.130757    5.259471   26.847934      10.0000    195.0840
  125   1 Pt  78      -0.769243    5.269471   26.847934      10.0000    195.0840
  126   1 Pt  78       2.130757    5.209470   26.817934      10.0000    195.0840
  127   1 Pt  78       6.230757    7.819471   26.897934      10.0000    195.0840
  128   1 Pt  78       9.060758    7.819471   26.887934      10.0000    195.0840
  129   1 Pt  78      11.870758    7.769471   26.867934      10.0000    195.0840
  130   1 Pt  78      -2.239243    7.679471   26.877934      10.0000    195.0840
  131   1 Pt  78       0.640757    7.639471   26.897934      10.0000    195.0840
  132   1 Pt  78       3.460757    7.769471   26.887934      10.0000    195.0840
  133   1 Pt  78       7.630757   10.289470   26.807934      10.0000    195.0840
  134   1 Pt  78      10.430758   10.209470   26.727934      10.0000    195.0840
  135   1 Pt  78      -3.549243   10.189471   26.767934      10.0000    195.0840
  136   1 Pt  78      -0.789243   10.099471   26.937934      10.0000    195.0840
  137   1 Pt  78       1.920757   10.249471   27.007934      10.0000    195.0840
  138   1 Pt  78       4.790757   10.179472   26.847934      10.0000    195.0840
  139   1 Pt  78       9.010757   12.689471   26.887934      10.0000    195.0840
  140   1 Pt  78      -5.089243   12.529471   26.597934      10.0000    195.0840
  141   1 Pt  78      -2.189243   12.539471   26.907934      10.0000    195.0840
  142   1 Pt  78       0.500757   12.519471   26.937934      10.0000    195.0840
  143   1 Pt  78       3.300757   12.659470   27.047934      10.0000    195.0840
  144   1 Pt  78       6.170757   12.679472   26.957934      10.0000    195.0840
  145   1 Pt  78       0.560757    1.169470   29.217934      10.0000    195.0840
  146   1 Pt  78       3.370757    1.209471   29.017934      10.0000    195.0840
  147   1 Pt  78       6.200758    1.229470   29.117934      10.0000    195.0840
  148   1 Pt  78       9.070758    1.249470   29.157934      10.0000    195.0840
  149   1 Pt  78      11.730758    1.189470   29.347934      10.0000    195.0840
  150   1 Pt  78      14.540757    1.169470   29.287934      10.0000    195.0840
  151   1 Pt  78       1.930757    3.679470   29.207934      10.0000    195.0840
  152   1 Pt  78       4.750757    3.629471   29.057934      10.0000    195.0840
  153   1 Pt  78       7.600758    3.779471   29.187934      10.0000    195.0840
  154   1 Pt  78      10.400758    3.689471   29.187934      10.0000    195.0840
  155   1 Pt  78      13.280758    3.619471   29.147934      10.0000    195.0840
  156   1 Pt  78      -0.759243    3.729471   29.147934      10.0000    195.0840
  157   1 Pt  78       3.460757    6.159471   29.177934      10.0000    195.0840
  158   1 Pt  78       6.130757    6.139471   29.207934      10.0000    195.0840
  159   1 Pt  78       9.010757    6.189471   29.217934      10.0000    195.0840
  160   1 Pt  78      11.880757    6.139471   29.237934      10.0000    195.0840
  161   1 Pt  78      -2.129243    6.049471   29.167934      10.0000    195.0840
  162   1 Pt  78       0.740757    6.089471   29.247934      10.0000    195.0840
  163   1 Pt  78       4.810757    8.569471   29.117934      10.0000    195.0840
  164   1 Pt  78       7.650757    8.619470   29.217934      10.0000    195.0840
  165   1 Pt  78      10.410758    8.499471   29.097934      10.0000    195.0840
  166   1 Pt  78      -3.579243    8.489470   29.187934      10.0000    195.0840
  167   1 Pt  78      -0.779243    8.389471   29.147934      10.0000    195.0840
  168   1 Pt  78       1.980757    8.489470   29.137934      10.0000    195.0840
  169   1 Pt  78       6.300757   10.979471   29.237934      10.0000    195.0840
  170   1 Pt  78       9.180758   10.939471   29.257934      10.0000    195.0840
  171   1 Pt  78      -5.009243   10.949470   29.077934      10.0000    195.0840
  172   1 Pt  78      -2.249243   10.979471   29.147934      10.0000    195.0840
  173   1 Pt  78       0.430757   10.889472   29.297934      10.0000    195.0840
  174   1 Pt  78       3.380757   10.989471   29.217934      10.0000    195.0840
  175   1 Pt  78       7.720757   13.379471   29.307934      10.0000    195.0840
  176   1 Pt  78      -6.389243   13.369471   29.027934      10.0000    195.0840
  177   1 Pt  78      -3.649243   13.519471   29.227934      10.0000    195.0840
  178   1 Pt  78      -0.849243   13.369471   29.287934      10.0000    195.0840
  179   1 Pt  78       1.990757   13.349471   29.247934      10.0000    195.0840
  180   1 Pt  78       4.820757   13.319472   29.367934      10.0000    195.0840
  181   1 Pt  78      -7.799243   14.229471   31.547934      10.0000    195.0840
  182   1 Pt  78      -5.029243   14.279471   31.397934      10.0000    195.0840
  183   1 Pt  78      -2.049243   14.319470   31.477934      10.0000    195.0840
  184   1 Pt  78       0.730757   14.299471   31.507934      10.0000    195.0840
  185   1 Pt  78       3.420757   14.179471   31.767934      10.0000    195.0840
  186   1 Pt  78       6.160758   14.219471   31.607934      10.0000    195.0840
  187   1 Pt  78       2.090757    2.019471   31.457934      10.0000    195.0840
  188   1 Pt  78       4.940757    2.099471   31.467934      10.0000    195.0840
  189   1 Pt  78       7.790757    1.969471   31.527934      10.0000    195.0840
  190   1 Pt  78      10.550757    2.199470   31.587934      10.0000    195.0840
  191   1 Pt  78      13.330758    2.099471   31.657934      10.0000    195.0840
  192   1 Pt  78      -0.819243    2.039471   31.407935      10.0000    195.0840
  193   1 Pt  78       3.490757    4.479470   31.347934      10.0000    195.0840
  194   1 Pt  78       6.300757    4.549471   31.457934      10.0000    195.0840
  195   1 Pt  78       9.110758    4.499470   31.507934      10.0000    195.0840
  196   1 Pt  78      11.960757    4.629471   31.567934      10.0000    195.0840
  197   1 Pt  78      -2.179243    4.559471   31.387934      10.0000    195.0840
  198   1 Pt  78       0.620757    4.439470   31.637934      10.0000    195.0840
  199   1 Pt  78       4.640758    6.839471   31.517934      10.0000    195.0840
  200   1 Pt  78       7.560757    6.959470   31.547934      10.0000    195.0840
  201   1 Pt  78      10.420757    7.039471   31.597934      10.0000    195.0840
  202   1 Pt  78      -3.589243    6.869470   31.457934      10.0000    195.0840
  203   1 Pt  78      -0.759243    6.819471   31.507934      10.0000    195.0840
  204   1 Pt  78       2.030757    6.929471   31.837934      10.0000    195.0840
  205   1 Pt  78       6.050757    9.299471   31.317934      10.0000    195.0840
  206   1 Pt  78       8.950757    9.339471   31.457934      10.0000    195.0840
  207   1 Pt  78      -4.989243    9.379471   31.357934      10.0000    195.0840
  208   1 Pt  78      -2.289243    9.349471   31.457934      10.0000    195.0840
  209   1 Pt  78       0.700757    9.189471   31.457934      10.0000    195.0840
  210   1 Pt  78       3.350757    9.309471   31.667934      10.0000    195.0840
  211   1 Pt  78       7.630757   11.829471   31.627934      10.0000    195.0840
  212   1 Pt  78      -6.429243   11.919470   31.507934      10.0000    195.0840
  213   1 Pt  78      -3.599243   11.849471   31.547934      10.0000    195.0840
  214   1 Pt  78      -0.749243   11.659471   31.537934      10.0000    195.0840
  215   1 Pt  78       2.020757   11.739470   31.447934      10.0000    195.0840
  216   1 Pt  78       4.780757   11.719471   31.657934      10.0000    195.0840




 SCF PARAMETERS         Density guess:                                   RESTART
                        --------------------------------------------------------
                        max_scf:                                             500
                        max_scf_history:                                       0
                        max_diis:                                              4
                        --------------------------------------------------------
                        eps_scf:                                        1.00E-06
                        eps_scf_history:                                0.00E+00
                        eps_diis:                                       1.00E-01
                        eps_eigval:                                     1.00E-05
                        --------------------------------------------------------
                        level_shift [a.u.]:                             0.000000
                        added MOs                                       500    0
                        --------------------------------------------------------
                        Mixing method:                            BROYDEN_MIXING
                                                charge density mixing in g-space
                        --------------------------------------------------------
                        Smear method:                                FERMI_DIRAC
                        Electronic temperature [K]:                        300.0
                        Electronic temperature [a.u.]:                  9.50E-04
                        Accuracy threshold:                             1.00E-10
                        --------------------------------------------------------
                        No outer SCF

 PW_GRID| Information for grid number                                          1
 PW_GRID| Grid distributed over                                    32 processors
 PW_GRID| Real space group dimensions                                    32    1
 PW_GRID| the grid is blocked:                                                NO
 PW_GRID| Cutoff [a.u.]                                                    200.0
 PW_GRID| spherical cutoff:                                                   NO
 PW_GRID|   Bounds   1           -105     104                Points:         210
 PW_GRID|   Bounds   2           -105     104                Points:         210
 PW_GRID|   Bounds   3           -315     314                Points:         630
 PW_GRID| Volume element (a.u.^3)  0.3081E-02     Volume (a.u.^3)     85609.9578
 PW_GRID| Grid span                                                    FULLSPACE
 PW_GRID|   Distribution                         Average         Max         Min
 PW_GRID|   G-Vectors                           868218.8      868350      868140
 PW_GRID|   G-Rays                                4134.4        4135        4134
 PW_GRID|   Real Space Points                   868218.8      926100      793800

 PW_GRID| Information for grid number                                          2
 PW_GRID| Number of the reference grid                                         1
 PW_GRID| Grid distributed over                                    32 processors
 PW_GRID| Real space group dimensions                                    32    1
 PW_GRID| the grid is blocked:                                                NO
 PW_GRID| Cutoff [a.u.]                                                     66.7
 PW_GRID| spherical cutoff:                                                   NO
 PW_GRID|   Bounds   1            -60      59                Points:         120
 PW_GRID|   Bounds   2            -60      59                Points:         120
 PW_GRID|   Bounds   3           -180     179                Points:         360
 PW_GRID| Volume element (a.u.^3)  0.1651E-01     Volume (a.u.^3)     85609.9578
 PW_GRID| Grid span                                                    FULLSPACE
 PW_GRID|   Distribution                         Average         Max         Min
 PW_GRID|   G-Vectors                           162000.0      162840      161280
 PW_GRID|   G-Rays                                1350.0        1357        1344
 PW_GRID|   Real Space Points                   162000.0      172800      129600

 PW_GRID| Information for grid number                                          3
 PW_GRID| Number of the reference grid                                         1
 PW_GRID| Grid distributed over                                    32 processors
 PW_GRID| Real space group dimensions                                    32    1
 PW_GRID| the grid is blocked:                                                NO
 PW_GRID| Cutoff [a.u.]                                                     22.2
 PW_GRID| spherical cutoff:                                                   NO
 PW_GRID|   Bounds   1            -35      34                Points:          70
 PW_GRID|   Bounds   2            -35      34                Points:          70
 PW_GRID|   Bounds   3           -105     104                Points:         210
 PW_GRID| Volume element (a.u.^3)  0.8320E-01     Volume (a.u.^3)     85609.9578
 PW_GRID| Grid span                                                    FULLSPACE
 PW_GRID|   Distribution                         Average         Max         Min
 PW_GRID|   G-Vectors                            32156.2       32340       31990
 PW_GRID|   G-Rays                                 459.4         462         457
 PW_GRID|   Real Space Points                    32156.2       44100       29400

 PW_GRID| Information for grid number                                          4
 PW_GRID| Number of the reference grid                                         1
 PW_GRID| Grid distributed over                                    32 processors
 PW_GRID| Real space group dimensions                                    32    1
 PW_GRID| the grid is blocked:                                                NO
 PW_GRID| Cutoff [a.u.]                                                      7.4
 PW_GRID| spherical cutoff:                                                   NO
 PW_GRID|   Bounds   1            -20      19                Points:          40
 PW_GRID|   Bounds   2            -20      19                Points:          40
 PW_GRID|   Bounds   3            -60      59                Points:         120
 PW_GRID| Volume element (a.u.^3)  0.4459         Volume (a.u.^3)     85609.9578
 PW_GRID| Grid span                                                    FULLSPACE
 PW_GRID|   Distribution                         Average         Max         Min
 PW_GRID|   G-Vectors                             6000.0        6120        5920
 PW_GRID|   G-Rays                                 150.0         153         148
 PW_GRID|   Real Space Points                     6000.0        9600        4800

 POISSON| Solver                                          IMPLICIT (GENERALIZED)
 POISSON| Boundary Condition                                PERIODIC & DIRICHLET
 POISSON| Maximum number of iterations                                        30
 POISSON| Convergence threshold                                         1.00E-08
 POISSON| Dielectric Constant                                              80.00
 POISSON| Relaxation parameter                                          1.00E+00

 RS_GRID| Information for grid number                                          1
 RS_GRID|   Bounds   1           -105     104                Points:         210
 RS_GRID|   Bounds   2           -105     104                Points:         210
 RS_GRID|   Bounds   3           -315     314                Points:         630
 RS_GRID| Real space distribution over                                 32 groups
 RS_GRID| Real space distribution along direction                              3
 RS_GRID| Border size                                                         54
 RS_GRID|   Distribution                         Average         Max         Min
 RS_GRID|   Planes                                 127.7         128         127

 RS_GRID| Information for grid number                                          2
 RS_GRID|   Bounds   1            -60      59                Points:         120
 RS_GRID|   Bounds   2            -60      59                Points:         120
 RS_GRID|   Bounds   3           -180     179                Points:         360
 RS_GRID| Real space distribution over                                 32 groups
 RS_GRID| Real space distribution along direction                              3
 RS_GRID| Border size                                                         36
 RS_GRID|   Distribution                         Average         Max         Min
 RS_GRID|   Planes                                  83.2          84          83

 RS_GRID| Information for grid number                                          3
 RS_GRID|   Bounds   1            -35      34                Points:          70
 RS_GRID|   Bounds   2            -35      34                Points:          70
 RS_GRID|   Bounds   3           -105     104                Points:         210
 RS_GRID| Real space fully replicated
 RS_GRID| Group size                                                           1

 RS_GRID| Information for grid number                                          4
 RS_GRID|   Bounds   1            -20      19                Points:          40
 RS_GRID|   Bounds   2            -20      19                Points:          40
 RS_GRID|   Bounds   3            -60      59                Points:         120
 RS_GRID| Real space fully replicated
 RS_GRID| Group size                                                           1

 Number of electrons:                                                       2160
 Number of occupied orbitals:                                               1080
 Number of molecular orbitals:                                              1580

 Number of orbital functions:                                               4320
 Number of independent orbital functions:                                   4320

 Extrapolation method: initial_guess


 SCF WAVEFUNCTION OPTIMIZATION

  Step     Update method      Time    Convergence         Total energy    Change
  ------------------------------------------------------------------------------

  POISSON| IMPLICIT (GENERALIZED) SOLVER ---------------------------------------
  POISSON| Preparing Dirichlet regions ...
  POISSON| Dirichlet region    1
  POISSON|     type : axis-aligned planar
  POISSON|     applied potential :   0.0000E+00  [Eh/e]
  POISSON| Dirichlet region    2
  POISSON|     type : axis-aligned planar
  POISSON|     applied potential :   0.3675E-01  [Eh/e]
  POISSON| ... Done. 
  ------------------------------------------------------------------------------

  POISSON|   iter        pres error      nabs error        E_hartree    delta E
  POISSON|      1        0.7373E-03      0.3339E-01    1992.0405086490  0.20E+04
  POISSON|      2        0.1468E-14      0.7373E-03    1992.0440160516  0.35E-02
  POISSON| Poisson solver converged in 2 iterations.
     1 NoMix/Diag. 0.30E+00   11.1     0.26085601     -5670.7299692171 -5.67E+03
  POISSON|   iter        pres error      nabs error        E_hartree    delta E
  POISSON|      1        0.7217E-03      0.3316E-01    1991.9398334069 -0.10E+00
  POISSON|      2        0.1089E-14      0.7217E-03    1991.9432663136  0.34E-02
  POISSON| Poisson solver converged in 2 iterations.
     2 Broy./Diag. 0.30E+00   13.3     0.25964641     -5670.8918535054 -1.62E-01
  POISSON|   iter        pres error      nabs error        E_hartree    delta E
  POISSON|      1        0.3434E-04      0.3322E-03    1992.1585704363  0.22E+00
  POISSON|      2        0.6902E-16      0.3434E-04    1992.1587337928  0.16E-03
  POISSON| Poisson solver converged in 2 iterations.
     3 Broy./Diag. 0.30E+00   13.3     0.11343694     -5676.0924022527 -5.20E+00
  POISSON|   iter        pres error      nabs error        E_hartree    delta E
  POISSON|      1        0.7324E-04      0.2954E-03    1992.2182111599  0.59E-01
  POISSON|      2        0.6246E-16      0.7324E-04    1992.2178627711 -0.35E-03
  POISSON| Poisson solver converged in 2 iterations.
     4 Broy./Diag. 0.30E+00   13.3     0.14823571     -5673.1751936199  2.92E+00
  POISSON|   iter        pres error      nabs error        E_hartree    delta E
  POISSON|      1        0.6322E-04      0.2539E-03    1992.3273903470  0.11E+00
  POISSON|      2        0.3113E-16      0.6322E-04    1992.3276910980  0.30E-03
  POISSON| Poisson solver converged in 2 iterations.
     5 Broy./Diag. 0.30E+00   13.3     0.13056866     -5671.9469268035  1.23E+00
  POISSON|   iter        pres error      nabs error        E_hartree    delta E
  POISSON|      1        0.7859E-05      0.5101E-04    1992.4671810805  0.14E+00
  POISSON|      2        0.4513E-18      0.7859E-05    1992.4671436972 -0.37E-04
  POISSON| Poisson solver converged in 2 iterations.
     6 Broy./Diag. 0.30E+00   13.3     0.04479999     -5672.7148216098 -7.68E-01
  POISSON|   iter        pres error      nabs error        E_hartree    delta E
  POISSON|      1        0.1269E-05      0.3421E-04    1992.5671382523  0.10E+00
  POISSON|      2        0.1087E-16      0.1269E-05    1992.5671322137 -0.60E-05
  POISSON| Poisson solver converged in 2 iterations.
     7 Broy./Diag. 0.30E+00   13.4     0.04390921     -5672.3681723690  3.47E-01
  POISSON|   iter        pres error      nabs error        E_hartree    delta E
  POISSON|      1        0.2440E-05      0.2765E-04    1992.6436058172  0.76E-01
  POISSON|      2        0.5945E-18      0.2440E-05    1992.6435942117 -0.12E-04
  POISSON| Poisson solver converged in 2 iterations.
     8 Broy./Diag. 0.30E+00   13.5     0.02194068     -5672.1712269499  1.97E-01
  POISSON|   iter        pres error      nabs error        E_hartree    delta E
  POISSON|      1        0.4629E-06      0.1152E-04    1992.6806317300  0.37E-01
  POISSON|      2        0.8880E-17      0.4629E-06    1992.6806339319  0.22E-05
  POISSON| Poisson solver converged in 2 iterations.
     9 Broy./Diag. 0.30E+00   13.4     0.00888931     -5672.2979068543 -1.27E-01
  POISSON|   iter        pres error      nabs error        E_hartree    delta E
  POISSON|      1        0.1362E-06      0.5650E-05    1992.6914226368  0.11E-01
  POISSON|      2        0.4903E-17      0.1362E-06    1992.6914219888 -0.65E-06
  POISSON| Poisson solver converged in 2 iterations.
    10 Broy./Diag. 0.30E+00   13.5     0.00481691     -5672.2038538490  9.41E-02
  POISSON|   iter        pres error      nabs error        E_hartree    delta E
  POISSON|      1        0.3852E-07      0.4949E-05    1992.6979268195  0.65E-02
  POISSON|      2        0.9819E-17      0.3852E-07    1992.6979266362 -0.18E-06
  POISSON| Poisson solver converged in 2 iterations.
    11 Broy./Diag. 0.30E+00   13.5     0.00389034     -5672.1992798178  4.57E-03
  POISSON|   iter        pres error      nabs error        E_hartree    delta E
  POISSON|      1        0.2159E-06      0.5540E-05    1992.7058100329  0.79E-02
  POISSON|      2        0.1148E-16      0.2159E-06    1992.7058090058 -0.10E-05
  POISSON| Poisson solver converged in 2 iterations.
    12 Broy./Diag. 0.30E+00   13.5     0.00192400     -5672.1956576678  3.62E-03
  POISSON|   iter        pres error      nabs error        E_hartree    delta E
  POISSON|      1        0.1153E-07      0.2971E-05    1992.7101808655  0.44E-02
  POISSON|      2        0.4840E-18      0.1153E-07    1992.7101809203  0.55E-07
  POISSON| Poisson solver converged in 2 iterations.
    13 Broy./Diag. 0.30E+00   13.4     0.00122916     -5672.2151178234 -1.95E-02
  POISSON|   iter        pres error      nabs error        E_hartree    delta E
  POISSON|      1        0.7088E-07      0.1695E-05    1992.7106061469  0.43E-03
  POISSON|      2        0.3885E-17      0.7088E-07    1992.7106064841  0.34E-06
  POISSON| Poisson solver converged in 2 iterations.
    14 Broy./Diag. 0.30E+00   13.5     0.00102726     -5672.1987242034  1.64E-02
  POISSON|   iter        pres error      nabs error        E_hartree    delta E
  POISSON|      1        0.7745E-06      0.3135E-05    1992.7116765177  0.11E-02
  POISSON|      2        0.5174E-17      0.7745E-06    1992.7116728336 -0.37E-05
  POISSON| Poisson solver converged in 2 iterations.
    15 Broy./Diag. 0.30E+00   13.5     0.00158211     -5672.2100319925 -1.13E-02
  POISSON|   iter        pres error      nabs error        E_hartree    delta E
  POISSON|      1        0.6438E-06      0.3152E-05    1992.7112267367 -0.45E-03
  POISSON|      2        0.1404E-17      0.6438E-06    1992.7112297994  0.31E-05
  POISSON| Poisson solver converged in 2 iterations.
    16 Broy./Diag. 0.30E+00   13.5     0.00182254     -5672.2050753101  4.96E-03
  POISSON|   iter        pres error      nabs error        E_hartree    delta E
  POISSON|      1        0.1670E-06      0.1590E-05    1992.7117543416  0.52E-03
  POISSON|      2        0.2034E-17      0.1670E-06    1992.7117535473 -0.79E-06
  POISSON| Poisson solver converged in 2 iterations.
    17 Broy./Diag. 0.30E+00   13.5     0.00054954     -5672.2154139753 -1.03E-02
  POISSON|   iter        pres error      nabs error        E_hartree    delta E
  POISSON|      1        0.7848E-07      0.1234E-05    1992.7121075200  0.35E-03
  POISSON|      2        0.1016E-18      0.7848E-07    1992.7121071467 -0.37E-06
  POISSON| Poisson solver converged in 2 iterations.
    18 Broy./Diag. 0.30E+00   13.6     0.00044759     -5672.2103107654  5.10E-03
  POISSON|   iter        pres error      nabs error        E_hartree    delta E
  POISSON|      1        0.5232E-07      0.8251E-06    1992.7122801103  0.17E-03
  POISSON|      2        0.2248E-17      0.5232E-07    1992.7122798614 -0.25E-06
  POISSON| Poisson solver converged in 2 iterations.
    19 Broy./Diag. 0.30E+00   13.6     0.00025609     -5672.2108168673 -5.06E-04
  POISSON|   iter        pres error      nabs error        E_hartree    delta E
  POISSON|      1        0.5935E-07      0.9388E-06    1992.7126816818  0.40E-03
  POISSON|      2        0.1459E-17      0.5935E-07    1992.7126813995 -0.28E-06
  POISSON| Poisson solver converged in 2 iterations.
    20 Broy./Diag. 0.30E+00   13.5     0.00015569     -5672.2133709727 -2.55E-03
  POISSON|   iter        pres error      nabs error        E_hartree    delta E
  POISSON|      1        0.4780E-07      0.8340E-06    1992.7130461881  0.36E-03
  POISSON|      2        0.4399E-18      0.4780E-07    1992.7130459607 -0.23E-06
  POISSON| Poisson solver converged in 2 iterations.
    21 Broy./Diag. 0.30E+00   13.5     0.00017190     -5672.2121007480  1.27E-03
  POISSON|   iter        pres error      nabs error        E_hartree    delta E
  POISSON|      1        0.6246E-07      0.1030E-05    1992.7133901926  0.34E-03
  POISSON|      2        0.1654E-17      0.6246E-07    1992.7133898955 -0.30E-06
  POISSON| Poisson solver converged in 2 iterations.
    22 Broy./Diag. 0.30E+00   13.8     0.00016903     -5672.2111554100  9.45E-04
  POISSON|   iter        pres error      nabs error        E_hartree    delta E
  POISSON|      1        0.5275E-07      0.7931E-06    1992.7135705446  0.18E-03
  POISSON|      2        0.2915E-17      0.5275E-07    1992.7135702936 -0.25E-06
  POISSON| Poisson solver converged in 2 iterations.
    23 Broy./Diag. 0.30E+00   13.5     0.00010007     -5672.2111825828 -2.72E-05
  POISSON|   iter        pres error      nabs error        E_hartree    delta E
  POISSON|      1        0.2775E-07      0.6774E-06    1992.7137553137  0.19E-03
  POISSON|      2        0.6243E-17      0.2775E-07    1992.7137551817 -0.13E-06
  POISSON| Poisson solver converged in 2 iterations.
    24 Broy./Diag. 0.30E+00   13.5     0.00008751     -5672.2124692165 -1.29E-03
  POISSON|   iter        pres error      nabs error        E_hartree    delta E
  POISSON|      1        0.7042E-07      0.4754E-06    1992.7136931981 -0.62E-04
  POISSON|      2        0.1887E-17      0.7042E-07    1992.7136935331  0.33E-06
  POISSON| Poisson solver converged in 2 iterations.
    25 Broy./Diag. 0.30E+00   13.5     0.00021553     -5672.2110298439  1.44E-03
  POISSON|   iter        pres error      nabs error        E_hartree    delta E
  POISSON|      1        0.1312E-06      0.6753E-06    1992.7138258602  0.13E-03
  POISSON|      2        0.4557E-17      0.1312E-06    1992.7138252362 -0.62E-06
  POISSON| Poisson solver converged in 2 iterations.
    26 Broy./Diag. 0.30E+00   13.5     0.00023056     -5672.2125284497 -1.50E-03
  POISSON|   iter        pres error      nabs error        E_hartree    delta E
  POISSON|      1        0.1238E-09      0.7593E-06    1992.7138224943 -0.27E-05
  POISSON| Poisson solver converged in 1 iteration. 
    27 Broy./Diag. 0.30E+00   12.1     0.00011167     -5672.2117919489  7.37E-04
  POISSON|   iter        pres error      nabs error        E_hartree    delta E
  POISSON|      1        0.1990E-07      0.4476E-06    1992.7138260500  0.36E-05
  POISSON|      2        0.1189E-17      0.1990E-07    1992.7138259553 -0.95E-07
  POISSON| Poisson solver converged in 2 iterations.
    28 Broy./Diag. 0.30E+00   13.5     0.00007103     -5672.2121953602 -4.03E-04
  POISSON|   iter        pres error      nabs error        E_hartree    delta E
  POISSON|      1        0.1648E-07      0.3947E-06    1992.7138168181 -0.91E-05
  POISSON|      2        0.2152E-17      0.1648E-07    1992.7138167397 -0.78E-07
  POISSON| Poisson solver converged in 2 iterations.
    29 Broy./Diag. 0.30E+00   13.7     0.00009095     -5672.2119440016  2.51E-04
  POISSON|   iter        pres error      nabs error        E_hartree    delta E
  POISSON|      1        0.1556E-07      0.4017E-06    1992.7137814719 -0.35E-04
  POISSON|      2        0.8457E-18      0.1556E-07    1992.7137813979 -0.74E-07
  POISSON| Poisson solver converged in 2 iterations.
    30 Broy./Diag. 0.30E+00   13.5     0.00004106     -5672.2120750226 -1.31E-04
  POISSON|   iter        pres error      nabs error        E_hartree    delta E
  POISSON|      1        0.8312E-08      0.2626E-06    1992.7137845359  0.31E-05
  POISSON| Poisson solver converged in 1 iteration. 
    31 Broy./Diag. 0.30E+00   12.1     0.00003788     -5672.2125817001 -5.07E-04
  POISSON|   iter        pres error      nabs error        E_hartree    delta E
  POISSON|      1        0.9933E-08      0.3371E-06    1992.7137781672 -0.64E-05
  POISSON| Poisson solver converged in 1 iteration. 
    32 Broy./Diag. 0.30E+00   12.2     0.00002931     -5672.2122052035  3.76E-04
  POISSON|   iter        pres error      nabs error        E_hartree    delta E
  POISSON|      1        0.3177E-08      0.1690E-06    1992.7137791028  0.94E-06
  POISSON| Poisson solver converged in 1 iteration. 
    33 Broy./Diag. 0.30E+00   12.1     0.00003007     -5672.2123429854 -1.38E-04
  POISSON|   iter        pres error      nabs error        E_hartree    delta E
  POISSON|      1        0.9569E-08      0.2212E-06    1992.7137952526  0.16E-04
  POISSON| Poisson solver converged in 1 iteration. 
    34 Broy./Diag. 0.30E+00   12.1     0.00002705     -5672.2123678494 -2.49E-05
  POISSON|   iter        pres error      nabs error        E_hartree    delta E
  POISSON|      1        0.7832E-08      0.1211E-06    1992.7138343071  0.39E-04
  POISSON| Poisson solver converged in 1 iteration. 
    35 Broy./Diag. 0.30E+00   12.1     0.00002731     -5672.2126163282 -2.48E-04
  POISSON|   iter        pres error      nabs error        E_hartree    delta E
  POISSON|      1        0.1724E-07      0.7705E-07    1992.7138271107 -0.72E-05
  POISSON|      2        0.1179E-17      0.1724E-07    1992.7138271927  0.82E-07
  POISSON| Poisson solver converged in 2 iterations.
    36 Broy./Diag. 0.30E+00   13.4     0.00004353     -5672.2121052940  5.11E-04
  POISSON|   iter        pres error      nabs error        E_hartree    delta E
  POISSON|      1        0.1702E-07      0.2151E-06    1992.7138774517  0.50E-04
  POISSON|      2        0.2082E-18      0.1702E-07    1992.7138773707 -0.81E-07
  POISSON| Poisson solver converged in 2 iterations.
    37 Broy./Diag. 0.30E+00   13.4     0.00002324     -5672.2123042205 -1.99E-04
  POISSON|   iter        pres error      nabs error        E_hartree    delta E
  POISSON|      1        0.1659E-08      0.1062E-06    1992.7139041412  0.27E-04
  POISSON| Poisson solver converged in 1 iteration. 
    38 Broy./Diag. 0.30E+00   12.1     0.00001519     -5672.2122761978  2.80E-05
  POISSON|   iter        pres error      nabs error        E_hartree    delta E
  POISSON|      1        0.1960E-08      0.9334E-07    1992.7139299177  0.26E-04
  POISSON| Poisson solver converged in 1 iteration. 
    39 Broy./Diag. 0.30E+00   12.1     0.00002563     -5672.2122811572 -4.96E-06
  POISSON|   iter        pres error      nabs error        E_hartree    delta E
  POISSON|      1        0.1841E-08      0.9052E-07    1992.7139507323  0.21E-04
  POISSON| Poisson solver converged in 1 iteration. 
    40 Broy./Diag. 0.30E+00   12.1     0.00001406     -5672.2121880340  9.31E-05
  POISSON|   iter        pres error      nabs error        E_hartree    delta E
  POISSON|      1        0.1779E-08      0.7942E-07    1992.7139557179  0.50E-05
  POISSON| Poisson solver converged in 1 iteration. 
    41 Broy./Diag. 0.30E+00   12.1     0.00000944     -5672.2121027132  8.53E-05
  POISSON|   iter        pres error      nabs error        E_hartree    delta E
  POISSON|      1        0.1842E-08      0.7839E-07    1992.7139600707  0.44E-05
  POISSON| Poisson solver converged in 1 iteration. 
    42 Broy./Diag. 0.30E+00   12.1     0.00000758     -5672.2122125968 -1.10E-04
  POISSON|   iter        pres error      nabs error        E_hartree    delta E
  POISSON|      1        0.1815E-08      0.6863E-07    1992.7139531440 -0.69E-05
  POISSON| Poisson solver converged in 1 iteration. 
    43 Broy./Diag. 0.30E+00   12.5     0.00000791     -5672.2121525962  6.00E-05
  POISSON|   iter        pres error      nabs error        E_hartree    delta E
  POISSON|      1        0.5869E-09      0.5825E-07    1992.7139443357 -0.88E-05
  POISSON| Poisson solver converged in 1 iteration. 
    44 Broy./Diag. 0.30E+00   12.1     0.00000829     -5672.2121678341 -1.52E-05
  POISSON|   iter        pres error      nabs error        E_hartree    delta E
  POISSON|      1        0.1310E-08      0.8297E-07    1992.7139272359 -0.17E-04
  POISSON| Poisson solver converged in 1 iteration. 
    45 Broy./Diag. 0.30E+00   12.1     0.00000550     -5672.2121578914  9.94E-06
  POISSON|   iter        pres error      nabs error        E_hartree    delta E
  POISSON|      1        0.7030E-08      0.4802E-07    1992.7139310769  0.38E-05
  POISSON| Poisson solver converged in 1 iteration. 
    46 Broy./Diag. 0.30E+00   12.1     0.00001956     -5672.2122487780 -9.09E-05
  POISSON|   iter        pres error      nabs error        E_hartree    delta E
  POISSON|      1        0.5273E-08      0.8177E-07    1992.7139181381 -0.13E-04
  POISSON| Poisson solver converged in 1 iteration. 
    47 Broy./Diag. 0.30E+00   12.1     0.00001520     -5672.2121708658  7.79E-05
  POISSON|   iter        pres error      nabs error        E_hartree    delta E
  POISSON|      1        0.2489E-08      0.5190E-07    1992.7139079526 -0.10E-04
  POISSON| Poisson solver converged in 1 iteration. 
    48 Broy./Diag. 0.30E+00   12.2     0.00000483     -5672.2121642327  6.63E-06
  POISSON|   iter        pres error      nabs error        E_hartree    delta E
  POISSON|      1        0.3729E-09      0.2628E-07    1992.7139042802 -0.37E-05
  POISSON| Poisson solver converged in 1 iteration. 
    49 Broy./Diag. 0.30E+00   12.1     0.00000634     -5672.2121923756 -2.81E-05
  POISSON|   iter        pres error      nabs error        E_hartree    delta E
  POISSON|      1        0.8076E-09      0.4368E-07    1992.7139020921 -0.22E-05
  POISSON| Poisson solver converged in 1 iteration. 
    50 Broy./Diag. 0.30E+00   12.1     0.00000595     -5672.2122063289 -1.40E-05
  POISSON|   iter        pres error      nabs error        E_hartree    delta E
  POISSON|      1        0.6704E-09      0.3602E-07    1992.7139030805  0.99E-06
  POISSON| Poisson solver converged in 1 iteration. 
    51 Broy./Diag. 0.30E+00   12.1     0.00000351     -5672.2122009092  5.42E-06
  POISSON|   iter        pres error      nabs error        E_hartree    delta E
  POISSON|      1        0.8680E-09      0.3536E-07    1992.7139040033  0.92E-06
  POISSON| Poisson solver converged in 1 iteration. 
    52 Broy./Diag. 0.30E+00   12.1     0.00000266     -5672.2121549910  4.59E-05
  POISSON|   iter        pres error      nabs error        E_hartree    delta E
  POISSON|      1        0.7748E-09      0.3123E-07    1992.7139103799  0.64E-05
  POISSON| Poisson solver converged in 1 iteration. 
    53 Broy./Diag. 0.30E+00   12.1     0.00000250     -5672.2121854289 -3.04E-05
  POISSON|   iter        pres error      nabs error        E_hartree    delta E
  POISSON|      1        0.6641E-09      0.1950E-07    1992.7139169544  0.66E-05
  POISSON| Poisson solver converged in 1 iteration. 
    54 Broy./Diag. 0.30E+00   12.1     0.00000305     -5672.2121668153  1.86E-05
  POISSON|   iter        pres error      nabs error        E_hartree    delta E
  POISSON|      1        0.5609E-09      0.3503E-07    1992.7139254750  0.85E-05
  POISSON| Poisson solver converged in 1 iteration. 
    55 Broy./Diag. 0.30E+00   12.1     0.00000275     -5672.2121611683  5.65E-06
  POISSON|   iter        pres error      nabs error        E_hartree    delta E
  POISSON|      1        0.1567E-08      0.7542E-08    1992.7139239795 -0.15E-05
  POISSON| Poisson solver converged in 1 iteration. 
    56 Broy./Diag. 0.30E+00   12.1     0.00000503     -5672.2121417874  1.94E-05
  POISSON|   iter        pres error      nabs error        E_hartree    delta E
  POISSON|      1        0.1874E-08      0.2501E-07    1992.7139305096  0.65E-05
  POISSON| Poisson solver converged in 1 iteration. 
    57 Broy./Diag. 0.30E+00   12.1     0.00000425     -5672.2121869925 -4.52E-05
  POISSON|   iter        pres error      nabs error        E_hartree    delta E
  POISSON|      1        0.4993E-09      0.1252E-07    1992.7139318940  0.14E-05
  POISSON| Poisson solver converged in 1 iteration. 
    58 Broy./Diag. 0.30E+00   12.1     0.00000154     -5672.2121628178  2.42E-05
  POISSON|   iter        pres error      nabs error        E_hartree    delta E
  POISSON|      1        0.3387E-09      0.9586E-08    1992.7139323663  0.47E-06
  POISSON| Poisson solver converged in 1 iteration. 
    59 Broy./Diag. 0.30E+00   12.1     0.00000151     -5672.2121610920  1.73E-06
  POISSON|   iter        pres error      nabs error        E_hartree    delta E
  POISSON|      1        0.1372E-09      0.9045E-08    1992.7139320961 -0.27E-06
  POISSON| Poisson solver converged in 1 iteration. 
    60 Broy./Diag. 0.30E+00   12.1     0.00000236     -5672.2121614847 -3.93E-07
  POISSON|   iter        pres error      nabs error        E_hartree    delta E
  POISSON|      1        0.1286E-09      0.1284E-07    1992.7139313562 -0.74E-06
  POISSON| Poisson solver converged in 1 iteration. 
    61 Broy./Diag. 0.30E+00   12.1     0.00000102     -5672.2121696930 -8.21E-06
  POISSON|   iter        pres error      nabs error        E_hartree    delta E
  POISSON|      1        0.1705E-10      0.4699E-08    1992.7139309485 -0.41E-06
  POISSON| Poisson solver converged in 1 iteration. 
    62 Broy./Diag. 0.30E+00   12.1     0.00000067     -5672.2121791972 -9.50E-06

  *** SCF run converged in    62 steps ***


  Electronic density on regular grids:      -2159.9999999992        0.0000000008
  Core density on regular grids:             2159.9999999995       -0.0000000005
  Total charge density on r-space grids:        0.0000000003
  Total charge density g-space grids:           0.0000000003

  Overlap energy of the core charge distribution:               0.00003520808398
  Self energy of the core charge distribution:              -9891.63555570741482
  Core Hamiltonian energy:                                   3202.73571854277907
  Hartree energy:                                            1992.71393094852829
  Electric enthalpy:                                         1992.70695038828580
  Exchange-correlation energy:                               -971.28205520097936
  Dispersion energy:                                           -4.70401378076281
  Electronic entropic energy:                                  -0.03325870132890
  Fermi energy:                                                -0.22634166384505

  Total energy:                                             -5672.21217919721403

 The electron density is written in cube file format to the file:

 cp2k-ELECTRON_DENSITY-1_0.cube

 !-----------------------------------------------------------------------------!
                     Mulliken Population Analysis

 #  Atom  Element  Kind  Atomic population                           Net charge
       1     Pt       1         10.034256                             -0.034256
       2     Pt       1         10.057026                             -0.057026
       3     Pt       1         10.046080                             -0.046080
       4     Pt       1         10.059697                             -0.059697
       5     Pt       1         10.047119                             -0.047119
       6     Pt       1         10.044840                             -0.044840
       7     Pt       1         10.027964                             -0.027964
       8     Pt       1         10.042587                             -0.042587
       9     Pt       1         10.049454                             -0.049454
      10     Pt       1         10.064511                             -0.064511
      11     Pt       1         10.053350                             -0.053350
      12     Pt       1         10.034965                             -0.034965
      13     Pt       1         10.043567                             -0.043567
      14     Pt       1         10.058722                             -0.058722
      15     Pt       1         10.045835                             -0.045835
      16     Pt       1         10.035953                             -0.035953
      17     Pt       1         10.046608                             -0.046608
      18     Pt       1         10.038454                             -0.038454
      19     Pt       1         10.067588                             -0.067588
      20     Pt       1         10.037735                             -0.037735
[...]
    191      1      Pt         -0.01001371     0.00078716    -0.00710443
    192      1      Pt          0.00388513     0.00227415     0.01118740
    193      1      Pt         -0.01292956    -0.01466862     0.01881795
    194      1      Pt         -0.00466892    -0.01008458     0.00382381
    195      1      Pt         -0.00338642     0.00905945     0.00307585
    196      1      Pt         -0.01840311    -0.02571931    -0.00418031
    197      1      Pt          0.00106894    -0.02036765     0.01923076
    198      1      Pt          0.00675976    -0.00058783    -0.00899280
    199      1      Pt          0.02873723     0.01663766     0.00754118
    200      1      Pt          0.00427051    -0.00470555    -0.00372696
    201      1      Pt         -0.00010934    -0.00952342    -0.00777942
    202      1      Pt          0.00437963     0.02270466     0.01032474
    203      1      Pt          0.00465832     0.01657157     0.00671562
    204      1      Pt         -0.01322635    -0.01630009    -0.01423273
    205      1      Pt          0.01112590     0.00244025     0.03499179
    206      1      Pt          0.01115893     0.00767018     0.01344728
    207      1      Pt         -0.01657694     0.00533400     0.01198570
    208      1      Pt          0.01683300     0.00019732    -0.00055584
    209      1      Pt         -0.02196687     0.00936160     0.01110780
    210      1      Pt          0.00647426    -0.00022091    -0.01171265
    211      1      Pt         -0.00362036    -0.00651269    -0.00532954
    212      1      Pt          0.00672849    -0.01334731    -0.00034227
    213      1      Pt          0.00200208    -0.00052158    -0.01180185
    214      1      Pt         -0.01134905     0.01027093     0.00879669
    215      1      Pt         -0.00314135     0.00375828     0.01553577
    216      1      Pt          0.00381486     0.00348339    -0.00491479
 SUM OF ATOMIC FORCES          -0.00000641    -0.00001028     0.00000587     0.00001346

 -------------------------------------------------------------------------------
 -                                                                             -
 -                                DBCSR STATISTICS                             -
 -                                                                             -
 -------------------------------------------------------------------------------
 COUNTER                                    TOTAL       BLAS       SMM       ACC
 flops    20 x    12 x    20            447897600       0.0%    100.0%      0.0%
 flops    20 x    32 x    20          58525286400       0.0%    100.0%      0.0%
 flops    20 x    20 x   204         244784332800       0.0%    100.0%      0.0%
 flops    20 x    20 x   224         268782796800       0.0%    100.0%      0.0%
 flops    20 x    20 x   192        1382311526400       0.0%    100.0%      0.0%
 flops inhomo. stacks                           0       0.0%      0.0%      0.0%
 flops total                         1.954852E+12       0.0%    100.0%      0.0%
 flops max/rank                     62.737357E+09       0.0%    100.0%      0.0%
 matmuls inhomo. stacks                         0       0.0%      0.0%      0.0%
 matmuls total                           14332032       0.0%    100.0%      0.0%
 number of processed stacks                 18816       0.0%    100.0%      0.0%
 average stack size                                     0.0     761.7       0.0
 marketing flops                     2.782526E+12
 -------------------------------------------------------------------------------
 # multiplications                             65
 max memory usage/rank               1.822327E+09
 # max total images/rank                        2
 # max 3D layers                                1
 # MPI messages exchanged                   27040
 MPI messages size (bytes):
  total size                        36.155982E+09
  min size                         829.440000E+03
  max size                           4.665600E+06
  average size                       1.337130E+06
 MPI breakdown and total messages size (bytes):
             size <=      128                   0                        0
       128 < size <=     8192                   0                        0
      8192 < size <=    32768                   0                        0
     32768 < size <=   131072                   0                        0
    131072 < size <=  4194304               26816              35110886400
   4194304 < size <= 16777216                 224               1045094400
  16777216 < size                               0                        0
 -------------------------------------------------------------------------------

 *** WARNING in dbcsr_mm.F:290 :: Using a non-square number of MPI ranks ***
 *** might lead to poor performance. Used ranks: 32 Suggested: 36 64     ***

 -------------------------------------------------------------------------------
 -                                                                             -
 -                      DBCSR MESSAGE PASSING PERFORMANCE                      -
 -                                                                             -
 -------------------------------------------------------------------------------
 ROUTINE             CALLS      AVE VOLUME [Bytes]
 MP_Bcast                6                     12.
 MP_Allreduce          478                      9.
 MP_Alltoall          1801                1275169.
 MP_ISend             2080                 578664.
 MP_IRecv             2080                 561679.
 -------------------------------------------------------------------------------

 -------------------------------------------------------------------------------
 -                                                                             -
 -                                DBM STATISTICS                               -
 -                                                                             -
 -------------------------------------------------------------------------------
    M  x    N  x    K                                          COUNT     PERCENT
 -------------------------------------------------------------------------------

 -------------------------------------------------------------------------------
 -                                                                             -
 -                                GRID STATISTICS                              -
 -                                                                             -
 -------------------------------------------------------------------------------
 LP    KERNEL             BACKEND                              COUNT     PERCENT
 4     collocate general  REF                               21474999      49.97%
 4     integrate general  REF                               21134126      49.17%
 5     integrate general  REF                                 340873       0.79%
 0     collocate general  REF                                  13824       0.03%
 0     integrate general  REF                                   6912       0.02%
 1     integrate general  REF                                   6912       0.02%
 -------------------------------------------------------------------------------

 MEMORY| Estimated peak process memory [MiB]                                2138

 -------------------------------------------------------------------------------
 ----                             MULTIGRID INFO                            ----
 -------------------------------------------------------------------------------
 count for grid        1:          17564          cutoff [a.u.]          200.00
 count for grid        2:         177712          cutoff [a.u.]           66.67
 count for grid        3:         109784          cutoff [a.u.]           22.22
 count for grid        4:         155434          cutoff [a.u.]            7.41
 total gridlevel count  :         460494

 -------------------------------------------------------------------------------
 -                                                                             -
 -                         MESSAGE PASSING PERFORMANCE                         -
 -                                                                             -
 -------------------------------------------------------------------------------

 ROUTINE             CALLS      AVE VOLUME [Bytes]
 MP_Group                4
 MP_Bcast             1768                 164714.
 MP_Allreduce         1612                   1568.
 MP_Sync                68
 MP_Alltoall          3101               49416429.
 MP_SendRecv           124                  14976.
 MP_ISendRecv         7812                 214800.
 MP_Wait             18942
 MP_comm_split           1
 MP_ISend             9980                 715119.
 MP_IRecv             9980                 715119.
 MP_Recv               192                1105920.
 MP_Write_All            3                4213860.
 -------------------------------------------------------------------------------


 -------------------------------------------------------------------------------
 -                                                                             -
 -                           R E F E R E N C E S                               -
 -                                                                             -
 -------------------------------------------------------------------------------
 
 CP2K version 2022.1, the CP2K developers group (2022).
 CP2K is freely available from https://www.cp2k.org/ .

 Kuehne,Thomas D.; Iannuzzi,Marcella; Del Ben,Mauro;
 Rybkin,Vladimir V.; Seewald,Patrick; Stein,Frederick; Laino,Teodoro;
 Khaliullin,Rustam Z.; Schuett,Ole; Schiffmann,Florian; Golze,Dorothea;
 Wilhelm,Jan; Chulkov,Sergey; Bani-Hashemian,Mohammad Hossein;
 Weber,Valery; Borstnik,Urban; Taillefumier,Mathieu;
 Jakobovits,Alice Shoshana; Lazzaro,Alfio; Pabst,Hans; Mueller,Tiziano;
 Schade,Robert; Guidon,Manuel; Andermatt,Samuel; Holmberg,Nico;
 Schenter,Gregory K.; Hehn,Anna; Bussy,Augustin; Belleflamme,Fabian;
 Tabacchi,Gloria; Gloess,Andreas; Lass,Michael; Bethune,Iain;
 Mundy,Christopher J.; Plessl,Christian; Watkins,Matt;
 VandeVondele,Joost; Krack,Matthias; Hutter,Juerg. 
 The Journal of Chemical Physics, 152 (19), (2020). 
 CP2K: An electronic structure and molecular dynamics software package -
 Quickstep: Efficient and accurate electronic structure calculations.
 https://doi.org/10.1063/5.0007045

 Goerigk, Lars; Hansen, Andreas; Bauer, Christoph; Ehrlich, Stephan;
 Najibi, Asim; Grimme, Stefan. , 19 (48), (2017). 
 A look at the density functional theory zoo with the advanced GMTKN55 database
 for general main group thermochemistry, kinetics and noncovalent interactions.
 https://doi.org/10.1039/C7CP04913G

 Bani-Hashemian, MH; Bruck, S; Luisier, M; VandeVondele, J. 
 JOURNAL OF CHEMICAL PHYSICS, 144 (4), 044113 (2016). 
 A generalized Poisson solver for first-principles device simulations.
 https://doi.org/10.1063/1.4940796

 Schuett, Ole; Messmer, Peter; Hutter, Juerg; VandeVondele, Joost. 
 Electronic Structure Calculations on Graphics Processing Units, John
 Wiley & Sons, Ltd, 173-190 (2016). 
 GPU-Accelerated Sparse Matrix-Matrix Multiplication for
 Linear Scaling Density Functional Theory.
 https://doi.org/10.1002/9781118670712.ch8

 Heinecke, A; Henry, G; Hutchinson, M; Pabst, H. 
 Proceedings of Intl. Supercomputing Conference, 981-991 (2016). 
 LIBXSMM: Accelerating Small Matrix Multiplications
 by Runtime Code Generation.
 https://doi.org/10.1109/SC.2016.83

 Borstnik, U; VandeVondele, J; Weber, V; Hutter, J. 
 PARALLEL COMPUTING, 40 (5-6), 47-58 (2014). 
 Sparse matrix multiplication: The distributed block-compressed sparse
 row library.
 https://doi.org/10.1016/j.parco.2014.03.012

 Hutter, J; Iannuzzi, M; Schiffmann, F; VandeVondele, J. 
 WIREs Comput Mol Sci., 4 (1), 15-25 (2014). 
 CP2K: atomistic simulations of condensed matter systems.
 https://doi.org/10.1002/wcms.1159

 Marek, A; Blum, V; Johanni, R; Havu, V; Lang, B; Auckenthaler, T;
 Heinecke, A; Bungartz, H; Lederer, H. 
 Journal of Physics: Condensed Matter, 26 (21), (2014). 
 The ELPA library: scalable parallel eigenvalue solutions for
 electronic structure
 theory and computational science.
 https://doi.org/10.1088/0953-8984/26/21/213201

 Grimme, S; Ehrlich, S; Goerigk, L. 
 JOURNAL OF COMPUTATIONAL CHEMISTRY, 32, 1456 (2011). 
 Effect of the damping function in dispersion corrected density functional theory.
 https://doi.org/10.1002/jcc.21759

 Grimme, S; Antony, J; Ehrlich, S; Krieg, H. 
 JOURNAL OF CHEMICAL PHYSICS, 132 (15), 154104 (2010). 
 A consistent and accurate ab initio parametrization of density
 functional dispersion correction (DFT-D) for the 94 elements H-Pu.
 https://doi.org/10.1063/1.3382344

 VandeVondele, J; Hutter, J. 
 JOURNAL OF CHEMICAL PHYSICS, 127 (11), 114105 (2007). 
 Gaussian basis sets for accurate calculations on molecular systems in
 gas and condensed phases.
 https://doi.org/10.1063/1.2770708

 Krack, M. 
 THEORETICAL CHEMISTRY ACCOUNTS, 114 (1-3), 145-152 (2005). 
 Pseudopotentials for H to Kr optimized for gradient-corrected
 exchange-correlation functionals.
 https://doi.org/10.1007/s00214-005-0655-y

 VandeVondele, J; Krack, M; Mohamed, F; Parrinello, M; Chassaing, T;
 Hutter, J. COMPUTER PHYSICS COMMUNICATIONS, 167 (2), 103-128 (2005). 
 QUICKSTEP: Fast and accurate density functional calculations using a
 mixed Gaussian and plane waves approach.
 https://doi.org/10.1016/j.cpc.2004.12.014

 Frigo, M; Johnson, SG. 
 PROCEEDINGS OF THE IEEE, 93 (2), 216-231 (2005). 
 The design and implementation of FFTW3.
 https://doi.org/10.1109/JPROC.2004.840301

 Hartwigsen, C; Goedecker, S; Hutter, J. 
 PHYSICAL REVIEW B, 58 (7), 3641-3662 (1998). 
 Relativistic separable dual-space Gaussian pseudopotentials from H to Rn.
 https://doi.org/10.1103/PhysRevB.58.3641

 Lippert, G; Hutter, J; Parrinello, M. 
 MOLECULAR PHYSICS, 92 (3), 477-487 (1997). 
 A hybrid Gaussian and plane wave density functional scheme.
 https://doi.org/10.1080/002689797170220

 Perdew, JP; Burke, K; Ernzerhof, M. 
 PHYSICAL REVIEW LETTERS, 77 (18), 3865-3868 (1996). 
 Generalized gradient approximation made simple.
 https://doi.org/10.1103/PhysRevLett.77.3865

 Goedecker, S; Teter, M; Hutter, J. 
 PHYSICAL REVIEW B, 54 (3), 1703-1710 (1996). 
 Separable dual-space Gaussian pseudopotentials.
 https://doi.org/10.1103/PhysRevB.54.1703


 -------------------------------------------------------------------------------
 -                                                                             -
 -                                T I M I N G                                  -
 -                                                                             -
 -------------------------------------------------------------------------------
 SUBROUTINE                       CALLS  ASD         SELF TIME        TOTAL TIME
                                MAXIMUM       AVERAGE  MAXIMUM  AVERAGE  MAXIMUM
 CP2K                                 1  1.0    0.026    0.045  820.116  820.117
 qs_forces                            1  2.0    0.001    0.001  819.691  819.693
 qs_energies                          1  3.0    0.000    0.000  806.893  806.895
 scf_env_do_scf                       1  4.0    0.000    0.000  794.671  794.765
 scf_env_do_scf_inner_loop           62  5.0    0.003    0.005  794.668  794.762
 rebuild_ks_matrix                   63  7.0    0.000    0.000  507.517  507.551
 qs_ks_build_kohn_sham_matrix        63  8.0    0.010    0.011  507.517  507.551
 qs_ks_update_qs_env                 62  6.0    0.001    0.001  499.150  499.182
 pw_transfer                       2960 12.1    0.225    0.300  285.746  288.190
 fft_wrap_pw1pw2                   2960 13.1    0.032    0.040  285.521  287.967
 fft_wrap_pw1pw2_200               2582 14.4   24.273   27.512  282.603  284.996
 pw_poisson_solve                    63  9.0    0.018    0.024  245.598  245.651
 implicit_poisson_solver_mixed_      63 10.0    6.606    7.146  231.062  231.320
 fft3d_ps                          2960 15.1  121.579  131.098  212.739  215.301
 qs_rho_update_rho_low               63  6.0    0.001    0.001  190.391  190.416
 calculate_rho_elec                  63  7.0    0.346    0.390  190.390  190.415
 sum_up_and_integrate                63  9.0    0.984    1.095  179.237  179.287
 integrate_v_rspace                  63 10.0    0.002    0.002  178.253  178.389
 grid_collocate_task_list            63  8.0   84.523  164.512   84.523  164.512
 derive_fft                         314 12.2    0.023    0.026  162.465  163.589
 grid_integrate_task_list            63 11.0   78.252  152.445   78.252  152.445
 apply_P_operator                   251 11.2    2.347    2.668  132.362  133.245
 rs_pw_transfer                     508 10.5    0.006    0.006  105.125  131.774
 density_rs2pw                       63  8.0    0.004    0.005  104.132  130.742
 mp_waitany                        9980 12.4   87.593  114.150   87.593  114.150
 rs_pw_transfer_RS2PW_200            65 10.0    3.617    4.225   86.055  112.712
 mp_alltoall_d11v                   898 10.3   76.721  101.348   76.721  101.348
 rs_gather_matrices                  63 11.0    0.236    0.271   75.558  100.108
 qs_scf_new_mos                      62  6.0    0.001    0.001   78.102   78.176
 qs_vxc_create                       63  9.0    0.002    0.003   74.346   75.249
 xc_vxc_pw_create                    63 10.0    1.682    2.156   74.344   75.248
 eigensolver                         62  7.0    0.005    0.009   70.401   70.503
 x_to_yz                           1856 16.3   40.515   46.462   62.427   64.715
 mp_alltoall_z22v                  2960 17.1   39.091   59.172   39.091   59.172
 xc_pw_derive                       378 12.0    0.007    0.007   50.173   53.105
 apply_poisson_operator_fft          63 11.0    0.001    0.001   47.796   48.076
 cp_fm_diag_elpa                     63  8.0    0.001    0.001   44.577   44.673
 cp_fm_diag_elpa_base                63  9.0   43.627   43.726   44.466   44.526
 yz_to_x                           1104 15.8   11.483   12.135   28.663   40.423
 xc_rho_set_and_dset_create          63 11.0    0.723    0.942   38.717   39.582
 apply_inv_laplace_operator_fft     159 11.6    1.304    1.404   35.409   36.484
 pw_scatter_p                      1856 15.3   31.421   35.411   31.421   35.411
 xc_pw_divergence                    63 11.0    0.004    0.004   32.939   34.735
 ps_implicit_compute_veps            63 11.0    0.760    0.945   33.214   33.895
 gspace_mixing                       61  6.0    0.334    0.357   29.510   29.511
 pw_derive                         1320 13.1   25.177   26.254   25.177   26.254
 cp_fm_triangular_multiply          186  8.0   25.014   25.236   25.014   25.236
 ps_implicit_compute_error_fft       94 11.0    1.746    1.862   23.436   25.130
 potential_pw2rs                     63 11.0    0.050    0.057   24.431   24.535
 broyden_mixing                      61  7.0   21.642   22.022   22.110   22.222
 pw_gather_p                       1104 14.8   16.772   17.343   16.772   17.343
 -------------------------------------------------------------------------------

 The number of warnings for this run is : 1
 
 -------------------------------------------------------------------------------
  **** **** ******  **  PROGRAM ENDED AT                 2023-12-03 03:43:14.383
 ***** ** ***  *** **   PROGRAM RAN ON                                     cu042
 **    ****   ******    PROGRAM RAN BY                                     jxzhu
 ***** **    ** ** **   PROGRAM PROCESS ID                                 17586
  **** **  *******  **  PROGRAM STOPPED IN /public/home/jxzhu/tmp_calc/04c0855f9
                                           8753fac23fde4df51ba20f3741a9e9a/calc/
                                           task.002.000000
