 DBCSR| CPU Multiplication driver                                           XSMM
 DBCSR| Multrec recursion limit                                              512
 DBCSR| Multiplication stack size                                           1000
 DBCSR| Maximum elements for images                                    UNLIMITED
 DBCSR| Multiplicative factor virtual images                                   1
 DBCSR| Use multiplication densification                                       T
 DBCSR| Multiplication size stacks                                             3
 DBCSR| Use memory pool for CPU allocation                                     F
 DBCSR| Number of 3D layers                                               SINGLE
 DBCSR| Use MPI memory allocation                                              F
 DBCSR| Use RMA algorithm                                                      F
 DBCSR| Use Communication thread                                               T
 DBCSR| Communication thread load                                             87
 DBCSR| MPI: My node id                                                        0
 DBCSR| MPI: Number of nodes                                                  32
 DBCSR| OMP: Current number of threads                                         1
 DBCSR| OMP: Max number of threads                                             1
 DBCSR| Split modifier for TAS multiplication algorithm                  1.0E+00


  **** **** ******  **  PROGRAM STARTED AT               2023-12-02 21:25:30.322
 ***** ** ***  *** **   PROGRAM STARTED ON                                 cu042
 **    ****   ******    PROGRAM STARTED BY                                 jxzhu
 ***** **    ** ** **   PROGRAM PROCESS ID                                 16309
  **** **  *******  **  PROGRAM STARTED IN /public/home/jxzhu/tmp_calc/04c0855f9
                                           8753fac23fde4df51ba20f3741a9e9a/calc/
                                           task.002.000002

 CP2K| version string:                                       CP2K version 2022.1
 CP2K| source code revision number:                                  git:2caeb6f
 CP2K| cp2kflags: omp libint fftw3 libxc elpa parallel mpi3 scalapack cosma xsmm
 CP2K|             plumed2 spglib mkl sirius libvori libbqb
 CP2K| is freely available from                            https://www.cp2k.org/
 CP2K| Program compiled at                           Mon Jul 3 17:37:06 CST 2023
 CP2K| Program compiled on                                                 mu003
 CP2K| Program compiled for                                                local
 CP2K| Data directory path                             /public/home/jxzhu/basis/
 CP2K| Input file name                                                 input.inp
 
 GLOBAL| Force Environment number                                              1
 GLOBAL| Basis set file name                                        BASIS_MOLOPT
 GLOBAL| Potential file name                                      GTH_POTENTIALS
 GLOBAL| MM Potential file name                                     MM_POTENTIAL
 GLOBAL| Coordinate file name                                          coord.xyz
 GLOBAL| Method name                                                        CP2K
 GLOBAL| Project name                                                       cp2k
 GLOBAL| Run type                                                   ENERGY_FORCE
 GLOBAL| FFT library                                                       FFTW3
 GLOBAL| Diagonalization library                                            ELPA
 GLOBAL| Minimum number of eigenvectors for ELPA usage                        16
 GLOBAL| Orthonormality check for eigenvectors                          DISABLED
 GLOBAL| Matrix multiplication library                                     COSMA
 GLOBAL| All-to-all communication in single precision                          F
 GLOBAL| FFTs using library dependent lengths                                  T
 GLOBAL| Grid backend                                                       AUTO
 GLOBAL| Global print level                                               MEDIUM
 GLOBAL| MPI I/O enabled                                                       T
 GLOBAL| Total number of message passing processes                            32
 GLOBAL| Number of threads for this process                                    1
 GLOBAL| This output is from process                                           0
 GLOBAL| Stack size for threads created by OpenMP (OMP_STACKSIZE)        default
 GLOBAL| CPU model name                 Intel(R) Xeon(R) Gold 6338 CPU @ 2.00GHz
 GLOBAL| CPUID                                                              1003

 MEMORY| system memory details [Kb]
 MEMORY|                        rank 0           min           max       average
 MEMORY| MemTotal            263619172     263619172     263619172     263619172
 MEMORY| MemFree             177043956     177043956     177044576     177044382
 MEMORY| Buffers                  3320          3320          3320          3320
 MEMORY| Cached                8810500       8810500       8810500       8810500
 MEMORY| Slab                  1979144       1979144       1979144       1979144
 MEMORY| SReclaimable           244636        244636        244636        244636
 MEMORY| MemLikelyFree       186102412     186102412     186103032     186102838


 *** Fundamental physical constants (SI units) ***

 *** Literature: B. J. Mohr and B. N. Taylor,
 ***             CODATA recommended values of the fundamental physical
 ***             constants: 2006, Web Version 5.1
 ***             http://physics.nist.gov/constants

 Speed of light in vacuum [m/s]                             2.99792458000000E+08
 Magnetic constant or permeability of vacuum [N/A**2]       1.25663706143592E-06
 Electric constant or permittivity of vacuum [F/m]          8.85418781762039E-12
 Planck constant (h) [J*s]                                  6.62606896000000E-34
 Planck constant (h-bar) [J*s]                              1.05457162825177E-34
 Elementary charge [C]                                      1.60217648700000E-19
 Electron mass [kg]                                         9.10938215000000E-31
 Electron g factor [ ]                                     -2.00231930436220E+00
 Proton mass [kg]                                           1.67262163700000E-27
 Fine-structure constant                                    7.29735253760000E-03
 Rydberg constant [1/m]                                     1.09737315685270E+07
 Avogadro constant [1/mol]                                  6.02214179000000E+23
 Boltzmann constant [J/K]                                   1.38065040000000E-23
 Atomic mass unit [kg]                                      1.66053878200000E-27
 Bohr radius [m]                                            5.29177208590000E-11

 *** Conversion factors ***

 [u] -> [a.u.]                                              1.82288848426455E+03
 [Angstrom] -> [Bohr] = [a.u.]                              1.88972613288564E+00
 [a.u.] = [Bohr] -> [Angstrom]                              5.29177208590000E-01
 [a.u.] -> [s]                                              2.41888432650478E-17
 [a.u.] -> [fs]                                             2.41888432650478E-02
 [a.u.] -> [J]                                              4.35974393937059E-18
 [a.u.] -> [N]                                              8.23872205491840E-08
 [a.u.] -> [K]                                              3.15774647902944E+05
 [a.u.] -> [kJ/mol]                                         2.62549961709828E+03
 [a.u.] -> [kcal/mol]                                       6.27509468713739E+02
 [a.u.] -> [Pa]                                             2.94210107994716E+13
 [a.u.] -> [bar]                                            2.94210107994716E+08
 [a.u.] -> [atm]                                            2.90362800883016E+08
 [a.u.] -> [eV]                                             2.72113838565563E+01
 [a.u.] -> [Hz]                                             6.57968392072181E+15
 [a.u.] -> [1/cm] (wave numbers)                            2.19474631370540E+05
 [a.u./Bohr**2] -> [1/cm]                                   5.14048714338585E+03
 

 CELL_TOP| Volume [angstrom^3]:                                     12686.086737
 CELL_TOP| Vector a [angstrom    16.869     0.000     0.000   |a| =    16.869000
 CELL_TOP| Vector b [angstrom    -8.434    14.609     0.000   |b| =    16.868929
 CELL_TOP| Vector c [angstrom     0.000     0.000    51.478   |c| =    51.477900
 CELL_TOP| Angle (b,c), alpha [degree]:                                90.000000
 CELL_TOP| Angle (a,c), beta  [degree]:                                90.000000
 CELL_TOP| Angle (a,b), gamma [degree]:                               120.000140
 CELL_TOP| Numerically orthorhombic:                                          NO
 
 GENERATE|  Preliminary Number of Bonds generated:                             0
 GENERATE|  Achieved consistency in connectivity generation.

 CELL| Volume [angstrom^3]:                                         12686.086737
 CELL| Vector a [angstrom]:      16.869     0.000     0.000   |a| =    16.869000
 CELL| Vector b [angstrom]:      -8.434    14.609     0.000   |b| =    16.868929
 CELL| Vector c [angstrom]:       0.000     0.000    51.478   |c| =    51.477900
 CELL| Angle (b,c), alpha [degree]:                                    90.000000
 CELL| Angle (a,c), beta  [degree]:                                    90.000000
 CELL| Angle (a,b), gamma [degree]:                                   120.000140
 CELL| Numerically orthorhombic:                                              NO

 CELL_REF| Volume [angstrom^3]:                                     12686.086737
 CELL_REF| Vector a [angstrom    16.869     0.000     0.000   |a| =    16.869000
 CELL_REF| Vector b [angstrom    -8.434    14.609     0.000   |b| =    16.868929
 CELL_REF| Vector c [angstrom     0.000     0.000    51.478   |c| =    51.477900
 CELL_REF| Angle (b,c), alpha [degree]:                                90.000000
 CELL_REF| Angle (a,c), beta  [degree]:                                90.000000
 CELL_REF| Angle (a,b), gamma [degree]:                               120.000140
 CELL_REF| Numerically orthorhombic:                                          NO

 *******************************************************************************
 *******************************************************************************
 **                                                                           **
 **     #####                         ##              ##                      **
 **    ##   ##            ##          ##              ##                      **
 **   ##     ##                       ##            ######                    **
 **   ##     ##  ##   ##  ##   #####  ##  ##   ####   ##    #####    #####    **
 **   ##     ##  ##   ##  ##  ##      ## ##   ##      ##   ##   ##  ##   ##   **
 **   ##  ## ##  ##   ##  ##  ##      ####     ###    ##   ######   ######    **
 **    ##  ###   ##   ##  ##  ##      ## ##      ##   ##   ##       ##        **
 **     #######   #####   ##   #####  ##  ##  ####    ##    #####   ##        **
 **           ##                                                    ##        **
 **                                                                           **
 **                                                ... make the atoms dance   **
 **                                                                           **
 **            Copyright (C) by CP2K developers group (2000-2022)             **
 **                      J. Chem. Phys. 152, 194103 (2020)                    **
 **                                                                           **
 *******************************************************************************

 DFT| Spin restricted Kohn-Sham (RKS) calculation                            RKS
 DFT| Multiplicity                                                             1
 DFT| Number of spin states                                                    1
 DFT| Charge                                                                   0
 DFT| Self-interaction correction (SIC)                                       NO
 DFT| Cutoffs: density                                              1.000000E-10
 DFT|          gradient                                             1.000000E-10
 DFT|          tau                                                  1.000000E-10
 DFT|          cutoff_smoothing_range                               0.000000E+00
 DFT| XC density smoothing                                                  NONE
 DFT| XC derivatives                                                          PW

 FUNCTIONAL| PBE:
 FUNCTIONAL| J.P.Perdew, K.Burke, M.Ernzerhof, Phys. Rev. Letter, vol. 77, n 18,
 FUNCTIONAL|  pp. 3865-3868, (1996){spin unpolarized}                           

 vdW POTENTIAL|                                                   Pair Potential
 vdW POTENTIAL|          DFT-D3 (Version 3.1)
 vdW POTENTIAL|          Potential Form: S. Grimme et al, JCP 132: 154104 (2010)
 vdW POTENTIAL|          Zero Damping
 vdW POTENTIAL|          Cutoff Radius [Bohr]:                             20.00
 vdW POTENTIAL|          s6 Scaling Factor:                               1.0000
 vdW POTENTIAL|          sr6 Scaling Factor:                              1.2170
 vdW POTENTIAL|          s8 Scaling Factor:                               0.7220
 vdW POTENTIAL|          Cutoff for CN calculation:                   0.1000E-05

 QS| Method:                                                                 GPW
 QS| Density plane wave grid type                        NON-SPHERICAL FULLSPACE
 QS| Number of grid levels:                                                    4
 QS| Density cutoff [a.u.]:                                                200.0
 QS| Multi grid cutoff [a.u.]: 1) grid level                               200.0
 QS|                           2) grid level                                66.7
 QS|                           3) grid level                                22.2
 QS|                           4) grid level                                 7.4
 QS| Grid level progression factor:                                          3.0
 QS| Relative density cutoff [a.u.]:                                        20.0
 QS| Interaction thresholds: eps_pgf_orb:                                3.2E-07
 QS|                         eps_filter_matrix:                          0.0E+00
 QS|                         eps_core_charge:                            1.0E-15
 QS|                         eps_rho_gspace:                             1.0E-13
 QS|                         eps_rho_rspace:                             1.0E-13
 QS|                         eps_gvg_rspace:                             3.2E-07
 QS|                         eps_ppl:                                    1.0E-02
 QS|                         eps_ppnl:                                   3.2E-09


 ATOMIC KIND INFORMATION

  1. Atomic kind: Pt                                    Number of atoms:     216

     Orbital Basis Set                      DZVP-A5-Q10-323-MOL-T1-DERIVED_SET-1

       Number of orbital shell sets:                                           1
       Number of orbital shells:                                               6
       Number of primitive Cartesian functions:                                5
       Number of Cartesian basis functions:                                   23
       Number of spherical basis functions:                                   20
       Norm type:                                                              2

       Normalised Cartesian orbitals:

                        Set   Shell   Orbital            Exponent    Coefficient

                          1       1    2s                2.521825       0.177473
                                                         1.453920      -0.063399
                                                         0.614053      -0.407089
                                                         0.232656       0.262254
                                                         0.074788       0.047371

                          1       2    3s                2.521825      -0.049056
                                                         1.453920       0.044904
                                                         0.614053      -0.009756
                                                         0.232656      -0.144709
                                                         0.074788       0.144085

                          1       3    3px               2.521825      -0.317572
                                                         1.453920       0.534826
                                                         0.614053      -0.489458
                                                         0.232656       0.245631
                                                         0.074788       0.018221
                          1       3    3py               2.521825      -0.317572
                                                         1.453920       0.534826
                                                         0.614053      -0.489458
                                                         0.232656       0.245631
                                                         0.074788       0.018221
                          1       3    3pz               2.521825      -0.317572
                                                         1.453920       0.534826
                                                         0.614053      -0.489458
                                                         0.232656       0.245631
                                                         0.074788       0.018221

                          1       4    4dx2              2.521825       3.008522
                                                         1.453920      -1.224251
                                                         0.614053       0.225691
                                                         0.232656       0.125144
                                                         0.074788      -0.015348
                          1       4    4dxy              2.521825       5.210912
                                                         1.453920      -2.120465
                                                         0.614053       0.390909
                                                         0.232656       0.216756
                                                         0.074788      -0.026584
                          1       4    4dxz              2.521825       5.210912
                                                         1.453920      -2.120465
                                                         0.614053       0.390909
                                                         0.232656       0.216756
                                                         0.074788      -0.026584
                          1       4    4dy2              2.521825       3.008522
                                                         1.453920      -1.224251
                                                         0.614053       0.225691
                                                         0.232656       0.125144
                                                         0.074788      -0.015348
                          1       4    4dyz              2.521825       5.210912
                                                         1.453920      -2.120465
                                                         0.614053       0.390909
                                                         0.232656       0.216756
                                                         0.074788      -0.026584
                          1       4    4dz2              2.521825       3.008522
                                                         1.453920      -1.224251
                                                         0.614053       0.225691
                                                         0.232656       0.125144
                                                         0.074788      -0.015348

                          1       5    5dx2              2.521825       0.698026
                                                         1.453920      -1.511486
                                                         0.614053      -0.335394
                                                         0.232656      -0.025564
                                                         0.074788      -0.002699
                          1       5    5dxy              2.521825       1.209017
                                                         1.453920      -2.617970
                                                         0.614053      -0.580920
                                                         0.232656      -0.044277
                                                         0.074788      -0.004674
                          1       5    5dxz              2.521825       1.209017
                                                         1.453920      -2.617970
                                                         0.614053      -0.580920
                                                         0.232656      -0.044277
                                                         0.074788      -0.004674
                          1       5    5dy2              2.521825       0.698026
                                                         1.453920      -1.511486
                                                         0.614053      -0.335394
                                                         0.232656      -0.025564
                                                         0.074788      -0.002699
                          1       5    5dyz              2.521825       1.209017
                                                         1.453920      -2.617970
                                                         0.614053      -0.580920
                                                         0.232656      -0.044277
                                                         0.074788      -0.004674
                          1       5    5dz2              2.521825       0.698026
                                                         1.453920      -1.511486
                                                         0.614053      -0.335394
                                                         0.232656      -0.025564
                                                         0.074788      -0.002699

                          1       6    6dx2              2.521825       0.831079
                                                         1.453920      -0.709226
                                                         0.614053      -0.137351
                                                         0.232656       0.068642
                                                         0.074788       0.011745
                          1       6    6dxy              2.521825       1.439472
                                                         1.453920      -1.228415
                                                         0.614053      -0.237899
                                                         0.232656       0.118891
                                                         0.074788       0.020343
                          1       6    6dxz              2.521825       1.439472
                                                         1.453920      -1.228415
                                                         0.614053      -0.237899
                                                         0.232656       0.118891
                                                         0.074788       0.020343
                          1       6    6dy2              2.521825       0.831079
                                                         1.453920      -0.709226
                                                         0.614053      -0.137351
                                                         0.232656       0.068642
                                                         0.074788       0.011745
                          1       6    6dyz              2.521825       1.439472
                                                         1.453920      -1.228415
                                                         0.614053      -0.237899
                                                         0.232656       0.118891
                                                         0.074788       0.020343
                          1       6    6dz2              2.521825       0.831079
                                                         1.453920      -0.709226
                                                         0.614053      -0.137351
                                                         0.232656       0.068642
                                                         0.074788       0.011745

       Atomic covalent radius [Angstrom]:                                  1.300

       Atomic van der Waals radius [Angstrom]:                             1.750

     GTH Potential information for                                   GTH-PBE-q10

       Description:                       Goedecker-Teter-Hutter pseudopotential
                                           Goedecker et al., PRB 54, 1703 (1996)
                                          Hartwigsen et al., PRB 58, 3641 (1998)
                                                      Krack, TCA 114, 145 (2005)

       Gaussian exponent of the core charge distribution:               1.317676
       Electronic configuration (s p d ...):                           1   0   9

       Parameters of the local part of the GTH pseudopotential:

                          rloc        C1          C2          C3          C4
                        0.616000   11.313635

       Parameters of the non-local part of the GTH pseudopotential:

                   l      r(l)      h(i,j,l)

                   0    0.550904    4.733491   -1.784594
                                   -1.784594    2.303901
                   1    0.674138    2.534798   -1.778066
                                   -1.778066    2.103836
                   2    0.457392   -7.264011    2.558665
                                    2.558665   -2.901253


 MOLECULE KIND INFORMATION


 All atoms are their own molecule, skipping detailed information


 TOTAL NUMBERS AND MAXIMUM NUMBERS

  Total number of            - Atomic kinds:                                   1
                             - Atoms:                                        216
                             - Shell sets:                                   216
                             - Shells:                                      1296
                             - Primitive Cartesian functions:               1080
                             - Cartesian basis functions:                   4968
                             - Spherical basis functions:                   4320

  Maximum angular momentum of- Orbital basis functions:                        2
                             - Local part of the GTH pseudopotential:          0
                             - Non-local part of the GTH pseudopotential:      4


 MODULE QUICKSTEP:  ATOMIC COORDINATES IN angstrom

 Atom  Kind  Element       X           Y           Z          Z(eff)       Mass
    1   1 Pt  78       2.239986    0.514470   20.064934      10.0000    195.0840
    2   1 Pt  78       5.079986    0.304470   19.994934      10.0000    195.0840
    3   1 Pt  78       7.869986    0.454470   20.064934      10.0000    195.0840
    4   1 Pt  78      10.569987    0.434470   20.044937      10.0000    195.0840
    5   1 Pt  78      13.379986    0.464470   20.114937      10.0000    195.0840
    6   1 Pt  78      16.289986    0.384470   20.124935      10.0000    195.0840
    7   1 Pt  78       3.659986    2.884471   19.954937      10.0000    195.0840
    8   1 Pt  78       6.419986    3.004471   19.914936      10.0000    195.0840
    9   1 Pt  78       9.249987    2.854471   20.134934      10.0000    195.0840
   10   1 Pt  78      12.049986    2.864471   20.074932      10.0000    195.0840
   11   1 Pt  78      14.789987    2.974470   20.104935      10.0000    195.0840
   12   1 Pt  78       0.749986    2.964470   19.894936      10.0000    195.0840
   13   1 Pt  78       4.959986    5.494471   20.004933      10.0000    195.0840
   14   1 Pt  78       7.809986    5.414471   20.004933      10.0000    195.0840
   15   1 Pt  78      10.509986    5.354471   20.124935      10.0000    195.0840
   16   1 Pt  78      13.339987    5.314471   20.144936      10.0000    195.0840
   17   1 Pt  78      -0.600014    5.354471   19.954937      10.0000    195.0840
   18   1 Pt  78       2.149986    5.374471   19.724934      10.0000    195.0840
   19   1 Pt  78       6.319986    7.934471   20.124935      10.0000    195.0840
   20   1 Pt  78       9.129986    7.794471   19.854935      10.0000    195.0840
   21   1 Pt  78      12.019986    7.764471   19.974934      10.0000    195.0840
   22   1 Pt  78      -2.060014    7.684471   20.054936      10.0000    195.0840
   23   1 Pt  78       0.779986    7.724471   19.934933      10.0000    195.0840
   24   1 Pt  78       3.579986    7.814470   19.974934      10.0000    195.0840
   25   1 Pt  78       7.849986   10.274470   19.874935      10.0000    195.0840
   26   1 Pt  78      10.689988   10.254471   19.964935      10.0000    195.0840
   27   1 Pt  78      -3.420014   10.274470   19.994934      10.0000    195.0840
   28   1 Pt  78      -0.600014   10.124471   20.074932      10.0000    195.0840
   29   1 Pt  78       2.129986   10.184471   20.004933      10.0000    195.0840
   30   1 Pt  78       4.989986   10.154470   19.924935      10.0000    195.0840
   31   1 Pt  78       9.319987   12.724470   20.054936      10.0000    195.0840
   32   1 Pt  78      -4.810014   12.714472   19.884937      10.0000    195.0840
   33   1 Pt  78      -2.020014   12.594471   20.014935      10.0000    195.0840
   34   1 Pt  78       0.859986   12.514471   20.014935      10.0000    195.0840
   35   1 Pt  78       3.659986   12.614471   19.904934      10.0000    195.0840
   36   1 Pt  78       6.469986   12.714472   19.944935      10.0000    195.0840
   37   1 Pt  78       0.769986    1.234470   22.364933      10.0000    195.0840
   38   1 Pt  78       3.679986    1.344471   22.294933      10.0000    195.0840
   39   1 Pt  78       6.439987    1.304470   22.224934      10.0000    195.0840
   40   1 Pt  78       9.169986    1.084470   22.484936      10.0000    195.0840
   41   1 Pt  78      12.119987    1.214470   22.394936      10.0000    195.0840
   42   1 Pt  78      14.879986    1.304470   22.414936      10.0000    195.0840
   43   1 Pt  78       2.119986    3.724471   22.144936      10.0000    195.0840
   44   1 Pt  78       4.999986    3.744471   22.284935      10.0000    195.0840
   45   1 Pt  78       7.789986    3.784471   22.414936      10.0000    195.0840
   46   1 Pt  78      10.559986    3.684470   22.474934      10.0000    195.0840
   47   1 Pt  78      13.379986    3.724471   22.444935      10.0000    195.0840
   48   1 Pt  78      -0.650014    3.694471   22.314938      10.0000    195.0840
   49   1 Pt  78       3.499986    6.124471   22.264935      10.0000    195.0840
   50   1 Pt  78       6.309986    6.204471   22.374935      10.0000    195.0840
   51   1 Pt  78       9.119986    6.204471   22.334934      10.0000    195.0840
   52   1 Pt  78      11.939988    6.154470   22.294933      10.0000    195.0840
   53   1 Pt  78      -1.960014    6.074471   22.374935      10.0000    195.0840
   54   1 Pt  78       0.819986    6.114471   22.264935      10.0000    195.0840
   55   1 Pt  78       4.859986    8.584471   22.394936      10.0000    195.0840
   56   1 Pt  78       7.729987    8.654470   22.274933      10.0000    195.0840
   57   1 Pt  78      10.519986    8.554471   22.204933      10.0000    195.0840
   58   1 Pt  78      -3.400014    8.654470   22.274933      10.0000    195.0840
   59   1 Pt  78      -0.620014    8.474470   22.384937      10.0000    195.0840
   60   1 Pt  78       2.109986    8.514471   22.434933      10.0000    195.0840
   61   1 Pt  78       6.429986   10.944471   22.164936      10.0000    195.0840
   62   1 Pt  78       9.079986   11.094471   22.274933      10.0000    195.0840
   63   1 Pt  78      -4.940015   10.994471   22.284935      10.0000    195.0840
   64   1 Pt  78      -2.040014   11.034471   22.314938      10.0000    195.0840
   65   1 Pt  78       0.749986   10.924471   22.464935      10.0000    195.0840
   66   1 Pt  78       3.569986   10.974471   22.284935      10.0000    195.0840
   67   1 Pt  78       7.799986   13.494471   22.444935      10.0000    195.0840
   68   1 Pt  78      -6.210014   13.484471   22.334934      10.0000    195.0840
   69   1 Pt  78      -3.490014   13.514471   22.304936      10.0000    195.0840
   70   1 Pt  78      -0.650014   13.334471   22.314938      10.0000    195.0840
   71   1 Pt  78       2.169986   13.364471   22.424935      10.0000    195.0840
   72   1 Pt  78       4.999986   13.374472   22.334934      10.0000    195.0840
   73   1 Pt  78      -7.730014   14.204471   24.614933      10.0000    195.0840
   74   1 Pt  78      -4.890014   14.284471   24.504936      10.0000    195.0840
   75   1 Pt  78      -2.040014   14.204471   24.614933      10.0000    195.0840
   76   1 Pt  78       0.709986   14.154470   24.644936      10.0000    195.0840
   77   1 Pt  78       3.499986   14.204471   24.684933      10.0000    195.0840
   78   1 Pt  78       6.329986   14.304470   24.704937      10.0000    195.0840
   79   1 Pt  78       2.139986    2.164470   24.594936      10.0000    195.0840
   80   1 Pt  78       4.939986    2.144470   24.584934      10.0000    195.0840
   81   1 Pt  78       7.719986    2.124471   24.674935      10.0000    195.0840
   82   1 Pt  78      10.599986    1.924470   24.694935      10.0000    195.0840
   83   1 Pt  78      13.439987    2.064471   24.754933      10.0000    195.0840
   84   1 Pt  78      -0.620014    2.064471   24.604935      10.0000    195.0840
   85   1 Pt  78       3.629986    4.544471   24.534935      10.0000    195.0840
   86   1 Pt  78       6.349986    4.574471   24.644936      10.0000    195.0840
   87   1 Pt  78       9.249987    4.574471   24.724934      10.0000    195.0840
   88   1 Pt  78      11.969986    4.464470   24.684933      10.0000    195.0840
   89   1 Pt  78      -2.040014    4.444470   24.654934      10.0000    195.0840
   90   1 Pt  78       0.789986    4.494471   24.654934      10.0000    195.0840
   91   1 Pt  78       4.939986    6.994471   24.584934      10.0000    195.0840
   92   1 Pt  78       7.759987    6.944470   24.624935      10.0000    195.0840
   93   1 Pt  78      10.589986    7.054471   24.544933      10.0000    195.0840
   94   1 Pt  78      -3.530014    6.944470   24.624935      10.0000    195.0840
   95   1 Pt  78      -0.600014    6.904470   24.684933      10.0000    195.0840
   96   1 Pt  78       2.129986    6.874471   24.644936      10.0000    195.0840
   97   1 Pt  78       6.339986    9.454471   24.654934      10.0000    195.0840
   98   1 Pt  78       9.179986    9.314471   24.524937      10.0000    195.0840
   99   1 Pt  78      -4.930014    9.374471   24.514935      10.0000    195.0840
  100   1 Pt  78      -2.010014    9.284471   24.514935      10.0000    195.0840
  101   1 Pt  78       0.859986    9.294471   24.724934      10.0000    195.0840
  102   1 Pt  78       3.529986    9.424471   24.724934      10.0000    195.0840
  103   1 Pt  78       7.699986   11.864471   24.644936      10.0000    195.0840
  104   1 Pt  78      -6.350014   11.774471   24.494934      10.0000    195.0840
  105   1 Pt  78      -3.450014   11.784471   24.584934      10.0000    195.0840
  106   1 Pt  78      -0.710014   11.764471   24.604935      10.0000    195.0840
  107   1 Pt  78       2.099986   11.814471   24.724934      10.0000    195.0840
  108   1 Pt  78       4.899986   11.874472   24.634937      10.0000    195.0840
  109   1 Pt  78       2.119986    0.464470   26.802934      10.0000    195.0840
  110   1 Pt  78       4.999986    0.354470   26.812933      10.0000    195.0840
  111   1 Pt  78       7.729987    0.374470   26.952934      10.0000    195.0840
  112   1 Pt  78      10.469986    0.454470   26.992933      10.0000    195.0840
  113   1 Pt  78      13.259987    0.384470   27.012933      10.0000    195.0840
  114   1 Pt  78      16.119987    0.434470   26.972933      10.0000    195.0840
  115   1 Pt  78       3.599986    2.844471   26.962933      10.0000    195.0840
  116   1 Pt  78       6.299986    2.864471   26.972933      10.0000    195.0840
  117   1 Pt  78       8.999986    2.914471   26.992933      10.0000    195.0840
  118   1 Pt  78      11.879986    2.804471   26.982933      10.0000    195.0840
  119   1 Pt  78      14.689987    2.814471   27.042933      10.0000    195.0840
  120   1 Pt  78       0.719986    2.804471   26.952934      10.0000    195.0840
  121   1 Pt  78       4.919986    5.294471   26.882934      10.0000    195.0840
  122   1 Pt  78       7.719986    5.464470   26.892933      10.0000    195.0840
  123   1 Pt  78      10.459986    5.384470   26.962933      10.0000    195.0840
  124   1 Pt  78      13.219986    5.254471   26.982933      10.0000    195.0840
  125   1 Pt  78      -0.680014    5.244471   26.922933      10.0000    195.0840
  126   1 Pt  78       2.249986    5.184471   26.912934      10.0000    195.0840
  127   1 Pt  78       6.299986    7.824471   26.932934      10.0000    195.0840
  128   1 Pt  78       9.129986    7.794471   26.922933      10.0000    195.0840
  129   1 Pt  78      11.959987    7.764471   26.892933      10.0000    195.0840
  130   1 Pt  78      -2.170014    7.644470   26.932934      10.0000    195.0840
  131   1 Pt  78       0.719986    7.654471   26.932934      10.0000    195.0840
  132   1 Pt  78       3.579986    7.754471   26.982933      10.0000    195.0840
  133   1 Pt  78       7.689987   10.224470   26.862933      10.0000    195.0840
  134   1 Pt  78      10.499987   10.184471   26.822934      10.0000    195.0840
  135   1 Pt  78      -3.490014   10.124471   26.862933      10.0000    195.0840
  136   1 Pt  78      -0.700014   10.074471   26.972933      10.0000    195.0840
  137   1 Pt  78       2.039986   10.174471   27.092933      10.0000    195.0840
  138   1 Pt  78       4.849986   10.214472   26.942934      10.0000    195.0840
  139   1 Pt  78       9.079986   12.654470   26.922933      10.0000    195.0840
  140   1 Pt  78      -4.940015   12.554471   26.732933      10.0000    195.0840
  141   1 Pt  78      -2.080014   12.534472   26.892933      10.0000    195.0840
  142   1 Pt  78       0.609986   12.534472   26.982933      10.0000    195.0840
  143   1 Pt  78       3.369986   12.674471   27.082934      10.0000    195.0840
  144   1 Pt  78       6.219986   12.664472   27.012933      10.0000    195.0840
  145   1 Pt  78       0.669986    1.144470   29.412934      10.0000    195.0840
  146   1 Pt  78       3.579986    1.204470   29.152934      10.0000    195.0840
  147   1 Pt  78       6.389986    1.294470   29.222934      10.0000    195.0840
  148   1 Pt  78       9.039986    1.244471   29.232933      10.0000    195.0840
  149   1 Pt  78      11.829987    1.274471   29.312933      10.0000    195.0840
  150   1 Pt  78      14.679986    1.274471   29.262933      10.0000    195.0840
  151   1 Pt  78       2.029986    3.534471   29.262933      10.0000    195.0840
  152   1 Pt  78       4.809986    3.654470   29.322934      10.0000    195.0840
  153   1 Pt  78       7.709986    3.794471   29.312933      10.0000    195.0840
  154   1 Pt  78      10.459986    3.734470   29.292934      10.0000    195.0840
  155   1 Pt  78      13.269986    3.684470   29.352934      10.0000    195.0840
  156   1 Pt  78      -0.660014    3.554471   29.192934      10.0000    195.0840
  157   1 Pt  78       3.439986    6.064470   29.302934      10.0000    195.0840
  158   1 Pt  78       6.299986    6.284471   29.162934      10.0000    195.0840
  159   1 Pt  78       9.009986    6.204471   29.352934      10.0000    195.0840
  160   1 Pt  78      11.829987    6.224471   29.182934      10.0000    195.0840
  161   1 Pt  78      -2.130014    6.014471   29.262933      10.0000    195.0840
  162   1 Pt  78       0.679986    5.994471   29.232933      10.0000    195.0840
  163   1 Pt  78       4.919986    8.534471   29.362934      10.0000    195.0840
  164   1 Pt  78       7.719986    8.684471   29.282934      10.0000    195.0840
  165   1 Pt  78      10.549986    8.724471   29.262933      10.0000    195.0840
  166   1 Pt  78      -3.530014    8.484471   29.352934      10.0000    195.0840
  167   1 Pt  78      -0.720014    8.374471   29.292934      10.0000    195.0840
  168   1 Pt  78       2.119986    8.504471   29.232933      10.0000    195.0840
  169   1 Pt  78       6.249986   11.014471   29.172934      10.0000    195.0840
  170   1 Pt  78       9.079986   11.064470   29.152934      10.0000    195.0840
  171   1 Pt  78      -4.930014   10.924471   29.032933      10.0000    195.0840
  172   1 Pt  78      -2.110014   10.864471   29.242933      10.0000    195.0840
  173   1 Pt  78       0.659986   10.884470   29.372934      10.0000    195.0840
  174   1 Pt  78       3.469986   10.924471   29.302934      10.0000    195.0840
  175   1 Pt  78       7.589986   13.434471   29.292934      10.0000    195.0840
  176   1 Pt  78      -6.320015   13.414471   29.172934      10.0000    195.0840
  177   1 Pt  78      -3.570014   13.424471   29.092934      10.0000    195.0840
  178   1 Pt  78      -0.730014   13.264471   29.272934      10.0000    195.0840
  179   1 Pt  78       1.939986   13.374472   29.282934      10.0000    195.0840
  180   1 Pt  78       4.719986   13.464471   29.312933      10.0000    195.0840
  181   1 Pt  78      -8.010014   14.224472   31.622934      10.0000    195.0840
  182   1 Pt  78      -4.980014   14.124471   31.482934      10.0000    195.0840
  183   1 Pt  78      -2.240014   14.194471   31.462934      10.0000    195.0840
  184   1 Pt  78       0.669986   14.134471   31.592934      10.0000    195.0840
  185   1 Pt  78       3.329986   14.214471   31.642933      10.0000    195.0840
  186   1 Pt  78       6.109987   14.224472   31.682934      10.0000    195.0840
  187   1 Pt  78       2.119986    2.014471   31.562934      10.0000    195.0840
  188   1 Pt  78       4.979986    1.984470   31.542934      10.0000    195.0840
  189   1 Pt  78       7.749986    2.044470   31.592934      10.0000    195.0840
  190   1 Pt  78      10.419986    2.014471   31.552934      10.0000    195.0840
  191   1 Pt  78      13.309986    2.034470   31.752934      10.0000    195.0840
  192   1 Pt  78      -0.860014    2.074471   31.612934      10.0000    195.0840
  193   1 Pt  78       3.449986    4.354470   31.622934      10.0000    195.0840
  194   1 Pt  78       6.199986    4.604471   31.482934      10.0000    195.0840
  195   1 Pt  78       9.039986    4.604471   31.742934      10.0000    195.0840
  196   1 Pt  78      11.759987    4.454471   31.462934      10.0000    195.0840
  197   1 Pt  78      -2.110014    4.484470   31.572934      10.0000    195.0840
  198   1 Pt  78       0.709986    4.494471   31.572934      10.0000    195.0840
  199   1 Pt  78       4.729987    6.894471   31.692934      10.0000    195.0840
  200   1 Pt  78       7.519986    6.984470   31.742934      10.0000    195.0840
  201   1 Pt  78      10.319987    6.954471   31.722934      10.0000    195.0840
  202   1 Pt  78      -3.630014    6.884471   31.532934      10.0000    195.0840
  203   1 Pt  78      -0.830014    6.914471   31.622934      10.0000    195.0840
  204   1 Pt  78       1.989986    6.864471   31.492934      10.0000    195.0840
  205   1 Pt  78       6.189986    9.364471   31.622934      10.0000    195.0840
  206   1 Pt  78       8.959987    9.374471   31.612934      10.0000    195.0840
  207   1 Pt  78      -5.120014    9.284471   31.602933      10.0000    195.0840
  208   1 Pt  78      -2.220014    9.264471   31.482934      10.0000    195.0840
  209   1 Pt  78       0.609986    9.274471   31.662934      10.0000    195.0840
  210   1 Pt  78       3.459986    9.274471   31.662934      10.0000    195.0840
  211   1 Pt  78       7.539986   11.754471   31.602933      10.0000    195.0840
  212   1 Pt  78      -6.520014   11.814471   31.402934      10.0000    195.0840
  213   1 Pt  78      -3.730014   11.734470   31.472934      10.0000    195.0840
  214   1 Pt  78      -0.820014   11.614471   31.692934      10.0000    195.0840
  215   1 Pt  78       2.049986   11.704471   31.642933      10.0000    195.0840
  216   1 Pt  78       4.839986   11.744472   31.562934      10.0000    195.0840




 SCF PARAMETERS         Density guess:                                   RESTART
                        --------------------------------------------------------
                        max_scf:                                             500
                        max_scf_history:                                       0
                        max_diis:                                              4
                        --------------------------------------------------------
                        eps_scf:                                        1.00E-06
                        eps_scf_history:                                0.00E+00
                        eps_diis:                                       1.00E-01
                        eps_eigval:                                     1.00E-05
                        --------------------------------------------------------
                        level_shift [a.u.]:                             0.000000
                        added MOs                                       500    0
                        --------------------------------------------------------
                        Mixing method:                            BROYDEN_MIXING
                                                charge density mixing in g-space
                        --------------------------------------------------------
                        Smear method:                                FERMI_DIRAC
                        Electronic temperature [K]:                        300.0
                        Electronic temperature [a.u.]:                  9.50E-04
                        Accuracy threshold:                             1.00E-10
                        --------------------------------------------------------
                        No outer SCF

 PW_GRID| Information for grid number                                          1
 PW_GRID| Grid distributed over                                    32 processors
 PW_GRID| Real space group dimensions                                    32    1
 PW_GRID| the grid is blocked:                                                NO
 PW_GRID| Cutoff [a.u.]                                                    200.0
 PW_GRID| spherical cutoff:                                                   NO
 PW_GRID|   Bounds   1           -105     104                Points:         210
 PW_GRID|   Bounds   2           -105     104                Points:         210
 PW_GRID|   Bounds   3           -315     314                Points:         630
 PW_GRID| Volume element (a.u.^3)  0.3081E-02     Volume (a.u.^3)     85609.9578
 PW_GRID| Grid span                                                    FULLSPACE
 PW_GRID|   Distribution                         Average         Max         Min
 PW_GRID|   G-Vectors                           868218.8      868350      868140
 PW_GRID|   G-Rays                                4134.4        4135        4134
 PW_GRID|   Real Space Points                   868218.8      926100      793800

 PW_GRID| Information for grid number                                          2
 PW_GRID| Number of the reference grid                                         1
 PW_GRID| Grid distributed over                                    32 processors
 PW_GRID| Real space group dimensions                                    32    1
 PW_GRID| the grid is blocked:                                                NO
 PW_GRID| Cutoff [a.u.]                                                     66.7
 PW_GRID| spherical cutoff:                                                   NO
 PW_GRID|   Bounds   1            -60      59                Points:         120
 PW_GRID|   Bounds   2            -60      59                Points:         120
 PW_GRID|   Bounds   3           -180     179                Points:         360
 PW_GRID| Volume element (a.u.^3)  0.1651E-01     Volume (a.u.^3)     85609.9578
 PW_GRID| Grid span                                                    FULLSPACE
 PW_GRID|   Distribution                         Average         Max         Min
 PW_GRID|   G-Vectors                           162000.0      162840      161280
 PW_GRID|   G-Rays                                1350.0        1357        1344
 PW_GRID|   Real Space Points                   162000.0      172800      129600

 PW_GRID| Information for grid number                                          3
 PW_GRID| Number of the reference grid                                         1
 PW_GRID| Grid distributed over                                    32 processors
 PW_GRID| Real space group dimensions                                    32    1
 PW_GRID| the grid is blocked:                                                NO
 PW_GRID| Cutoff [a.u.]                                                     22.2
 PW_GRID| spherical cutoff:                                                   NO
 PW_GRID|   Bounds   1            -35      34                Points:          70
 PW_GRID|   Bounds   2            -35      34                Points:          70
 PW_GRID|   Bounds   3           -105     104                Points:         210
 PW_GRID| Volume element (a.u.^3)  0.8320E-01     Volume (a.u.^3)     85609.9578
 PW_GRID| Grid span                                                    FULLSPACE
 PW_GRID|   Distribution                         Average         Max         Min
 PW_GRID|   G-Vectors                            32156.2       32340       31990
 PW_GRID|   G-Rays                                 459.4         462         457
 PW_GRID|   Real Space Points                    32156.2       44100       29400

 PW_GRID| Information for grid number                                          4
 PW_GRID| Number of the reference grid                                         1
 PW_GRID| Grid distributed over                                    32 processors
 PW_GRID| Real space group dimensions                                    32    1
 PW_GRID| the grid is blocked:                                                NO
 PW_GRID| Cutoff [a.u.]                                                      7.4
 PW_GRID| spherical cutoff:                                                   NO
 PW_GRID|   Bounds   1            -20      19                Points:          40
 PW_GRID|   Bounds   2            -20      19                Points:          40
 PW_GRID|   Bounds   3            -60      59                Points:         120
 PW_GRID| Volume element (a.u.^3)  0.4459         Volume (a.u.^3)     85609.9578
 PW_GRID| Grid span                                                    FULLSPACE
 PW_GRID|   Distribution                         Average         Max         Min
 PW_GRID|   G-Vectors                             6000.0        6120        5920
 PW_GRID|   G-Rays                                 150.0         153         148
 PW_GRID|   Real Space Points                     6000.0        9600        4800

 POISSON| Solver                                          IMPLICIT (GENERALIZED)
 POISSON| Boundary Condition                                PERIODIC & DIRICHLET
 POISSON| Maximum number of iterations                                        30
 POISSON| Convergence threshold                                         1.00E-08
 POISSON| Dielectric Constant                                              80.00
 POISSON| Relaxation parameter                                          1.00E+00

 RS_GRID| Information for grid number                                          1
 RS_GRID|   Bounds   1           -105     104                Points:         210
 RS_GRID|   Bounds   2           -105     104                Points:         210
 RS_GRID|   Bounds   3           -315     314                Points:         630
 RS_GRID| Real space distribution over                                 32 groups
 RS_GRID| Real space distribution along direction                              3
 RS_GRID| Border size                                                         54
 RS_GRID|   Distribution                         Average         Max         Min
 RS_GRID|   Planes                                 127.7         128         127

 RS_GRID| Information for grid number                                          2
 RS_GRID|   Bounds   1            -60      59                Points:         120
 RS_GRID|   Bounds   2            -60      59                Points:         120
 RS_GRID|   Bounds   3           -180     179                Points:         360
 RS_GRID| Real space distribution over                                 32 groups
 RS_GRID| Real space distribution along direction                              3
 RS_GRID| Border size                                                         36
 RS_GRID|   Distribution                         Average         Max         Min
 RS_GRID|   Planes                                  83.2          84          83

 RS_GRID| Information for grid number                                          3
 RS_GRID|   Bounds   1            -35      34                Points:          70
 RS_GRID|   Bounds   2            -35      34                Points:          70
 RS_GRID|   Bounds   3           -105     104                Points:         210
 RS_GRID| Real space fully replicated
 RS_GRID| Group size                                                           1

 RS_GRID| Information for grid number                                          4
 RS_GRID|   Bounds   1            -20      19                Points:          40
 RS_GRID|   Bounds   2            -20      19                Points:          40
 RS_GRID|   Bounds   3            -60      59                Points:         120
 RS_GRID| Real space fully replicated
 RS_GRID| Group size                                                           1

 Number of electrons:                                                       2160
 Number of occupied orbitals:                                               1080
 Number of molecular orbitals:                                              1580

 Number of orbital functions:                                               4320
 Number of independent orbital functions:                                   4320

 Extrapolation method: initial_guess


 SCF WAVEFUNCTION OPTIMIZATION

  Step     Update method      Time    Convergence         Total energy    Change
  ------------------------------------------------------------------------------

  POISSON| IMPLICIT (GENERALIZED) SOLVER ---------------------------------------
  POISSON| Preparing Dirichlet regions ...
  POISSON| Dirichlet region    1
  POISSON|     type : axis-aligned planar
  POISSON|     applied potential :   0.0000E+00  [Eh/e]
  POISSON| Dirichlet region    2
  POISSON|     type : axis-aligned planar
  POISSON|     applied potential :   0.3675E-01  [Eh/e]
  POISSON| ... Done. 
  ------------------------------------------------------------------------------

  POISSON|   iter        pres error      nabs error        E_hartree    delta E
  POISSON|      1        0.7334E-03      0.3338E-01    1992.0729069434  0.20E+04
  POISSON|      2        0.1624E-14      0.7334E-03    1992.0763957748  0.35E-02
  POISSON| Poisson solver converged in 2 iterations.
     1 NoMix/Diag. 0.30E+00   11.1     0.16195577     -5671.0535761089 -5.67E+03
  POISSON|   iter        pres error      nabs error        E_hartree    delta E
  POISSON|      1        0.7849E-03      0.3320E-01    1992.0205568511 -0.56E-01
  POISSON|      2        0.1345E-14      0.7849E-03    1992.0242904695  0.37E-02
  POISSON| Poisson solver converged in 2 iterations.
     2 Broy./Diag. 0.30E+00   13.2     0.19573145     -5671.4550685459 -4.01E-01
  POISSON|   iter        pres error      nabs error        E_hartree    delta E
  POISSON|      1        0.1155E-03      0.5028E-03    1992.1553749187  0.13E+00
  POISSON|      2        0.4888E-16      0.1155E-03    1992.1548253009 -0.55E-03
  POISSON| Poisson solver converged in 2 iterations.
     3 Broy./Diag. 0.30E+00   13.4     0.17376671     -5675.2063050311 -3.75E+00
  POISSON|   iter        pres error      nabs error        E_hartree    delta E
  POISSON|      1        0.9177E-04      0.3747E-03    1992.2091661018  0.54E-01
  POISSON|      2        0.4664E-16      0.9177E-04    1992.2096026569  0.44E-03
  POISSON| Poisson solver converged in 2 iterations.
     4 Broy./Diag. 0.30E+00   13.5     0.13682719     -5672.8224422440  2.38E+00
  POISSON|   iter        pres error      nabs error        E_hartree    delta E
  POISSON|      1        0.2819E-04      0.1130E-03    1992.3324854639  0.12E+00
  POISSON|      2        0.5333E-17      0.2819E-04    1992.3323513842 -0.13E-03
  POISSON| Poisson solver converged in 2 iterations.
     5 Broy./Diag. 0.30E+00   13.3     0.05918529     -5672.8900797565 -6.76E-02
  POISSON|   iter        pres error      nabs error        E_hartree    delta E
  POISSON|      1        0.3380E-05      0.3716E-04    1992.4285648753  0.96E-01
  POISSON|      2        0.2062E-16      0.3380E-05    1992.4285809520  0.16E-04
  POISSON| Poisson solver converged in 2 iterations.
     6 Broy./Diag. 0.30E+00   13.3     0.03517954     -5672.7615072692  1.29E-01
  POISSON|   iter        pres error      nabs error        E_hartree    delta E
  POISSON|      1        0.3706E-05      0.3594E-04    1992.5525870074  0.12E+00
  POISSON|      2        0.1831E-16      0.3706E-05    1992.5526046375  0.18E-04
  POISSON| Poisson solver converged in 2 iterations.
     7 Broy./Diag. 0.30E+00   13.4     0.03411643     -5672.5006817646  2.61E-01
  POISSON|   iter        pres error      nabs error        E_hartree    delta E
  POISSON|      1        0.3311E-05      0.3272E-04    1992.6356119630  0.83E-01
  POISSON|      2        0.1011E-16      0.3311E-05    1992.6355962134 -0.16E-04
  POISSON| Poisson solver converged in 2 iterations.
     8 Broy./Diag. 0.30E+00   13.4     0.01828757     -5672.1522265856  3.48E-01
  POISSON|   iter        pres error      nabs error        E_hartree    delta E
  POISSON|      1        0.6536E-06      0.8908E-05    1992.6583832460  0.23E-01
  POISSON|      2        0.9295E-18      0.6536E-06    1992.6583801367 -0.31E-05
  POISSON| Poisson solver converged in 2 iterations.
     9 Broy./Diag. 0.30E+00   13.5     0.00781286     -5672.3715154166 -2.19E-01
  POISSON|   iter        pres error      nabs error        E_hartree    delta E
  POISSON|      1        0.1283E-06      0.5564E-05    1992.6689226871  0.11E-01
  POISSON|      2        0.3238E-17      0.1283E-06    1992.6689232975  0.61E-06
  POISSON| Poisson solver converged in 2 iterations.
    10 Broy./Diag. 0.30E+00   13.6     0.00657143     -5672.3006757724  7.08E-02
  POISSON|   iter        pres error      nabs error        E_hartree    delta E
  POISSON|      1        0.3393E-07      0.5499E-05    1992.6751318569  0.62E-02
  POISSON|      2        0.9425E-17      0.3393E-07    1992.6751320183  0.16E-06
  POISSON| Poisson solver converged in 2 iterations.
    11 Broy./Diag. 0.30E+00   13.6     0.00242973     -5672.2632324997  3.74E-02
  POISSON|   iter        pres error      nabs error        E_hartree    delta E
  POISSON|      1        0.1647E-06      0.3717E-05    1992.6813216447  0.62E-02
  POISSON|      2        0.3790E-18      0.1647E-06    1992.6813224281  0.78E-06
  POISSON| Poisson solver converged in 2 iterations.
    12 Broy./Diag. 0.30E+00   13.7     0.00179202     -5672.2997034424 -3.65E-02
  POISSON|   iter        pres error      nabs error        E_hartree    delta E
  POISSON|      1        0.3288E-06      0.2944E-05    1992.6849807071  0.37E-02
  POISSON|      2        0.5287E-17      0.3288E-06    1992.6849791430 -0.16E-05
  POISSON| Poisson solver converged in 2 iterations.
    13 Broy./Diag. 0.30E+00   13.6     0.00138764     -5672.2862643605  1.34E-02
  POISSON|   iter        pres error      nabs error        E_hartree    delta E
  POISSON|      1        0.1163E-06      0.1380E-05    1992.6852838473  0.30E-03
  POISSON|      2        0.3431E-17      0.1163E-06    1992.6852844004  0.55E-06
  POISSON| Poisson solver converged in 2 iterations.
    14 Broy./Diag. 0.30E+00   13.6     0.00088761     -5672.2872956188 -1.03E-03
  POISSON|   iter        pres error      nabs error        E_hartree    delta E
  POISSON|      1        0.1521E-06      0.1465E-05    1992.6853775975  0.93E-04
  POISSON|      2        0.1293E-17      0.1521E-06    1992.6853783211  0.72E-06
  POISSON| Poisson solver converged in 2 iterations.
    15 Broy./Diag. 0.30E+00   13.6     0.00071846     -5672.2842773156  3.02E-03
  POISSON|   iter        pres error      nabs error        E_hartree    delta E
  POISSON|      1        0.4198E-06      0.1794E-05    1992.6852845543 -0.94E-04
  POISSON|      2        0.7545E-17      0.4198E-06    1992.6852825572 -0.20E-05
  POISSON| Poisson solver converged in 2 iterations.
    16 Broy./Diag. 0.30E+00   13.6     0.00097066     -5672.2897878010 -5.51E-03
  POISSON|   iter        pres error      nabs error        E_hartree    delta E
  POISSON|      1        0.7147E-07      0.1466E-05    1992.6851982395 -0.84E-04
  POISSON|      2        0.1293E-17      0.7147E-07    1992.6851985795  0.34E-06
  POISSON| Poisson solver converged in 2 iterations.
    17 Broy./Diag. 0.30E+00   13.6     0.00085824     -5672.2924247971 -2.64E-03
  POISSON|   iter        pres error      nabs error        E_hartree    delta E
  POISSON|      1        0.6320E-07      0.1027E-05    1992.6854321968  0.23E-03
  POISSON|      2        0.4218E-18      0.6320E-07    1992.6854324974  0.30E-06
  POISSON| Poisson solver converged in 2 iterations.
    18 Broy./Diag. 0.30E+00   13.6     0.00037693     -5672.2917260780  6.99E-04
  POISSON|   iter        pres error      nabs error        E_hartree    delta E
  POISSON|      1        0.4751E-07      0.9382E-06    1992.6855379083  0.11E-03
  POISSON|      2        0.3940E-17      0.4751E-07    1992.6855376823 -0.23E-06
  POISSON| Poisson solver converged in 2 iterations.
    19 Broy./Diag. 0.30E+00   13.6     0.00019465     -5672.2900174456  1.71E-03
  POISSON|   iter        pres error      nabs error        E_hartree    delta E
  POISSON|      1        0.2664E-07      0.6847E-06    1992.6859073640  0.37E-03
  POISSON|      2        0.2175E-18      0.2664E-07    1992.6859072373 -0.13E-06
  POISSON| Poisson solver converged in 2 iterations.
    20 Broy./Diag. 0.30E+00   13.6     0.00018500     -5672.2933397404 -3.32E-03
  POISSON|   iter        pres error      nabs error        E_hartree    delta E
  POISSON|      1        0.1807E-07      0.6727E-06    1992.6863414786  0.43E-03
  POISSON|      2        0.9703E-18      0.1807E-07    1992.6863413926 -0.86E-07
  POISSON| Poisson solver converged in 2 iterations.
    21 Broy./Diag. 0.30E+00   13.7     0.00021556     -5672.2924454616  8.94E-04
  POISSON|   iter        pres error      nabs error        E_hartree    delta E
  POISSON|      1        0.1496E-07      0.8079E-06    1992.6866801496  0.34E-03
  POISSON|      2        0.8671E-18      0.1496E-07    1992.6866800784 -0.71E-07
  POISSON| Poisson solver converged in 2 iterations.
    22 Broy./Diag. 0.30E+00   13.5     0.00013998     -5672.2897695931  2.68E-03
  POISSON|   iter        pres error      nabs error        E_hartree    delta E
  POISSON|      1        0.4437E-08      0.6440E-06    1992.6870848558  0.40E-03
  POISSON| Poisson solver converged in 1 iteration. 
    23 Broy./Diag. 0.30E+00   12.1     0.00009517     -5672.2921186052 -2.35E-03
  POISSON|   iter        pres error      nabs error        E_hartree    delta E
  POISSON|      1        0.3042E-07      0.6250E-06    1992.6873831110  0.30E-03
  POISSON|      2        0.1101E-18      0.3042E-07    1992.6873829663 -0.14E-06
  POISSON| Poisson solver converged in 2 iterations.
    24 Broy./Diag. 0.30E+00   13.8     0.00009340     -5672.2915164108  6.02E-04
  POISSON|   iter        pres error      nabs error        E_hartree    delta E
  POISSON|      1        0.1167E-07      0.5406E-06    1992.6876184641  0.24E-03
  POISSON|      2        0.3432E-18      0.1167E-07    1992.6876184085 -0.56E-07
  POISSON| Poisson solver converged in 2 iterations.
    25 Broy./Diag. 0.30E+00   13.6     0.00009302     -5672.2916121094 -9.57E-05
  POISSON|   iter        pres error      nabs error        E_hartree    delta E
  POISSON|      1        0.7478E-07      0.4056E-06    1992.6877076735  0.89E-04
  POISSON|      2        0.1513E-17      0.7478E-07    1992.6877080292  0.36E-06
  POISSON| Poisson solver converged in 2 iterations.
    26 Broy./Diag. 0.30E+00   13.7     0.00017545     -5672.2913601660  2.52E-04
  POISSON|   iter        pres error      nabs error        E_hartree    delta E
  POISSON|      1        0.6125E-07      0.5796E-06    1992.6878755165  0.17E-03
  POISSON|      2        0.1464E-17      0.6125E-07    1992.6878752252 -0.29E-06
  POISSON| Poisson solver converged in 2 iterations.
    27 Broy./Diag. 0.30E+00   13.6     0.00017335     -5672.2912078291  1.52E-04
  POISSON|   iter        pres error      nabs error        E_hartree    delta E
  POISSON|      1        0.1457E-07      0.4019E-06    1992.6879307103  0.55E-04
  POISSON|      2        0.1996E-17      0.1457E-07    1992.6879306410 -0.69E-07
  POISSON| Poisson solver converged in 2 iterations.
    28 Broy./Diag. 0.30E+00   13.5     0.00006462     -5672.2916303640 -4.23E-04
  POISSON|   iter        pres error      nabs error        E_hartree    delta E
  POISSON|      1        0.1190E-07      0.3705E-06    1992.6879874254  0.57E-04
  POISSON|      2        0.2129E-18      0.1190E-07    1992.6879874820  0.57E-07
  POISSON| Poisson solver converged in 2 iterations.
    29 Broy./Diag. 0.30E+00   13.6     0.00005756     -5672.2921947321 -5.64E-04
  POISSON|   iter        pres error      nabs error        E_hartree    delta E
  POISSON|      1        0.3036E-08      0.4130E-06    1992.6879888522  0.14E-05
  POISSON| Poisson solver converged in 1 iteration. 
    30 Broy./Diag. 0.30E+00   12.2     0.00003897     -5672.2918510082  3.44E-04
  POISSON|   iter        pres error      nabs error        E_hartree    delta E
  POISSON|      1        0.2787E-08      0.4777E-06    1992.6879809460 -0.79E-05
  POISSON| Poisson solver converged in 1 iteration. 
    31 Broy./Diag. 0.30E+00   12.3     0.00005127     -5672.2922619713 -4.11E-04
  POISSON|   iter        pres error      nabs error        E_hartree    delta E
  POISSON|      1        0.1015E-08      0.2898E-06    1992.6879972343  0.16E-04
  POISSON| Poisson solver converged in 1 iteration. 
    32 Broy./Diag. 0.30E+00   12.3     0.00004057     -5672.2928656466 -6.04E-04
  POISSON|   iter        pres error      nabs error        E_hartree    delta E
  POISSON|      1        0.7601E-09      0.3260E-06    1992.6879766915 -0.21E-04
  POISSON| Poisson solver converged in 1 iteration. 
    33 Broy./Diag. 0.30E+00   12.2     0.00002806     -5672.2923663761  4.99E-04
  POISSON|   iter        pres error      nabs error        E_hartree    delta E
  POISSON|      1        0.3306E-08      0.2209E-06    1992.6879938452  0.17E-04
  POISSON| Poisson solver converged in 1 iteration. 
    34 Broy./Diag. 0.30E+00   12.2     0.00002462     -5672.2929315008 -5.65E-04
  POISSON|   iter        pres error      nabs error        E_hartree    delta E
  POISSON|      1        0.2699E-09      0.1744E-06    1992.6880134136  0.20E-04
  POISSON| Poisson solver converged in 1 iteration. 
    35 Broy./Diag. 0.30E+00   12.2     0.00002543     -5672.2927996291  1.32E-04
  POISSON|   iter        pres error      nabs error        E_hartree    delta E
  POISSON|      1        0.1445E-07      0.1630E-06    1992.6880403121  0.27E-04
  POISSON|      2        0.1072E-17      0.1445E-07    1992.6880402433 -0.69E-07
  POISSON| Poisson solver converged in 2 iterations.
    36 Broy./Diag. 0.30E+00   13.6     0.00003499     -5672.2929501192 -1.50E-04
  POISSON|   iter        pres error      nabs error        E_hartree    delta E
  POISSON|      1        0.1553E-07      0.1027E-06    1992.6880590165  0.19E-04
  POISSON|      2        0.1819E-18      0.1553E-07    1992.6880590904  0.74E-07
  POISSON| Poisson solver converged in 2 iterations.
    37 Broy./Diag. 0.30E+00   13.6     0.00003972     -5672.2928897914  6.03E-05
  POISSON|   iter        pres error      nabs error        E_hartree    delta E
  POISSON|      1        0.1278E-08      0.1352E-06    1992.6881065725  0.47E-04
  POISSON| Poisson solver converged in 1 iteration. 
    38 Broy./Diag. 0.30E+00   12.2     0.00001855     -5672.2929173066 -2.75E-05
  POISSON|   iter        pres error      nabs error        E_hartree    delta E
  POISSON|      1        0.4560E-08      0.9739E-07    1992.6881332604  0.27E-04
  POISSON| Poisson solver converged in 1 iteration. 
    39 Broy./Diag. 0.30E+00   12.2     0.00002127     -5672.2927306528  1.87E-04
  POISSON|   iter        pres error      nabs error        E_hartree    delta E
  POISSON|      1        0.3297E-08      0.1165E-06    1992.6881774395  0.44E-04
  POISSON| Poisson solver converged in 1 iteration. 
    40 Broy./Diag. 0.30E+00   12.3     0.00001378     -5672.2928749671 -1.44E-04
  POISSON|   iter        pres error      nabs error        E_hartree    delta E
  POISSON|      1        0.5312E-09      0.1014E-06    1992.6882148193  0.37E-04
  POISSON| Poisson solver converged in 1 iteration. 
    41 Broy./Diag. 0.30E+00   12.1     0.00001108     -5672.2927998449  7.51E-05
  POISSON|   iter        pres error      nabs error        E_hartree    delta E
  POISSON|      1        0.7213E-09      0.8409E-07    1992.6882295865  0.15E-04
  POISSON| Poisson solver converged in 1 iteration. 
    42 Broy./Diag. 0.30E+00   12.1     0.00001062     -5672.2926958888  1.04E-04
  POISSON|   iter        pres error      nabs error        E_hartree    delta E
  POISSON|      1        0.8850E-09      0.8268E-07    1992.6882530403  0.23E-04
  POISSON| Poisson solver converged in 1 iteration. 
    43 Broy./Diag. 0.30E+00   12.2     0.00000748     -5672.2928395106 -1.44E-04
  POISSON|   iter        pres error      nabs error        E_hartree    delta E
  POISSON|      1        0.9416E-09      0.9109E-07    1992.6882550874  0.20E-05
  POISSON| Poisson solver converged in 1 iteration. 
    44 Broy./Diag. 0.30E+00   12.3     0.00000656     -5672.2926993569  1.40E-04
  POISSON|   iter        pres error      nabs error        E_hartree    delta E
  POISSON|      1        0.7627E-09      0.5632E-07    1992.6882565861  0.15E-05
  POISSON| Poisson solver converged in 1 iteration. 
    45 Broy./Diag. 0.30E+00   12.2     0.00000807     -5672.2928209815 -1.22E-04
  POISSON|   iter        pres error      nabs error        E_hartree    delta E
  POISSON|      1        0.4391E-08      0.9770E-07    1992.6882553634 -0.12E-05
  POISSON| Poisson solver converged in 1 iteration. 
    46 Broy./Diag. 0.30E+00   12.2     0.00000919     -5672.2927614559  5.95E-05
  POISSON|   iter        pres error      nabs error        E_hartree    delta E
  POISSON|      1        0.5071E-08      0.2827E-07    1992.6882520879 -0.33E-05
  POISSON| Poisson solver converged in 1 iteration. 
    47 Broy./Diag. 0.30E+00   12.3     0.00001394     -5672.2928120017 -5.05E-05
  POISSON|   iter        pres error      nabs error        E_hartree    delta E
  POISSON|      1        0.2125E-08      0.8149E-07    1992.6882446664 -0.74E-05
  POISSON| Poisson solver converged in 1 iteration. 
    48 Broy./Diag. 0.30E+00   12.2     0.00000814     -5672.2927963277  1.57E-05
  POISSON|   iter        pres error      nabs error        E_hartree    delta E
  POISSON|      1        0.1822E-08      0.4658E-07    1992.6882422136 -0.25E-05
  POISSON| Poisson solver converged in 1 iteration. 
    49 Broy./Diag. 0.30E+00   12.2     0.00000596     -5672.2928732971 -7.70E-05
  POISSON|   iter        pres error      nabs error        E_hartree    delta E
  POISSON|      1        0.1229E-08      0.5091E-07    1992.6882364659 -0.57E-05
  POISSON| Poisson solver converged in 1 iteration. 
    50 Broy./Diag. 0.30E+00   12.1     0.00000728     -5672.2928126770  6.06E-05
  POISSON|   iter        pres error      nabs error        E_hartree    delta E
  POISSON|      1        0.1186E-08      0.5804E-07    1992.6882341350 -0.23E-05
  POISSON| Poisson solver converged in 1 iteration. 
    51 Broy./Diag. 0.30E+00   12.1     0.00000353     -5672.2928478878 -3.52E-05
  POISSON|   iter        pres error      nabs error        E_hartree    delta E
  POISSON|      1        0.3343E-09      0.3239E-07    1992.6882368328  0.27E-05
  POISSON| Poisson solver converged in 1 iteration. 
    52 Broy./Diag. 0.30E+00   12.1     0.00000425     -5672.2928817971 -3.39E-05
  POISSON|   iter        pres error      nabs error        E_hartree    delta E
  POISSON|      1        0.4991E-09      0.3827E-07    1992.6882397559  0.29E-05
  POISSON| Poisson solver converged in 1 iteration. 
    53 Broy./Diag. 0.30E+00   12.2     0.00000252     -5672.2928269384  5.49E-05
  POISSON|   iter        pres error      nabs error        E_hartree    delta E
  POISSON|      1        0.4560E-09      0.3714E-07    1992.6882498289  0.10E-04
  POISSON| Poisson solver converged in 1 iteration. 
    54 Broy./Diag. 0.30E+00   12.2     0.00000230     -5672.2928652094 -3.83E-05
  POISSON|   iter        pres error      nabs error        E_hartree    delta E
  POISSON|      1        0.2990E-09      0.2538E-07    1992.6882558954  0.61E-05
  POISSON| Poisson solver converged in 1 iteration. 
    55 Broy./Diag. 0.30E+00   12.2     0.00000283     -5672.2928183094  4.69E-05
  POISSON|   iter        pres error      nabs error        E_hartree    delta E
  POISSON|      1        0.2643E-09      0.2582E-07    1992.6882623843  0.65E-05
  POISSON| Poisson solver converged in 1 iteration. 
    56 Broy./Diag. 0.30E+00   12.2     0.00000211     -5672.2928467339 -2.84E-05
  POISSON|   iter        pres error      nabs error        E_hartree    delta E
  POISSON|      1        0.1395E-08      0.7089E-08    1992.6882653685  0.30E-05
  POISSON| Poisson solver converged in 1 iteration. 
    57 Broy./Diag. 0.30E+00   12.1     0.00000333     -5672.2928337813  1.30E-05
  POISSON|   iter        pres error      nabs error        E_hartree    delta E
  POISSON|      1        0.3551E-09      0.1764E-07    1992.6882701314  0.48E-05
  POISSON| Poisson solver converged in 1 iteration. 
    58 Broy./Diag. 0.30E+00   12.2     0.00000245     -5672.2928347078 -9.26E-07
  POISSON|   iter        pres error      nabs error        E_hartree    delta E
  POISSON|      1        0.7712E-10      0.1470E-07    1992.6882725508  0.24E-05
  POISSON| Poisson solver converged in 1 iteration. 
    59 Broy./Diag. 0.30E+00   12.2     0.00000146     -5672.2928251198  9.59E-06
  POISSON|   iter        pres error      nabs error        E_hartree    delta E
  POISSON|      1        0.7694E-09      0.8065E-08    1992.6882749968  0.24E-05
  POISSON| Poisson solver converged in 1 iteration. 
    60 Broy./Diag. 0.30E+00   12.2     0.00000236     -5672.2928467382 -2.16E-05
  POISSON|   iter        pres error      nabs error        E_hartree    delta E
  POISSON|      1        0.9601E-10      0.1131E-07    1992.6882765523  0.16E-05
  POISSON| Poisson solver converged in 1 iteration. 
    61 Broy./Diag. 0.30E+00   12.1     0.00000124     -5672.2928385470  8.19E-06
  POISSON|   iter        pres error      nabs error        E_hartree    delta E
  POISSON|      1        0.2433E-09      0.1066E-07    1992.6882768061  0.25E-06
  POISSON| Poisson solver converged in 1 iteration. 
    62 Broy./Diag. 0.30E+00   12.1     0.00000095     -5672.2928374872  1.06E-06

  *** SCF run converged in    62 steps ***


  Electronic density on regular grids:      -2159.9999999992        0.0000000008
  Core density on regular grids:             2159.9999999995       -0.0000000005
  Total charge density on r-space grids:        0.0000000003
  Total charge density g-space grids:           0.0000000003

  Overlap energy of the core charge distribution:               0.00003262970181
  Self energy of the core charge distribution:              -9891.63555570741482
  Core Hamiltonian energy:                                   3202.84978937280994
  Hartree energy:                                            1992.68827680611753
  Electric enthalpy:                                         1992.68127563050552
  Exchange-correlation energy:                               -971.43834112272611
  Dispersion energy:                                           -4.71629778424006
  Electronic entropic energy:                                  -0.03374044094939
  Fermi energy:                                                -0.22657328111544

  Total energy:                                             -5672.29283748720354

 The electron density is written in cube file format to the file:

 cp2k-ELECTRON_DENSITY-1_0.cube

 !-----------------------------------------------------------------------------!
                     Mulliken Population Analysis

 #  Atom  Element  Kind  Atomic population                           Net charge
       1     Pt       1         10.054135                             -0.054135
       2     Pt       1         10.046624                             -0.046624
       3     Pt       1         10.054183                             -0.054183
       4     Pt       1         10.045650                             -0.045650
       5     Pt       1         10.051145                             -0.051145
       6     Pt       1         10.056027                             -0.056027
       7     Pt       1         10.066005                             -0.066005
       8     Pt       1         10.063428                             -0.063428
       9     Pt       1         10.061315                             -0.061315
      10     Pt       1         10.050458                             -0.050458
      11     Pt       1         10.067059                             -0.067059
      12     Pt       1         10.055346                             -0.055346
      13     Pt       1         10.061441                             -0.061441
      14     Pt       1         10.048887                             -0.048887
      15     Pt       1         10.050673                             -0.050673
      16     Pt       1         10.052529                             -0.052529
      17     Pt       1         10.032529                             -0.032529
      18     Pt       1         10.020339                             -0.020339
      19     Pt       1         10.046060                             -0.046060
      20     Pt       1         10.039977                             -0.039977
      21     Pt       1         10.047646                             -0.047646
[...]
    191      1      Pt         -0.01211535     0.00338223    -0.01332212
    192      1      Pt          0.00757464    -0.00233206     0.00527769
    193      1      Pt         -0.00029647     0.00963828     0.00125191
    194      1      Pt          0.00846493    -0.00866227     0.00747762
    195      1      Pt         -0.00941646    -0.01159297    -0.00906837
    196      1      Pt          0.01177444     0.01058858     0.02001257
    197      1      Pt         -0.00508335    -0.00005027    -0.00073445
    198      1      Pt         -0.01313903    -0.00999709     0.00510746
    199      1      Pt          0.00889587    -0.00396248    -0.00624208
    200      1      Pt          0.00511312    -0.00354579    -0.00634816
    201      1      Pt          0.00747391     0.00277332    -0.01166154
    202      1      Pt         -0.00713378    -0.01172606     0.00928791
    203      1      Pt          0.00685981    -0.00995702     0.00106884
    204      1      Pt          0.00069922     0.00812700     0.01497868
    205      1      Pt          0.00339691    -0.00064330     0.00419918
    206      1      Pt          0.00456837     0.00076953     0.00303244
    207      1      Pt          0.00494964     0.00921581     0.00187369
    208      1      Pt         -0.00101110     0.01232555     0.02749910
    209      1      Pt          0.00621530    -0.00093711    -0.00101515
    210      1      Pt         -0.01547139     0.00580928    -0.00060032
    211      1      Pt          0.00641672     0.00581826    -0.00538999
    212      1      Pt          0.00432605    -0.00423384     0.01065861
    213      1      Pt          0.01217275    -0.00600519    -0.00620294
    214      1      Pt         -0.00197940     0.01436547    -0.00926064
    215      1      Pt         -0.00291024     0.00037413     0.00055823
    216      1      Pt         -0.00931543     0.00522214     0.00424986
 SUM OF ATOMIC FORCES           0.00001442    -0.00001397     0.00010194     0.00010390

 -------------------------------------------------------------------------------
 -                                                                             -
 -                                DBCSR STATISTICS                             -
 -                                                                             -
 -------------------------------------------------------------------------------
 COUNTER                                    TOTAL       BLAS       SMM       ACC
 flops    20 x    12 x    20            447897600       0.0%    100.0%      0.0%
 flops    20 x    32 x    20          58525286400       0.0%    100.0%      0.0%
 flops    20 x    20 x   204         244784332800       0.0%    100.0%      0.0%
 flops    20 x    20 x   224         268782796800       0.0%    100.0%      0.0%
 flops    20 x    20 x   192        1382311526400       0.0%    100.0%      0.0%
 flops inhomo. stacks                           0       0.0%      0.0%      0.0%
 flops total                         1.954852E+12       0.0%    100.0%      0.0%
 flops max/rank                     62.737357E+09       0.0%    100.0%      0.0%
 matmuls inhomo. stacks                         0       0.0%      0.0%      0.0%
 matmuls total                           14332032       0.0%    100.0%      0.0%
 number of processed stacks                 18816       0.0%    100.0%      0.0%
 average stack size                                     0.0     761.7       0.0
 marketing flops                     2.782451E+12
 -------------------------------------------------------------------------------
 # multiplications                             65
 max memory usage/rank               1.812468E+09
 # max total images/rank                        2
 # max 3D layers                                1
 # MPI messages exchanged                   27040
 MPI messages size (bytes):
  total size                        36.155982E+09
  min size                         829.440000E+03
  max size                           4.665600E+06
  average size                       1.337130E+06
 MPI breakdown and total messages size (bytes):
             size <=      128                   0                        0
       128 < size <=     8192                   0                        0
      8192 < size <=    32768                   0                        0
     32768 < size <=   131072                   0                        0
    131072 < size <=  4194304               26816              35110886400
   4194304 < size <= 16777216                 224               1045094400
  16777216 < size                               0                        0
 -------------------------------------------------------------------------------

 *** WARNING in dbcsr_mm.F:290 :: Using a non-square number of MPI ranks ***
 *** might lead to poor performance. Used ranks: 32 Suggested: 36 64     ***

 -------------------------------------------------------------------------------
 -                                                                             -
 -                      DBCSR MESSAGE PASSING PERFORMANCE                      -
 -                                                                             -
 -------------------------------------------------------------------------------
 ROUTINE             CALLS      AVE VOLUME [Bytes]
 MP_Bcast                6                     12.
 MP_Allreduce          478                      9.
 MP_Alltoall          1801                1275169.
 MP_ISend             2080                 578664.
 MP_IRecv             2080                 561679.
 -------------------------------------------------------------------------------

 -------------------------------------------------------------------------------
 -                                                                             -
 -                                DBM STATISTICS                               -
 -                                                                             -
 -------------------------------------------------------------------------------
    M  x    N  x    K                                          COUNT     PERCENT
 -------------------------------------------------------------------------------

 -------------------------------------------------------------------------------
 -                                                                             -
 -                                GRID STATISTICS                              -
 -                                                                             -
 -------------------------------------------------------------------------------
 LP    KERNEL             BACKEND                              COUNT     PERCENT
 4     collocate general  REF                               21519603      49.97%
 4     integrate general  REF                               21178022      49.17%
 5     integrate general  REF                                 341581       0.79%
 0     collocate general  REF                                  13824       0.03%
 0     integrate general  REF                                   6912       0.02%
 1     integrate general  REF                                   6912       0.02%
 -------------------------------------------------------------------------------

 MEMORY| Estimated peak process memory [MiB]                                2151

 -------------------------------------------------------------------------------
 ----                             MULTIGRID INFO                            ----
 -------------------------------------------------------------------------------
 count for grid        1:          17608          cutoff [a.u.]          200.00
 count for grid        2:         178030          cutoff [a.u.]           66.67
 count for grid        3:         110054          cutoff [a.u.]           22.22
 count for grid        4:         155569          cutoff [a.u.]            7.41
 total gridlevel count  :         461261

 -------------------------------------------------------------------------------
 -                                                                             -
 -                         MESSAGE PASSING PERFORMANCE                         -
 -                                                                             -
 -------------------------------------------------------------------------------

 ROUTINE             CALLS      AVE VOLUME [Bytes]
 MP_Group                4
 MP_Bcast             1768                 164714.
 MP_Allreduce         1612                   1568.
 MP_Sync                68
 MP_Alltoall          3101               49417609.
 MP_SendRecv           124                  14994.
 MP_ISendRecv         7812                 214800.
 MP_Wait             18942
 MP_comm_split           1
 MP_ISend             9980                 715119.
 MP_IRecv             9980                 715119.
 MP_Recv               192                1105920.
 MP_Write_All            3                4213860.
 -------------------------------------------------------------------------------


 -------------------------------------------------------------------------------
 -                                                                             -
 -                           R E F E R E N C E S                               -
 -                                                                             -
 -------------------------------------------------------------------------------
 
 CP2K version 2022.1, the CP2K developers group (2022).
 CP2K is freely available from https://www.cp2k.org/ .

 Kuehne,Thomas D.; Iannuzzi,Marcella; Del Ben,Mauro;
 Rybkin,Vladimir V.; Seewald,Patrick; Stein,Frederick; Laino,Teodoro;
 Khaliullin,Rustam Z.; Schuett,Ole; Schiffmann,Florian; Golze,Dorothea;
 Wilhelm,Jan; Chulkov,Sergey; Bani-Hashemian,Mohammad Hossein;
 Weber,Valery; Borstnik,Urban; Taillefumier,Mathieu;
 Jakobovits,Alice Shoshana; Lazzaro,Alfio; Pabst,Hans; Mueller,Tiziano;
 Schade,Robert; Guidon,Manuel; Andermatt,Samuel; Holmberg,Nico;
 Schenter,Gregory K.; Hehn,Anna; Bussy,Augustin; Belleflamme,Fabian;
 Tabacchi,Gloria; Gloess,Andreas; Lass,Michael; Bethune,Iain;
 Mundy,Christopher J.; Plessl,Christian; Watkins,Matt;
 VandeVondele,Joost; Krack,Matthias; Hutter,Juerg. 
 The Journal of Chemical Physics, 152 (19), (2020). 
 CP2K: An electronic structure and molecular dynamics software package -
 Quickstep: Efficient and accurate electronic structure calculations.
 https://doi.org/10.1063/5.0007045

 Goerigk, Lars; Hansen, Andreas; Bauer, Christoph; Ehrlich, Stephan;
 Najibi, Asim; Grimme, Stefan. , 19 (48), (2017). 
 A look at the density functional theory zoo with the advanced GMTKN55 database
 for general main group thermochemistry, kinetics and noncovalent interactions.
 https://doi.org/10.1039/C7CP04913G

 Bani-Hashemian, MH; Bruck, S; Luisier, M; VandeVondele, J. 
 JOURNAL OF CHEMICAL PHYSICS, 144 (4), 044113 (2016). 
 A generalized Poisson solver for first-principles device simulations.
 https://doi.org/10.1063/1.4940796

 Schuett, Ole; Messmer, Peter; Hutter, Juerg; VandeVondele, Joost. 
 Electronic Structure Calculations on Graphics Processing Units, John
 Wiley & Sons, Ltd, 173-190 (2016). 
 GPU-Accelerated Sparse Matrix-Matrix Multiplication for
 Linear Scaling Density Functional Theory.
 https://doi.org/10.1002/9781118670712.ch8

 Heinecke, A; Henry, G; Hutchinson, M; Pabst, H. 
 Proceedings of Intl. Supercomputing Conference, 981-991 (2016). 
 LIBXSMM: Accelerating Small Matrix Multiplications
 by Runtime Code Generation.
 https://doi.org/10.1109/SC.2016.83

 Borstnik, U; VandeVondele, J; Weber, V; Hutter, J. 
 PARALLEL COMPUTING, 40 (5-6), 47-58 (2014). 
 Sparse matrix multiplication: The distributed block-compressed sparse
 row library.
 https://doi.org/10.1016/j.parco.2014.03.012

 Hutter, J; Iannuzzi, M; Schiffmann, F; VandeVondele, J. 
 WIREs Comput Mol Sci., 4 (1), 15-25 (2014). 
 CP2K: atomistic simulations of condensed matter systems.
 https://doi.org/10.1002/wcms.1159

 Marek, A; Blum, V; Johanni, R; Havu, V; Lang, B; Auckenthaler, T;
 Heinecke, A; Bungartz, H; Lederer, H. 
 Journal of Physics: Condensed Matter, 26 (21), (2014). 
 The ELPA library: scalable parallel eigenvalue solutions for
 electronic structure
 theory and computational science.
 https://doi.org/10.1088/0953-8984/26/21/213201

 Grimme, S; Ehrlich, S; Goerigk, L. 
 JOURNAL OF COMPUTATIONAL CHEMISTRY, 32, 1456 (2011). 
 Effect of the damping function in dispersion corrected density functional theory.
 https://doi.org/10.1002/jcc.21759

 Grimme, S; Antony, J; Ehrlich, S; Krieg, H. 
 JOURNAL OF CHEMICAL PHYSICS, 132 (15), 154104 (2010). 
 A consistent and accurate ab initio parametrization of density
 functional dispersion correction (DFT-D) for the 94 elements H-Pu.
 https://doi.org/10.1063/1.3382344

 VandeVondele, J; Hutter, J. 
 JOURNAL OF CHEMICAL PHYSICS, 127 (11), 114105 (2007). 
 Gaussian basis sets for accurate calculations on molecular systems in
 gas and condensed phases.
 https://doi.org/10.1063/1.2770708

 Krack, M. 
 THEORETICAL CHEMISTRY ACCOUNTS, 114 (1-3), 145-152 (2005). 
 Pseudopotentials for H to Kr optimized for gradient-corrected
 exchange-correlation functionals.
 https://doi.org/10.1007/s00214-005-0655-y

 VandeVondele, J; Krack, M; Mohamed, F; Parrinello, M; Chassaing, T;
 Hutter, J. COMPUTER PHYSICS COMMUNICATIONS, 167 (2), 103-128 (2005). 
 QUICKSTEP: Fast and accurate density functional calculations using a
 mixed Gaussian and plane waves approach.
 https://doi.org/10.1016/j.cpc.2004.12.014

 Frigo, M; Johnson, SG. 
 PROCEEDINGS OF THE IEEE, 93 (2), 216-231 (2005). 
 The design and implementation of FFTW3.
 https://doi.org/10.1109/JPROC.2004.840301

 Hartwigsen, C; Goedecker, S; Hutter, J. 
 PHYSICAL REVIEW B, 58 (7), 3641-3662 (1998). 
 Relativistic separable dual-space Gaussian pseudopotentials from H to Rn.
 https://doi.org/10.1103/PhysRevB.58.3641

 Lippert, G; Hutter, J; Parrinello, M. 
 MOLECULAR PHYSICS, 92 (3), 477-487 (1997). 
 A hybrid Gaussian and plane wave density functional scheme.
 https://doi.org/10.1080/002689797170220

 Perdew, JP; Burke, K; Ernzerhof, M. 
 PHYSICAL REVIEW LETTERS, 77 (18), 3865-3868 (1996). 
 Generalized gradient approximation made simple.
 https://doi.org/10.1103/PhysRevLett.77.3865

 Goedecker, S; Teter, M; Hutter, J. 
 PHYSICAL REVIEW B, 54 (3), 1703-1710 (1996). 
 Separable dual-space Gaussian pseudopotentials.
 https://doi.org/10.1103/PhysRevB.54.1703


 -------------------------------------------------------------------------------
 -                                                                             -
 -                                T I M I N G                                  -
 -                                                                             -
 -------------------------------------------------------------------------------
 SUBROUTINE                       CALLS  ASD         SELF TIME        TOTAL TIME
                                MAXIMUM       AVERAGE  MAXIMUM  AVERAGE  MAXIMUM
 CP2K                                 1  1.0    0.020    0.045  819.811  819.811
 qs_forces                            1  2.0    0.001    0.001  819.394  819.395
 qs_energies                          1  3.0    0.000    0.000  805.140  805.144
 scf_env_do_scf                       1  4.0    0.000    0.001  796.882  796.973
 scf_env_do_scf_inner_loop           62  5.0    0.003    0.007  796.879  796.971
 rebuild_ks_matrix                   63  7.0    0.000    0.000  509.986  510.017
 qs_ks_build_kohn_sham_matrix        63  8.0    0.009    0.010  509.986  510.017
 qs_ks_update_qs_env                 62  6.0    0.000    0.000  500.202  500.234
 pw_transfer                       2960 12.1    0.228    0.331  286.371  288.936
 fft_wrap_pw1pw2                   2960 13.1    0.032    0.040  286.142  288.628
 fft_wrap_pw1pw2_200               2582 14.4   24.276   27.431  283.299  285.704
 pw_poisson_solve                    63  9.0    0.017    0.025  245.886  245.953
 implicit_poisson_solver_mixed_      63 10.0    6.610    7.197  231.402  231.527
 fft3d_ps                          2960 15.1  122.058  131.167  213.197  216.866
 qs_rho_update_rho_low               63  6.0    0.000    0.001  191.076  191.093
 calculate_rho_elec                  63  7.0    0.345    0.372  191.075  191.093
 sum_up_and_integrate                63  9.0    0.981    1.072  181.019  181.073
 integrate_v_rspace                  63 10.0    0.002    0.002  180.037  180.150
 grid_collocate_task_list            63  8.0   84.683  165.130   84.683  165.130
 derive_fft                         314 12.1    0.023    0.028  162.779  163.933
 grid_integrate_task_list            63 11.0   78.598  154.993   78.598  154.993
 apply_P_operator                   251 11.2    2.350    2.702  132.646  133.475
 rs_pw_transfer                     508 10.5    0.006    0.007  105.498  132.172
 density_rs2pw                       63  8.0    0.004    0.005  104.652  131.416
 mp_waitany                        9980 12.4   87.952  114.546   87.952  114.546
 rs_pw_transfer_RS2PW_200            65 10.0    3.625    4.159   86.448  113.130
 mp_alltoall_d11v                   898 10.3   78.299  102.938   78.299  102.938
 rs_gather_matrices                  63 11.0    0.241    0.273   77.153  101.852
 qs_scf_new_mos                      62  6.0    0.006    0.009   78.403   78.540
 qs_vxc_create                       63  9.0    0.002    0.003   74.718   75.557
 xc_vxc_pw_create                    63 10.0    1.697    2.140   74.716   75.556
 eigensolver                         62  7.0    0.005    0.008   70.736   70.805
 x_to_yz                           1856 16.3   40.720   46.694   62.739   65.851
 mp_alltoall_z22v                  2960 17.1   38.907   60.964   38.907   60.964
 xc_pw_derive                       378 12.0    0.007    0.008   50.468   53.241
 apply_poisson_operator_fft          63 11.0    0.001    0.001   47.875   48.129
 cp_fm_diag_elpa                     63  8.0    0.001    0.001   45.011   45.143
 cp_fm_diag_elpa_base                63  9.0   44.064   44.182   44.902   44.969
 yz_to_x                           1104 15.8   11.442   12.235   28.330   40.618
 xc_rho_set_and_dset_create          63 11.0    0.725    0.903   39.012   39.825
 apply_inv_laplace_operator_fft     159 11.6    1.308    1.441   35.278   36.333
 pw_scatter_p                      1856 15.3   31.578   35.530   31.578   35.530
 xc_pw_divergence                    63 11.0    0.004    0.004   33.029   34.810
 ps_implicit_compute_veps            63 11.0    0.760    0.893   33.248   33.916
 gspace_mixing                       61  6.0    0.334    0.357   29.760   29.761
 pw_derive                         1320 13.1   25.168   26.769   25.168   26.769
 cp_fm_triangular_multiply          186  8.0   24.982   25.255   24.982   25.255
 ps_implicit_compute_error_fft       94 10.9    1.745    1.870   23.297   24.885
 potential_pw2rs                     63 11.0    0.050    0.058   24.273   24.375
 broyden_mixing                      61  7.0   21.641   21.917   22.333   22.434
 pw_gather_p                       1104 14.8   16.777   17.513   16.777   17.513
 -------------------------------------------------------------------------------

 The number of warnings for this run is : 1
 
 -------------------------------------------------------------------------------
  **** **** ******  **  PROGRAM ENDED AT                 2023-12-02 21:39:11.619
 ***** ** ***  *** **   PROGRAM RAN ON                                     cu042
 **    ****   ******    PROGRAM RAN BY                                     jxzhu
 ***** **    ** ** **   PROGRAM PROCESS ID                                 16309
  **** **  *******  **  PROGRAM STOPPED IN /public/home/jxzhu/tmp_calc/04c0855f9
                                           8753fac23fde4df51ba20f3741a9e9a/calc/
                                           task.002.000002
