 DBCSR| CPU Multiplication driver                                           XSMM
 DBCSR| Multrec recursion limit                                              512
 DBCSR| Multiplication stack size                                           1000
 DBCSR| Maximum elements for images                                    UNLIMITED
 DBCSR| Multiplicative factor virtual images                                   1
 DBCSR| Use multiplication densification                                       T
 DBCSR| Multiplication size stacks                                             3
 DBCSR| Use memory pool for CPU allocation                                     F
 DBCSR| Number of 3D layers                                               SINGLE
 DBCSR| Use MPI memory allocation                                              F
 DBCSR| Use RMA algorithm                                                      F
 DBCSR| Use Communication thread                                               T
 DBCSR| Communication thread load                                             87
 DBCSR| MPI: My node id                                                        0
 DBCSR| MPI: Number of nodes                                                  32
 DBCSR| OMP: Current number of threads                                         1
 DBCSR| OMP: Max number of threads                                             1
 DBCSR| Split modifier for TAS multiplication algorithm                  1.0E+00


  **** **** ******  **  PROGRAM STARTED AT               2023-12-02 20:42:51.587
 ***** ** ***  *** **   PROGRAM STARTED ON                                 cu042
 **    ****   ******    PROGRAM STARTED BY                                 jxzhu
 ***** **    ** ** **   PROGRAM PROCESS ID                                  8215
  **** **  *******  **  PROGRAM STARTED IN /public/home/jxzhu/tmp_calc/04c0855f9
                                           8753fac23fde4df51ba20f3741a9e9a/calc/
                                           task.000.000004

 CP2K| version string:                                       CP2K version 2022.1
 CP2K| source code revision number:                                  git:2caeb6f
 CP2K| cp2kflags: omp libint fftw3 libxc elpa parallel mpi3 scalapack cosma xsmm
 CP2K|             plumed2 spglib mkl sirius libvori libbqb
 CP2K| is freely available from                            https://www.cp2k.org/
 CP2K| Program compiled at                           Mon Jul 3 17:37:06 CST 2023
 CP2K| Program compiled on                                                 mu003
 CP2K| Program compiled for                                                local
 CP2K| Data directory path                             /public/home/jxzhu/basis/
 CP2K| Input file name                                                 input.inp
 
 GLOBAL| Force Environment number                                              1
 GLOBAL| Basis set file name                                        BASIS_MOLOPT
 GLOBAL| Potential file name                                      GTH_POTENTIALS
 GLOBAL| MM Potential file name                                     MM_POTENTIAL
 GLOBAL| Coordinate file name                                          coord.xyz
 GLOBAL| Method name                                                        CP2K
 GLOBAL| Project name                                                       cp2k
 GLOBAL| Run type                                                   ENERGY_FORCE
 GLOBAL| FFT library                                                       FFTW3
 GLOBAL| Diagonalization library                                            ELPA
 GLOBAL| Minimum number of eigenvectors for ELPA usage                        16
 GLOBAL| Orthonormality check for eigenvectors                          DISABLED
 GLOBAL| Matrix multiplication library                                     COSMA
 GLOBAL| All-to-all communication in single precision                          F
 GLOBAL| FFTs using library dependent lengths                                  T
 GLOBAL| Grid backend                                                       AUTO
 GLOBAL| Global print level                                               MEDIUM
 GLOBAL| MPI I/O enabled                                                       T
 GLOBAL| Total number of message passing processes                            32
 GLOBAL| Number of threads for this process                                    1
 GLOBAL| This output is from process                                           0
 GLOBAL| Stack size for threads created by OpenMP (OMP_STACKSIZE)        default
 GLOBAL| CPU model name                 Intel(R) Xeon(R) Gold 6338 CPU @ 2.00GHz
 GLOBAL| CPUID                                                              1003

 MEMORY| system memory details [Kb]
 MEMORY|                        rank 0           min           max       average
 MEMORY| MemTotal            263619172     263619172     263619172     263619172
 MEMORY| MemFree             213178796     213178796     213242656     213239904
 MEMORY| Buffers                  3320          3320          3320          3320
 MEMORY| Cached                3165144       3165144       3165144       3165144
 MEMORY| Slab                  1622884       1622884       1622884       1622884
 MEMORY| SReclaimable           224848        224848        224848        224848
 MEMORY| MemLikelyFree       216572108     216572108     216635968     216633216


 *** Fundamental physical constants (SI units) ***

 *** Literature: B. J. Mohr and B. N. Taylor,
 ***             CODATA recommended values of the fundamental physical
 ***             constants: 2006, Web Version 5.1
 ***             http://physics.nist.gov/constants

 Speed of light in vacuum [m/s]                             2.99792458000000E+08
 Magnetic constant or permeability of vacuum [N/A**2]       1.25663706143592E-06
 Electric constant or permittivity of vacuum [F/m]          8.85418781762039E-12
 Planck constant (h) [J*s]                                  6.62606896000000E-34
 Planck constant (h-bar) [J*s]                              1.05457162825177E-34
 Elementary charge [C]                                      1.60217648700000E-19
 Electron mass [kg]                                         9.10938215000000E-31
 Electron g factor [ ]                                     -2.00231930436220E+00
 Proton mass [kg]                                           1.67262163700000E-27
 Fine-structure constant                                    7.29735253760000E-03
 Rydberg constant [1/m]                                     1.09737315685270E+07
 Avogadro constant [1/mol]                                  6.02214179000000E+23
 Boltzmann constant [J/K]                                   1.38065040000000E-23
 Atomic mass unit [kg]                                      1.66053878200000E-27
 Bohr radius [m]                                            5.29177208590000E-11

 *** Conversion factors ***

 [u] -> [a.u.]                                              1.82288848426455E+03
 [Angstrom] -> [Bohr] = [a.u.]                              1.88972613288564E+00
 [a.u.] = [Bohr] -> [Angstrom]                              5.29177208590000E-01
 [a.u.] -> [s]                                              2.41888432650478E-17
 [a.u.] -> [fs]                                             2.41888432650478E-02
 [a.u.] -> [J]                                              4.35974393937059E-18
 [a.u.] -> [N]                                              8.23872205491840E-08
 [a.u.] -> [K]                                              3.15774647902944E+05
 [a.u.] -> [kJ/mol]                                         2.62549961709828E+03
 [a.u.] -> [kcal/mol]                                       6.27509468713739E+02
 [a.u.] -> [Pa]                                             2.94210107994716E+13
 [a.u.] -> [bar]                                            2.94210107994716E+08
 [a.u.] -> [atm]                                            2.90362800883016E+08
 [a.u.] -> [eV]                                             2.72113838565563E+01
 [a.u.] -> [Hz]                                             6.57968392072181E+15
 [a.u.] -> [1/cm] (wave numbers)                            2.19474631370540E+05
 [a.u./Bohr**2] -> [1/cm]                                   5.14048714338585E+03
 

 CELL_TOP| Volume [angstrom^3]:                                     12686.086737
 CELL_TOP| Vector a [angstrom    16.869     0.000     0.000   |a| =    16.869000
 CELL_TOP| Vector b [angstrom    -8.434    14.609     0.000   |b| =    16.868929
 CELL_TOP| Vector c [angstrom     0.000     0.000    51.478   |c| =    51.477900
 CELL_TOP| Angle (b,c), alpha [degree]:                                90.000000
 CELL_TOP| Angle (a,c), beta  [degree]:                                90.000000
 CELL_TOP| Angle (a,b), gamma [degree]:                               120.000140
 CELL_TOP| Numerically orthorhombic:                                          NO
 
 GENERATE|  Preliminary Number of Bonds generated:                             0
 GENERATE|  Achieved consistency in connectivity generation.

 CELL| Volume [angstrom^3]:                                         12686.086737
 CELL| Vector a [angstrom]:      16.869     0.000     0.000   |a| =    16.869000
 CELL| Vector b [angstrom]:      -8.434    14.609     0.000   |b| =    16.868929
 CELL| Vector c [angstrom]:       0.000     0.000    51.478   |c| =    51.477900
 CELL| Angle (b,c), alpha [degree]:                                    90.000000
 CELL| Angle (a,c), beta  [degree]:                                    90.000000
 CELL| Angle (a,b), gamma [degree]:                                   120.000140
 CELL| Numerically orthorhombic:                                              NO

 CELL_REF| Volume [angstrom^3]:                                     12686.086737
 CELL_REF| Vector a [angstrom    16.869     0.000     0.000   |a| =    16.869000
 CELL_REF| Vector b [angstrom    -8.434    14.609     0.000   |b| =    16.868929
 CELL_REF| Vector c [angstrom     0.000     0.000    51.478   |c| =    51.477900
 CELL_REF| Angle (b,c), alpha [degree]:                                90.000000
 CELL_REF| Angle (a,c), beta  [degree]:                                90.000000
 CELL_REF| Angle (a,b), gamma [degree]:                               120.000140
 CELL_REF| Numerically orthorhombic:                                          NO

 *******************************************************************************
 *******************************************************************************
 **                                                                           **
 **     #####                         ##              ##                      **
 **    ##   ##            ##          ##              ##                      **
 **   ##     ##                       ##            ######                    **
 **   ##     ##  ##   ##  ##   #####  ##  ##   ####   ##    #####    #####    **
 **   ##     ##  ##   ##  ##  ##      ## ##   ##      ##   ##   ##  ##   ##   **
 **   ##  ## ##  ##   ##  ##  ##      ####     ###    ##   ######   ######    **
 **    ##  ###   ##   ##  ##  ##      ## ##      ##   ##   ##       ##        **
 **     #######   #####   ##   #####  ##  ##  ####    ##    #####   ##        **
 **           ##                                                    ##        **
 **                                                                           **
 **                                                ... make the atoms dance   **
 **                                                                           **
 **            Copyright (C) by CP2K developers group (2000-2022)             **
 **                      J. Chem. Phys. 152, 194103 (2020)                    **
 **                                                                           **
 *******************************************************************************

 DFT| Spin restricted Kohn-Sham (RKS) calculation                            RKS
 DFT| Multiplicity                                                             1
 DFT| Number of spin states                                                    1
 DFT| Charge                                                                   0
 DFT| Self-interaction correction (SIC)                                       NO
 DFT| Cutoffs: density                                              1.000000E-10
 DFT|          gradient                                             1.000000E-10
 DFT|          tau                                                  1.000000E-10
 DFT|          cutoff_smoothing_range                               0.000000E+00
 DFT| XC density smoothing                                                  NONE
 DFT| XC derivatives                                                          PW

 FUNCTIONAL| PBE:
 FUNCTIONAL| J.P.Perdew, K.Burke, M.Ernzerhof, Phys. Rev. Letter, vol. 77, n 18,
 FUNCTIONAL|  pp. 3865-3868, (1996){spin unpolarized}                           

 vdW POTENTIAL|                                                   Pair Potential
 vdW POTENTIAL|          DFT-D3 (Version 3.1)
 vdW POTENTIAL|          Potential Form: S. Grimme et al, JCP 132: 154104 (2010)
 vdW POTENTIAL|          Zero Damping
 vdW POTENTIAL|          Cutoff Radius [Bohr]:                             20.00
 vdW POTENTIAL|          s6 Scaling Factor:                               1.0000
 vdW POTENTIAL|          sr6 Scaling Factor:                              1.2170
 vdW POTENTIAL|          s8 Scaling Factor:                               0.7220
 vdW POTENTIAL|          Cutoff for CN calculation:                   0.1000E-05

 QS| Method:                                                                 GPW
 QS| Density plane wave grid type                        NON-SPHERICAL FULLSPACE
 QS| Number of grid levels:                                                    4
 QS| Density cutoff [a.u.]:                                                200.0
 QS| Multi grid cutoff [a.u.]: 1) grid level                               200.0
 QS|                           2) grid level                                66.7
 QS|                           3) grid level                                22.2
 QS|                           4) grid level                                 7.4
 QS| Grid level progression factor:                                          3.0
 QS| Relative density cutoff [a.u.]:                                        20.0
 QS| Interaction thresholds: eps_pgf_orb:                                3.2E-07
 QS|                         eps_filter_matrix:                          0.0E+00
 QS|                         eps_core_charge:                            1.0E-15
 QS|                         eps_rho_gspace:                             1.0E-13
 QS|                         eps_rho_rspace:                             1.0E-13
 QS|                         eps_gvg_rspace:                             3.2E-07
 QS|                         eps_ppl:                                    1.0E-02
 QS|                         eps_ppnl:                                   3.2E-09


 ATOMIC KIND INFORMATION

  1. Atomic kind: Pt                                    Number of atoms:     216

     Orbital Basis Set                      DZVP-A5-Q10-323-MOL-T1-DERIVED_SET-1

       Number of orbital shell sets:                                           1
       Number of orbital shells:                                               6
       Number of primitive Cartesian functions:                                5
       Number of Cartesian basis functions:                                   23
       Number of spherical basis functions:                                   20
       Norm type:                                                              2

       Normalised Cartesian orbitals:

                        Set   Shell   Orbital            Exponent    Coefficient

                          1       1    2s                2.521825       0.177473
                                                         1.453920      -0.063399
                                                         0.614053      -0.407089
                                                         0.232656       0.262254
                                                         0.074788       0.047371

                          1       2    3s                2.521825      -0.049056
                                                         1.453920       0.044904
                                                         0.614053      -0.009756
                                                         0.232656      -0.144709
                                                         0.074788       0.144085

                          1       3    3px               2.521825      -0.317572
                                                         1.453920       0.534826
                                                         0.614053      -0.489458
                                                         0.232656       0.245631
                                                         0.074788       0.018221
                          1       3    3py               2.521825      -0.317572
                                                         1.453920       0.534826
                                                         0.614053      -0.489458
                                                         0.232656       0.245631
                                                         0.074788       0.018221
                          1       3    3pz               2.521825      -0.317572
                                                         1.453920       0.534826
                                                         0.614053      -0.489458
                                                         0.232656       0.245631
                                                         0.074788       0.018221

                          1       4    4dx2              2.521825       3.008522
                                                         1.453920      -1.224251
                                                         0.614053       0.225691
                                                         0.232656       0.125144
                                                         0.074788      -0.015348
                          1       4    4dxy              2.521825       5.210912
                                                         1.453920      -2.120465
                                                         0.614053       0.390909
                                                         0.232656       0.216756
                                                         0.074788      -0.026584
                          1       4    4dxz              2.521825       5.210912
                                                         1.453920      -2.120465
                                                         0.614053       0.390909
                                                         0.232656       0.216756
                                                         0.074788      -0.026584
                          1       4    4dy2              2.521825       3.008522
                                                         1.453920      -1.224251
                                                         0.614053       0.225691
                                                         0.232656       0.125144
                                                         0.074788      -0.015348
                          1       4    4dyz              2.521825       5.210912
                                                         1.453920      -2.120465
                                                         0.614053       0.390909
                                                         0.232656       0.216756
                                                         0.074788      -0.026584
                          1       4    4dz2              2.521825       3.008522
                                                         1.453920      -1.224251
                                                         0.614053       0.225691
                                                         0.232656       0.125144
                                                         0.074788      -0.015348

                          1       5    5dx2              2.521825       0.698026
                                                         1.453920      -1.511486
                                                         0.614053      -0.335394
                                                         0.232656      -0.025564
                                                         0.074788      -0.002699
                          1       5    5dxy              2.521825       1.209017
                                                         1.453920      -2.617970
                                                         0.614053      -0.580920
                                                         0.232656      -0.044277
                                                         0.074788      -0.004674
                          1       5    5dxz              2.521825       1.209017
                                                         1.453920      -2.617970
                                                         0.614053      -0.580920
                                                         0.232656      -0.044277
                                                         0.074788      -0.004674
                          1       5    5dy2              2.521825       0.698026
                                                         1.453920      -1.511486
                                                         0.614053      -0.335394
                                                         0.232656      -0.025564
                                                         0.074788      -0.002699
                          1       5    5dyz              2.521825       1.209017
                                                         1.453920      -2.617970
                                                         0.614053      -0.580920
                                                         0.232656      -0.044277
                                                         0.074788      -0.004674
                          1       5    5dz2              2.521825       0.698026
                                                         1.453920      -1.511486
                                                         0.614053      -0.335394
                                                         0.232656      -0.025564
                                                         0.074788      -0.002699

                          1       6    6dx2              2.521825       0.831079
                                                         1.453920      -0.709226
                                                         0.614053      -0.137351
                                                         0.232656       0.068642
                                                         0.074788       0.011745
                          1       6    6dxy              2.521825       1.439472
                                                         1.453920      -1.228415
                                                         0.614053      -0.237899
                                                         0.232656       0.118891
                                                         0.074788       0.020343
                          1       6    6dxz              2.521825       1.439472
                                                         1.453920      -1.228415
                                                         0.614053      -0.237899
                                                         0.232656       0.118891
                                                         0.074788       0.020343
                          1       6    6dy2              2.521825       0.831079
                                                         1.453920      -0.709226
                                                         0.614053      -0.137351
                                                         0.232656       0.068642
                                                         0.074788       0.011745
                          1       6    6dyz              2.521825       1.439472
                                                         1.453920      -1.228415
                                                         0.614053      -0.237899
                                                         0.232656       0.118891
                                                         0.074788       0.020343
                          1       6    6dz2              2.521825       0.831079
                                                         1.453920      -0.709226
                                                         0.614053      -0.137351
                                                         0.232656       0.068642
                                                         0.074788       0.011745

       Atomic covalent radius [Angstrom]:                                  1.300

       Atomic van der Waals radius [Angstrom]:                             1.750

     GTH Potential information for                                   GTH-PBE-q10

       Description:                       Goedecker-Teter-Hutter pseudopotential
                                           Goedecker et al., PRB 54, 1703 (1996)
                                          Hartwigsen et al., PRB 58, 3641 (1998)
                                                      Krack, TCA 114, 145 (2005)

       Gaussian exponent of the core charge distribution:               1.317676
       Electronic configuration (s p d ...):                           1   0   9

       Parameters of the local part of the GTH pseudopotential:

                          rloc        C1          C2          C3          C4
                        0.616000   11.313635

       Parameters of the non-local part of the GTH pseudopotential:

                   l      r(l)      h(i,j,l)

                   0    0.550904    4.733491   -1.784594
                                   -1.784594    2.303901
                   1    0.674138    2.534798   -1.778066
                                   -1.778066    2.103836
                   2    0.457392   -7.264011    2.558665
                                    2.558665   -2.901253


 MOLECULE KIND INFORMATION


 All atoms are their own molecule, skipping detailed information


 TOTAL NUMBERS AND MAXIMUM NUMBERS

  Total number of            - Atomic kinds:                                   1
                             - Atoms:                                        216
                             - Shell sets:                                   216
                             - Shells:                                      1296
                             - Primitive Cartesian functions:               1080
                             - Cartesian basis functions:                   4968
                             - Spherical basis functions:                   4320

  Maximum angular momentum of- Orbital basis functions:                        2
                             - Local part of the GTH pseudopotential:          0
                             - Non-local part of the GTH pseudopotential:      4


 MODULE QUICKSTEP:  ATOMIC COORDINATES IN angstrom

 Atom  Kind  Element       X           Y           Z          Z(eff)       Mass
    1   1 Pt  78       2.279143    0.579470   19.884934      10.0000    195.0840
    2   1 Pt  78       5.019144    0.559470   20.044934      10.0000    195.0840
    3   1 Pt  78       7.779144    0.489470   19.944936      10.0000    195.0840
    4   1 Pt  78      10.609144    0.589470   19.864934      10.0000    195.0840
    5   1 Pt  78      13.389144    0.559470   19.934934      10.0000    195.0840
    6   1 Pt  78      16.179144    0.609470   19.974934      10.0000    195.0840
    7   1 Pt  78       3.599143    2.979470   19.924935      10.0000    195.0840
    8   1 Pt  78       6.379144    3.019470   19.954934      10.0000    195.0840
    9   1 Pt  78       9.169144    3.079470   19.864934      10.0000    195.0840
   10   1 Pt  78      12.049145    2.939470   19.964932      10.0000    195.0840
   11   1 Pt  78      14.829144    2.979470   20.094933      10.0000    195.0840
   12   1 Pt  78       0.729143    3.039470   19.964932      10.0000    195.0840
   13   1 Pt  78       4.939144    5.419470   19.784936      10.0000    195.0840
   14   1 Pt  78       7.779144    5.559470   19.914937      10.0000    195.0840
   15   1 Pt  78      10.629144    5.439470   19.824933      10.0000    195.0840
   16   1 Pt  78      13.449144    5.339470   20.084935      10.0000    195.0840
   17   1 Pt  78      -0.550857    5.439470   20.074937      10.0000    195.0840
   18   1 Pt  78       2.299144    5.399470   19.704934      10.0000    195.0840
   19   1 Pt  78       6.479144    7.899470   19.824933      10.0000    195.0840
   20   1 Pt  78       9.239143    7.849471   19.984937      10.0000    195.0840
   21   1 Pt  78      12.039144    7.889471   19.954934      10.0000    195.0840
   22   1 Pt  78      -2.050857    7.839470   20.034932      10.0000    195.0840
   23   1 Pt  78       0.719143    7.809470   19.964932      10.0000    195.0840
   24   1 Pt  78       3.609144    7.799470   19.924935      10.0000    195.0840
   25   1 Pt  78       7.789144   10.289469   19.954934      10.0000    195.0840
   26   1 Pt  78      10.549144   10.249470   19.804932      10.0000    195.0840
   27   1 Pt  78      -3.530857   10.259470   19.844937      10.0000    195.0840
   28   1 Pt  78      -0.660857   10.239470   19.874936      10.0000    195.0840
   29   1 Pt  78       2.099144   10.299470   19.854936      10.0000    195.0840
   30   1 Pt  78       4.869143   10.189470   19.984937      10.0000    195.0840
   31   1 Pt  78       9.029144   12.619470   19.934934      10.0000    195.0840
   32   1 Pt  78      -4.960857   12.569470   19.934934      10.0000    195.0840
   33   1 Pt  78      -2.150857   12.669470   19.964932      10.0000    195.0840
   34   1 Pt  78       0.699143   12.759470   20.014935      10.0000    195.0840
   35   1 Pt  78       3.539144   12.609471   19.944936      10.0000    195.0840
   36   1 Pt  78       6.359144   12.579470   19.854936      10.0000    195.0840
   37   1 Pt  78       0.699143    1.289470   22.224934      10.0000    195.0840
   38   1 Pt  78       3.429144    1.389470   22.294934      10.0000    195.0840
   39   1 Pt  78       6.449144    1.359470   22.244935      10.0000    195.0840
   40   1 Pt  78       9.139144    1.109470   22.164933      10.0000    195.0840
   41   1 Pt  78      11.929144    1.209470   22.234933      10.0000    195.0840
   42   1 Pt  78      14.819144    1.419470   22.314935      10.0000    195.0840
   43   1 Pt  78       2.129143    3.799470   22.224934      10.0000    195.0840
   44   1 Pt  78       4.989144    3.839470   22.264935      10.0000    195.0840
   45   1 Pt  78       7.849144    3.809470   22.304932      10.0000    195.0840
   46   1 Pt  78      10.609144    3.729470   22.334935      10.0000    195.0840
   47   1 Pt  78      13.399144    3.869470   22.414937      10.0000    195.0840
   48   1 Pt  78      -0.560857    3.789470   22.364934      10.0000    195.0840
   49   1 Pt  78       3.469144    6.229470   22.274938      10.0000    195.0840
   50   1 Pt  78       6.229143    6.229470   22.264935      10.0000    195.0840
   51   1 Pt  78       9.179144    6.129470   22.204934      10.0000    195.0840
   52   1 Pt  78      12.009144    6.139470   22.234933      10.0000    195.0840
   53   1 Pt  78      -2.060857    6.209470   22.314935      10.0000    195.0840
   54   1 Pt  78       0.819143    6.219471   22.274938      10.0000    195.0840
   55   1 Pt  78       4.999143    8.649470   22.344937      10.0000    195.0840
   56   1 Pt  78       7.689144    8.629470   22.224934      10.0000    195.0840
   57   1 Pt  78      10.549144    8.539470   22.244935      10.0000    195.0840
   58   1 Pt  78      -3.520857    8.539470   22.174935      10.0000    195.0840
   59   1 Pt  78      -0.620857    8.619470   22.284936      10.0000    195.0840
   60   1 Pt  78       2.189144    8.639470   22.364934      10.0000    195.0840
   61   1 Pt  78       6.349144   11.129471   22.364934      10.0000    195.0840
   62   1 Pt  78       9.169144   11.069470   22.274938      10.0000    195.0840
   63   1 Pt  78      -4.890857   10.949471   22.254933      10.0000    195.0840
   64   1 Pt  78      -2.040857   10.949471   22.354936      10.0000    195.0840
   65   1 Pt  78       0.749143   10.889471   22.204934      10.0000    195.0840
   66   1 Pt  78       3.469144   11.119470   22.244935      10.0000    195.0840
   67   1 Pt  78       7.679144   13.479471   22.234933      10.0000    195.0840
   68   1 Pt  78      -6.270857   13.489470   22.194936      10.0000    195.0840
   69   1 Pt  78      -3.440857   13.439471   22.224934      10.0000    195.0840
   70   1 Pt  78      -0.710857   13.479471   22.294934      10.0000    195.0840
   71   1 Pt  78       2.089144   13.399471   22.434934      10.0000    195.0840
   72   1 Pt  78       4.949144   13.599471   22.284936      10.0000    195.0840
   73   1 Pt  78      -7.780857   14.259470   24.634934      10.0000    195.0840
   74   1 Pt  78      -5.000857   14.259470   24.454934      10.0000    195.0840
   75   1 Pt  78      -2.110857   14.209470   24.594937      10.0000    195.0840
   76   1 Pt  78       0.639143   14.129470   24.614934      10.0000    195.0840
   77   1 Pt  78       3.409144   14.249470   24.654935      10.0000    195.0840
   78   1 Pt  78       6.269144   14.239471   24.704934      10.0000    195.0840
   79   1 Pt  78       2.079143    2.149470   24.554936      10.0000    195.0840
   80   1 Pt  78       4.999143    2.179470   24.644933      10.0000    195.0840
   81   1 Pt  78       7.759144    2.059470   24.614934      10.0000    195.0840
   82   1 Pt  78      10.549144    1.979470   24.624936      10.0000    195.0840
   83   1 Pt  78      13.429145    2.059470   24.664937      10.0000    195.0840
   84   1 Pt  78      -0.720857    2.029470   24.684934      10.0000    195.0840
   85   1 Pt  78       3.599143    4.499470   24.534936      10.0000    195.0840
   86   1 Pt  78       6.289144    4.519470   24.594937      10.0000    195.0840
   87   1 Pt  78       9.139144    4.509470   24.644933      10.0000    195.0840
   88   1 Pt  78      11.879144    4.459470   24.654935      10.0000    195.0840
   89   1 Pt  78      -2.140856    4.519470   24.634934      10.0000    195.0840
   90   1 Pt  78       0.789143    4.429470   24.614934      10.0000    195.0840
   91   1 Pt  78       4.909144    7.009470   24.624936      10.0000    195.0840
   92   1 Pt  78       7.689144    6.899470   24.624936      10.0000    195.0840
   93   1 Pt  78      10.449144    6.989470   24.534936      10.0000    195.0840
   94   1 Pt  78      -3.690857    6.949471   24.574933      10.0000    195.0840
   95   1 Pt  78      -0.720857    6.849470   24.644933      10.0000    195.0840
   96   1 Pt  78       2.149144    6.959470   24.604936      10.0000    195.0840
   97   1 Pt  78       6.299144    9.429471   24.614934      10.0000    195.0840
   98   1 Pt  78       9.109144    9.329470   24.474934      10.0000    195.0840
   99   1 Pt  78      -4.870856    9.399471   24.504933      10.0000    195.0840
  100   1 Pt  78      -2.040857    9.259470   24.634934      10.0000    195.0840
  101   1 Pt  78       0.729143    9.359471   24.614934      10.0000    195.0840
  102   1 Pt  78       3.509144    9.429471   24.694936      10.0000    195.0840
  103   1 Pt  78       7.709143   11.849470   24.604936      10.0000    195.0840
  104   1 Pt  78      -6.460857   11.849470   24.484937      10.0000    195.0840
  105   1 Pt  78      -3.500857   11.799469   24.584935      10.0000    195.0840
  106   1 Pt  78      -0.740857   11.699470   24.614934      10.0000    195.0840
  107   1 Pt  78       2.069143   11.829470   24.654935      10.0000    195.0840
  108   1 Pt  78       4.839144   11.919470   24.634934      10.0000    195.0840
  109   1 Pt  78       2.079143    0.449470   26.842933      10.0000    195.0840
  110   1 Pt  78       4.929144    0.339470   26.742933      10.0000    195.0840
  111   1 Pt  78       7.659144    0.449470   26.872933      10.0000    195.0840
  112   1 Pt  78      10.419144    0.449470   26.992933      10.0000    195.0840
  113   1 Pt  78      13.259144    0.349470   27.062933      10.0000    195.0840
  114   1 Pt  78      16.029144    0.399470   26.952933      10.0000    195.0840
  115   1 Pt  78       3.539144    2.809470   26.862933      10.0000    195.0840
  116   1 Pt  78       6.239143    2.909470   26.902933      10.0000    195.0840
  117   1 Pt  78       9.029144    2.879470   26.882933      10.0000    195.0840
  118   1 Pt  78      11.849145    2.789470   26.952933      10.0000    195.0840
  119   1 Pt  78      14.739143    2.799470   26.962933      10.0000    195.0840
  120   1 Pt  78       0.629143    2.769470   26.952933      10.0000    195.0840
  121   1 Pt  78       4.889144    5.329470   26.922933      10.0000    195.0840
  122   1 Pt  78       7.689144    5.359470   26.872933      10.0000    195.0840
  123   1 Pt  78      10.389144    5.379470   27.022933      10.0000    195.0840
  124   1 Pt  78      13.229143    5.269470   26.852933      10.0000    195.0840
  125   1 Pt  78      -0.750857    5.229470   26.882933      10.0000    195.0840
  126   1 Pt  78       2.149144    5.149470   26.882933      10.0000    195.0840
  127   1 Pt  78       6.289144    7.839470   26.902933      10.0000    195.0840
  128   1 Pt  78       9.089144    7.799470   26.892933      10.0000    195.0840
  129   1 Pt  78      11.909143    7.739470   26.852933      10.0000    195.0840
  130   1 Pt  78      -2.190857    7.589470   26.872933      10.0000    195.0840
  131   1 Pt  78       0.689143    7.649470   26.842933      10.0000    195.0840
  132   1 Pt  78       3.489144    7.719470   26.952933      10.0000    195.0840
  133   1 Pt  78       7.729144   10.269470   26.852933      10.0000    195.0840
  134   1 Pt  78      10.469144   10.259470   26.862933      10.0000    195.0840
  135   1 Pt  78      -3.510857   10.179471   26.822933      10.0000    195.0840
  136   1 Pt  78      -0.740857   10.069470   26.982933      10.0000    195.0840
  137   1 Pt  78       1.959144   10.199470   26.982933      10.0000    195.0840
  138   1 Pt  78       4.839144   10.169470   26.922933      10.0000    195.0840
  139   1 Pt  78       9.099144   12.639470   26.912933      10.0000    195.0840
  140   1 Pt  78      -4.950857   12.539470   26.652933      10.0000    195.0840
  141   1 Pt  78      -2.150857   12.519471   26.892933      10.0000    195.0840
  142   1 Pt  78       0.529143   12.529471   26.922933      10.0000    195.0840
  143   1 Pt  78       3.389144   12.579470   27.052933      10.0000    195.0840
  144   1 Pt  78       6.179144   12.619470   26.972933      10.0000    195.0840
  145   1 Pt  78       0.609143    1.199470   29.242933      10.0000    195.0840
  146   1 Pt  78       3.419144    1.229470   29.152933      10.0000    195.0840
  147   1 Pt  78       6.239143    1.259470   29.142934      10.0000    195.0840
  148   1 Pt  78       8.979144    1.229470   29.282933      10.0000    195.0840
  149   1 Pt  78      11.799144    1.199470   29.262933      10.0000    195.0840
  150   1 Pt  78      14.629145    1.229470   29.442934      10.0000    195.0840
  151   1 Pt  78       2.079143    3.529470   29.252933      10.0000    195.0840
  152   1 Pt  78       4.899144    3.599470   29.202933      10.0000    195.0840
  153   1 Pt  78       7.599144    3.699470   29.222933      10.0000    195.0840
  154   1 Pt  78      10.429144    3.679470   29.242933      10.0000    195.0840
  155   1 Pt  78      13.219145    3.609470   29.342934      10.0000    195.0840
  156   1 Pt  78      -0.810857    3.629470   29.252933      10.0000    195.0840
  157   1 Pt  78       3.369143    5.959470   29.272933      10.0000    195.0840
  158   1 Pt  78       6.209144    6.159470   29.232933      10.0000    195.0840
  159   1 Pt  78       9.029144    6.129470   29.252933      10.0000    195.0840
  160   1 Pt  78      11.739144    6.139470   29.322933      10.0000    195.0840
  161   1 Pt  78      -2.270857    5.979470   29.122933      10.0000    195.0840
  162   1 Pt  78       0.529143    5.939470   29.272933      10.0000    195.0840
  163   1 Pt  78       4.799144    8.519471   29.242933      10.0000    195.0840
  164   1 Pt  78       7.719144    8.539470   29.192933      10.0000    195.0840
  165   1 Pt  78      10.469144    8.529470   29.162934      10.0000    195.0840
  166   1 Pt  78      -3.580857    8.559470   29.102933      10.0000    195.0840
  167   1 Pt  78      -0.860857    8.379470   29.162934      10.0000    195.0840
  168   1 Pt  78       2.009144    8.359470   29.252933      10.0000    195.0840
  169   1 Pt  78       6.319144   10.989470   29.212933      10.0000    195.0840
  170   1 Pt  78       9.089144   10.969471   29.172933      10.0000    195.0840
  171   1 Pt  78      -4.970857   10.989470   29.072933      10.0000    195.0840
  172   1 Pt  78      -2.190857   10.869471   29.332933      10.0000    195.0840
  173   1 Pt  78       0.579143   10.909470   29.312933      10.0000    195.0840
  174   1 Pt  78       3.399144   10.859470   29.242933      10.0000    195.0840
  175   1 Pt  78       7.659144   13.439471   29.352933      10.0000    195.0840
  176   1 Pt  78      -6.430857   13.399471   29.182934      10.0000    195.0840
  177   1 Pt  78      -3.650857   13.449471   29.092933      10.0000    195.0840
  178   1 Pt  78      -0.910857   13.409470   29.212933      10.0000    195.0840
  179   1 Pt  78       1.939143   13.389471   29.232933      10.0000    195.0840
  180   1 Pt  78       4.759144   13.319471   29.382933      10.0000    195.0840
  181   1 Pt  78      -7.730857   14.139471   31.742933      10.0000    195.0840
  182   1 Pt  78      -4.930857   14.269471   31.372934      10.0000    195.0840
  183   1 Pt  78      -2.290857   14.169471   31.522934      10.0000    195.0840
  184   1 Pt  78       0.489143   14.209470   31.602933      10.0000    195.0840
  185   1 Pt  78       3.409144   14.169471   31.602933      10.0000    195.0840
  186   1 Pt  78       6.299144   14.199470   31.772934      10.0000    195.0840
  187   1 Pt  78       2.059143    2.009470   31.742933      10.0000    195.0840
  188   1 Pt  78       4.769143    2.029470   31.602933      10.0000    195.0840
  189   1 Pt  78       7.539144    1.939470   31.772934      10.0000    195.0840
  190   1 Pt  78      10.409144    1.949470   31.502934      10.0000    195.0840
  191   1 Pt  78      13.259144    2.039470   31.722933      10.0000    195.0840
  192   1 Pt  78      -0.730857    2.039470   31.722933      10.0000    195.0840
  193   1 Pt  78       3.469144    4.459470   31.692933      10.0000    195.0840
  194   1 Pt  78       6.189144    4.529470   31.522934      10.0000    195.0840
  195   1 Pt  78       8.929144    4.359470   31.572934      10.0000    195.0840
  196   1 Pt  78      11.869144    4.379470   31.712934      10.0000    195.0840
  197   1 Pt  78      -2.180857    4.549470   31.602933      10.0000    195.0840
  198   1 Pt  78       0.709143    4.389470   31.622934      10.0000    195.0840
  199   1 Pt  78       4.859144    6.829470   31.492933      10.0000    195.0840
  200   1 Pt  78       7.719144    6.869470   31.612933      10.0000    195.0840
  201   1 Pt  78      10.479144    6.849470   31.632934      10.0000    195.0840
  202   1 Pt  78      -3.650857    6.799470   31.422933      10.0000    195.0840
  203   1 Pt  78      -0.840857    6.979470   31.542934      10.0000    195.0840
  204   1 Pt  78       2.009144    6.979470   31.612933      10.0000    195.0840
  205   1 Pt  78       6.269144    9.439471   31.372934      10.0000    195.0840
  206   1 Pt  78       9.089144    9.269471   31.582934      10.0000    195.0840
  207   1 Pt  78      -5.010857    9.409470   31.452934      10.0000    195.0840
  208   1 Pt  78      -2.240857    9.359471   31.542934      10.0000    195.0840
  209   1 Pt  78       0.699143    9.339470   31.542934      10.0000    195.0840
  210   1 Pt  78       3.429144    9.319470   31.532933      10.0000    195.0840
  211   1 Pt  78       7.689144   11.809471   31.512933      10.0000    195.0840
  212   1 Pt  78      -6.420857   11.839470   31.602933      10.0000    195.0840
  213   1 Pt  78      -3.650857   11.849470   31.642934      10.0000    195.0840
  214   1 Pt  78      -0.780857   11.819471   31.572934      10.0000    195.0840
  215   1 Pt  78       2.009144   11.849470   31.742933      10.0000    195.0840
  216   1 Pt  78       4.859144   11.779470   31.622934      10.0000    195.0840




 SCF PARAMETERS         Density guess:                                   RESTART
                        --------------------------------------------------------
                        max_scf:                                             500
                        max_scf_history:                                       0
                        max_diis:                                              4
                        --------------------------------------------------------
                        eps_scf:                                        1.00E-06
                        eps_scf_history:                                0.00E+00
                        eps_diis:                                       1.00E-01
                        eps_eigval:                                     1.00E-05
                        --------------------------------------------------------
                        level_shift [a.u.]:                             0.000000
                        added MOs                                       500    0
                        --------------------------------------------------------
                        Mixing method:                            BROYDEN_MIXING
                                                charge density mixing in g-space
                        --------------------------------------------------------
                        Smear method:                                FERMI_DIRAC
                        Electronic temperature [K]:                        300.0
                        Electronic temperature [a.u.]:                  9.50E-04
                        Accuracy threshold:                             1.00E-10
                        --------------------------------------------------------
                        No outer SCF

 PW_GRID| Information for grid number                                          1
 PW_GRID| Grid distributed over                                    32 processors
 PW_GRID| Real space group dimensions                                    32    1
 PW_GRID| the grid is blocked:                                                NO
 PW_GRID| Cutoff [a.u.]                                                    200.0
 PW_GRID| spherical cutoff:                                                   NO
 PW_GRID|   Bounds   1           -105     104                Points:         210
 PW_GRID|   Bounds   2           -105     104                Points:         210
 PW_GRID|   Bounds   3           -315     314                Points:         630
 PW_GRID| Volume element (a.u.^3)  0.3081E-02     Volume (a.u.^3)     85609.9578
 PW_GRID| Grid span                                                    FULLSPACE
 PW_GRID|   Distribution                         Average         Max         Min
 PW_GRID|   G-Vectors                           868218.8      868350      868140
 PW_GRID|   G-Rays                                4134.4        4135        4134
 PW_GRID|   Real Space Points                   868218.8      926100      793800

 PW_GRID| Information for grid number                                          2
 PW_GRID| Number of the reference grid                                         1
 PW_GRID| Grid distributed over                                    32 processors
 PW_GRID| Real space group dimensions                                    32    1
 PW_GRID| the grid is blocked:                                                NO
 PW_GRID| Cutoff [a.u.]                                                     66.7
 PW_GRID| spherical cutoff:                                                   NO
 PW_GRID|   Bounds   1            -60      59                Points:         120
 PW_GRID|   Bounds   2            -60      59                Points:         120
 PW_GRID|   Bounds   3           -180     179                Points:         360
 PW_GRID| Volume element (a.u.^3)  0.1651E-01     Volume (a.u.^3)     85609.9578
 PW_GRID| Grid span                                                    FULLSPACE
 PW_GRID|   Distribution                         Average         Max         Min
 PW_GRID|   G-Vectors                           162000.0      162840      161280
 PW_GRID|   G-Rays                                1350.0        1357        1344
 PW_GRID|   Real Space Points                   162000.0      172800      129600

 PW_GRID| Information for grid number                                          3
 PW_GRID| Number of the reference grid                                         1
 PW_GRID| Grid distributed over                                    32 processors
 PW_GRID| Real space group dimensions                                    32    1
 PW_GRID| the grid is blocked:                                                NO
 PW_GRID| Cutoff [a.u.]                                                     22.2
 PW_GRID| spherical cutoff:                                                   NO
 PW_GRID|   Bounds   1            -35      34                Points:          70
 PW_GRID|   Bounds   2            -35      34                Points:          70
 PW_GRID|   Bounds   3           -105     104                Points:         210
 PW_GRID| Volume element (a.u.^3)  0.8320E-01     Volume (a.u.^3)     85609.9578
 PW_GRID| Grid span                                                    FULLSPACE
 PW_GRID|   Distribution                         Average         Max         Min
 PW_GRID|   G-Vectors                            32156.2       32340       31990
 PW_GRID|   G-Rays                                 459.4         462         457
 PW_GRID|   Real Space Points                    32156.2       44100       29400

 PW_GRID| Information for grid number                                          4
 PW_GRID| Number of the reference grid                                         1
 PW_GRID| Grid distributed over                                    32 processors
 PW_GRID| Real space group dimensions                                    32    1
 PW_GRID| the grid is blocked:                                                NO
 PW_GRID| Cutoff [a.u.]                                                      7.4
 PW_GRID| spherical cutoff:                                                   NO
 PW_GRID|   Bounds   1            -20      19                Points:          40
 PW_GRID|   Bounds   2            -20      19                Points:          40
 PW_GRID|   Bounds   3            -60      59                Points:         120
 PW_GRID| Volume element (a.u.^3)  0.4459         Volume (a.u.^3)     85609.9578
 PW_GRID| Grid span                                                    FULLSPACE
 PW_GRID|   Distribution                         Average         Max         Min
 PW_GRID|   G-Vectors                             6000.0        6120        5920
 PW_GRID|   G-Rays                                 150.0         153         148
 PW_GRID|   Real Space Points                     6000.0        9600        4800

 POISSON| Solver                                          IMPLICIT (GENERALIZED)
 POISSON| Boundary Condition                                PERIODIC & DIRICHLET
 POISSON| Maximum number of iterations                                        30
 POISSON| Convergence threshold                                         1.00E-08
 POISSON| Dielectric Constant                                              80.00
 POISSON| Relaxation parameter                                          1.00E+00

 RS_GRID| Information for grid number                                          1
 RS_GRID|   Bounds   1           -105     104                Points:         210
 RS_GRID|   Bounds   2           -105     104                Points:         210
 RS_GRID|   Bounds   3           -315     314                Points:         630
 RS_GRID| Real space distribution over                                 32 groups
 RS_GRID| Real space distribution along direction                              3
 RS_GRID| Border size                                                         54
 RS_GRID|   Distribution                         Average         Max         Min
 RS_GRID|   Planes                                 127.7         128         127

 RS_GRID| Information for grid number                                          2
 RS_GRID|   Bounds   1            -60      59                Points:         120
 RS_GRID|   Bounds   2            -60      59                Points:         120
 RS_GRID|   Bounds   3           -180     179                Points:         360
 RS_GRID| Real space distribution over                                 32 groups
 RS_GRID| Real space distribution along direction                              3
 RS_GRID| Border size                                                         36
 RS_GRID|   Distribution                         Average         Max         Min
 RS_GRID|   Planes                                  83.2          84          83

 RS_GRID| Information for grid number                                          3
 RS_GRID|   Bounds   1            -35      34                Points:          70
 RS_GRID|   Bounds   2            -35      34                Points:          70
 RS_GRID|   Bounds   3           -105     104                Points:         210
 RS_GRID| Real space fully replicated
 RS_GRID| Group size                                                           1

 RS_GRID| Information for grid number                                          4
 RS_GRID|   Bounds   1            -20      19                Points:          40
 RS_GRID|   Bounds   2            -20      19                Points:          40
 RS_GRID|   Bounds   3            -60      59                Points:         120
 RS_GRID| Real space fully replicated
 RS_GRID| Group size                                                           1

 Number of electrons:                                                       2160
 Number of occupied orbitals:                                               1080
 Number of molecular orbitals:                                              1580

 Number of orbital functions:                                               4320
 Number of independent orbital functions:                                   4320

 Extrapolation method: initial_guess


 SCF WAVEFUNCTION OPTIMIZATION

  Step     Update method      Time    Convergence         Total energy    Change
  ------------------------------------------------------------------------------

  POISSON| IMPLICIT (GENERALIZED) SOLVER ---------------------------------------
  POISSON| Preparing Dirichlet regions ...
  POISSON| Dirichlet region    1
  POISSON|     type : axis-aligned planar
  POISSON|     applied potential :   0.0000E+00  [Eh/e]
  POISSON| Dirichlet region    2
  POISSON|     type : axis-aligned planar
  POISSON|     applied potential :  -0.3675E-01  [Eh/e]
  POISSON| ... Done. 
  ------------------------------------------------------------------------------

  POISSON|   iter        pres error      nabs error        E_hartree    delta E
  POISSON|      1        0.7355E-03      0.3270E-01    1992.7220785141  0.20E+04
  POISSON|      2        0.6464E-15      0.7355E-03    1992.7255770825  0.35E-02
  POISSON| Poisson solver converged in 2 iterations.
     1 NoMix/Diag. 0.30E+00   11.1     0.20689222     -5670.9447050253 -5.67E+03
  POISSON|   iter        pres error      nabs error        E_hartree    delta E
  POISSON|      1        0.7238E-03      0.3249E-01    1992.5767297493 -0.15E+00
  POISSON|      2        0.5870E-15      0.7238E-03    1992.5801729057  0.34E-02
  POISSON| Poisson solver converged in 2 iterations.
     2 Broy./Diag. 0.30E+00   13.2     0.22321983     -5670.7350004028  2.10E-01
  POISSON|   iter        pres error      nabs error        E_hartree    delta E
  POISSON|      1        0.2848E-04      0.3038E-03    1992.7619862365  0.18E+00
  POISSON|      2        0.6283E-16      0.2848E-04    1992.7621217194  0.14E-03
  POISSON| Poisson solver converged in 2 iterations.
     3 Broy./Diag. 0.30E+00   13.3     0.11861888     -5675.6197882185 -4.88E+00
  POISSON|   iter        pres error      nabs error        E_hartree    delta E
  POISSON|      1        0.7547E-04      0.3027E-03    1992.8064560780  0.44E-01
  POISSON|      2        0.6144E-16      0.7547E-04    1992.8060970577 -0.36E-03
  POISSON| Poisson solver converged in 2 iterations.
     4 Broy./Diag. 0.30E+00   13.3     0.15222816     -5672.7338381799  2.89E+00
  POISSON|   iter        pres error      nabs error        E_hartree    delta E
  POISSON|      1        0.6544E-04      0.2644E-03    1992.8678528647  0.62E-01
  POISSON|      2        0.3524E-16      0.6544E-04    1992.8681641758  0.31E-03
  POISSON| Poisson solver converged in 2 iterations.
     5 Broy./Diag. 0.30E+00   13.3     0.12666640     -5671.5040993554  1.23E+00
  POISSON|   iter        pres error      nabs error        E_hartree    delta E
  POISSON|      1        0.4946E-05      0.4341E-04    1992.9625760880  0.94E-01
  POISSON|      2        0.3286E-18      0.4946E-05    1992.9625525596 -0.24E-04
  POISSON| Poisson solver converged in 2 iterations.
     6 Broy./Diag. 0.30E+00   13.4     0.04436072     -5672.7161754754 -1.21E+00
  POISSON|   iter        pres error      nabs error        E_hartree    delta E
  POISSON|      1        0.2381E-05      0.3082E-04    1993.0254868851  0.63E-01
  POISSON|      2        0.8131E-17      0.2381E-05    1993.0254755578 -0.11E-04
  POISSON| Poisson solver converged in 2 iterations.
     7 Broy./Diag. 0.30E+00   13.4     0.03602571     -5672.3216617396  3.95E-01
  POISSON|   iter        pres error      nabs error        E_hartree    delta E
  POISSON|      1        0.1457E-05      0.2273E-04    1993.0785940156  0.53E-01
  POISSON|      2        0.2525E-17      0.1457E-05    1993.0785870872 -0.69E-05
  POISSON| Poisson solver converged in 2 iterations.
     8 Broy./Diag. 0.30E+00   13.4     0.01954823     -5672.2845227786  3.71E-02
  POISSON|   iter        pres error      nabs error        E_hartree    delta E
  POISSON|      1        0.2572E-07      0.1166E-04    1993.1069941527  0.28E-01
  POISSON|      2        0.9265E-17      0.2572E-07    1993.1069942751  0.12E-06
  POISSON| Poisson solver converged in 2 iterations.
     9 Broy./Diag. 0.30E+00   13.5     0.00932555     -5672.3377951166 -5.33E-02
  POISSON|   iter        pres error      nabs error        E_hartree    delta E
  POISSON|      1        0.1415E-06      0.5394E-05    1993.1181054374  0.11E-01
  POISSON|      2        0.2903E-17      0.1415E-06    1993.1181061105  0.67E-06
  POISSON| Poisson solver converged in 2 iterations.
    10 Broy./Diag. 0.30E+00   13.6     0.00314894     -5672.2548894545  8.29E-02
  POISSON|   iter        pres error      nabs error        E_hartree    delta E
  POISSON|      1        0.2270E-07      0.4378E-05    1993.1235886861  0.55E-02
  POISSON|      2        0.3173E-17      0.2270E-07    1993.1235885781 -0.11E-06
  POISSON| Poisson solver converged in 2 iterations.
    11 Broy./Diag. 0.30E+00   13.7     0.00346126     -5672.2579234964 -3.03E-03
  POISSON|   iter        pres error      nabs error        E_hartree    delta E
  POISSON|      1        0.2831E-07      0.5270E-05    1993.1311533251  0.76E-02
  POISSON|      2        0.2701E-17      0.2831E-07    1993.1311531904 -0.13E-06
  POISSON| Poisson solver converged in 2 iterations.
    12 Broy./Diag. 0.30E+00   13.5     0.00214147     -5672.2519609700  5.96E-03
  POISSON|   iter        pres error      nabs error        E_hartree    delta E
  POISSON|      1        0.1154E-06      0.2515E-05    1993.1343485214  0.32E-02
  POISSON|      2        0.8464E-18      0.1154E-06    1993.1343490701  0.55E-06
  POISSON| Poisson solver converged in 2 iterations.
    13 Broy./Diag. 0.30E+00   13.5     0.00159332     -5672.2639994893 -1.20E-02
  POISSON|   iter        pres error      nabs error        E_hartree    delta E
  POISSON|      1        0.8795E-07      0.1797E-05    1993.1352025454  0.85E-03
  POISSON|      2        0.3772E-17      0.8795E-07    1993.1352029637  0.42E-06
  POISSON| Poisson solver converged in 2 iterations.
    14 Broy./Diag. 0.30E+00   13.5     0.00092764     -5672.2490009492  1.50E-02
  POISSON|   iter        pres error      nabs error        E_hartree    delta E
  POISSON|      1        0.5666E-06      0.2512E-05    1993.1358606864  0.66E-03
  POISSON|      2        0.3782E-17      0.5666E-06    1993.1358579914 -0.27E-05
  POISSON| Poisson solver converged in 2 iterations.
    15 Broy./Diag. 0.30E+00   13.5     0.00135902     -5672.2575061836 -8.51E-03
  POISSON|   iter        pres error      nabs error        E_hartree    delta E
  POISSON|      1        0.6346E-06      0.2787E-05    1993.1352992470 -0.56E-03
  POISSON|      2        0.4864E-17      0.6346E-06    1993.1353022657  0.30E-05
  POISSON| Poisson solver converged in 2 iterations.
    16 Broy./Diag. 0.30E+00   13.6     0.00140649     -5672.2538067513  3.70E-03
  POISSON|   iter        pres error      nabs error        E_hartree    delta E
  POISSON|      1        0.1960E-06      0.1815E-05    1993.1353931253  0.91E-04
  POISSON|      2        0.1559E-17      0.1960E-06    1993.1353921932 -0.93E-06
  POISSON| Poisson solver converged in 2 iterations.
    17 Broy./Diag. 0.30E+00   13.5     0.00066193     -5672.2627748530 -8.97E-03
  POISSON|   iter        pres error      nabs error        E_hartree    delta E
  POISSON|      1        0.9324E-08      0.1307E-05    1993.1354370706  0.45E-04
  POISSON| Poisson solver converged in 1 iteration. 
    18 Broy./Diag. 0.30E+00   12.2     0.00027730     -5672.2593036105  3.47E-03
  POISSON|   iter        pres error      nabs error        E_hartree    delta E
  POISSON|      1        0.1275E-07      0.7946E-06    1993.1354986817  0.62E-04
  POISSON|      2        0.5115E-17      0.1275E-07    1993.1354986211 -0.61E-07
  POISSON| Poisson solver converged in 2 iterations.
    19 Broy./Diag. 0.30E+00   13.5     0.00020899     -5672.2607405780 -1.44E-03
  POISSON|   iter        pres error      nabs error        E_hartree    delta E
  POISSON|      1        0.1878E-07      0.7229E-06    1993.1356682875  0.17E-03
  POISSON|      2        0.1176E-17      0.1878E-07    1993.1356681982 -0.89E-07
  POISSON| Poisson solver converged in 2 iterations.
    20 Broy./Diag. 0.30E+00   13.5     0.00018841     -5672.2618977235 -1.16E-03
  POISSON|   iter        pres error      nabs error        E_hartree    delta E
  POISSON|      1        0.1032E-07      0.9020E-06    1993.1358971444  0.23E-03
  POISSON|      2        0.4215E-17      0.1032E-07    1993.1358971935  0.49E-07
  POISSON| Poisson solver converged in 2 iterations.
    21 Broy./Diag. 0.30E+00   13.6     0.00014685     -5672.2608357647  1.06E-03
  POISSON|   iter        pres error      nabs error        E_hartree    delta E
  POISSON|      1        0.1526E-07      0.9802E-06    1993.1361085785  0.21E-03
  POISSON|      2        0.9789E-19      0.1526E-07    1993.1361085059 -0.73E-07
  POISSON| Poisson solver converged in 2 iterations.
    22 Broy./Diag. 0.30E+00   13.6     0.00015640     -5672.2604948141  3.41E-04
  POISSON|   iter        pres error      nabs error        E_hartree    delta E
  POISSON|      1        0.6994E-08      0.7340E-06    1993.1362713134  0.16E-03
  POISSON| Poisson solver converged in 1 iteration. 
    23 Broy./Diag. 0.30E+00   12.1     0.00010152     -5672.2607804913 -2.86E-04
  POISSON|   iter        pres error      nabs error        E_hartree    delta E
  POISSON|      1        0.6886E-08      0.6517E-06    1993.1364249894  0.15E-03
  POISSON| Poisson solver converged in 1 iteration. 
    24 Broy./Diag. 0.30E+00   12.2     0.00010812     -5672.2610213515 -2.41E-04
  POISSON|   iter        pres error      nabs error        E_hartree    delta E
  POISSON|      1        0.5749E-07      0.4569E-06    1993.1364212688 -0.37E-05
  POISSON|      2        0.1129E-17      0.5749E-07    1993.1364215423  0.27E-06
  POISSON| Poisson solver converged in 2 iterations.
    25 Broy./Diag. 0.30E+00   13.6     0.00017091     -5672.2599446536  1.08E-03
  POISSON|   iter        pres error      nabs error        E_hartree    delta E
  POISSON|      1        0.9400E-07      0.5537E-06    1993.1364850566  0.64E-04
  POISSON|      2        0.5317E-18      0.9400E-07    1993.1364846095 -0.45E-06
  POISSON| Poisson solver converged in 2 iterations.
    26 Broy./Diag. 0.30E+00   13.5     0.00021231     -5672.2613660979 -1.42E-03
  POISSON|   iter        pres error      nabs error        E_hartree    delta E
  POISSON|      1        0.5348E-07      0.7846E-06    1993.1365780197  0.93E-04
  POISSON|      2        0.1286E-17      0.5348E-07    1993.1365782741  0.25E-06
  POISSON| Poisson solver converged in 2 iterations.
    27 Broy./Diag. 0.30E+00   13.6     0.00015576     -5672.2610335133  3.33E-04
  POISSON|   iter        pres error      nabs error        E_hartree    delta E
  POISSON|      1        0.5278E-08      0.5003E-06    1993.1365854491  0.72E-05
  POISSON| Poisson solver converged in 1 iteration. 
    28 Broy./Diag. 0.30E+00   12.2     0.00005480     -5672.2603867881  6.47E-04
  POISSON|   iter        pres error      nabs error        E_hartree    delta E
  POISSON|      1        0.4803E-08      0.3721E-06    1993.1365626297 -0.23E-04
  POISSON| Poisson solver converged in 1 iteration. 
    29 Broy./Diag. 0.30E+00   12.2     0.00004960     -5672.2604568834 -7.01E-05
  POISSON|   iter        pres error      nabs error        E_hartree    delta E
  POISSON|      1        0.2984E-08      0.3703E-06    1993.1365559763 -0.67E-05
  POISSON| Poisson solver converged in 1 iteration. 
    30 Broy./Diag. 0.30E+00   12.2     0.00003183     -5672.2609835896 -5.27E-04
  POISSON|   iter        pres error      nabs error        E_hartree    delta E
  POISSON|      1        0.1971E-08      0.3362E-06    1993.1365266637 -0.29E-04
  POISSON| Poisson solver converged in 1 iteration. 
    31 Broy./Diag. 0.30E+00   12.1     0.00004062     -5672.2607230958  2.60E-04
  POISSON|   iter        pres error      nabs error        E_hartree    delta E
  POISSON|      1        0.4288E-08      0.2879E-06    1993.1365099314 -0.17E-04
  POISSON| Poisson solver converged in 1 iteration. 
    32 Broy./Diag. 0.30E+00   12.1     0.00002880     -5672.2609216792 -1.99E-04
  POISSON|   iter        pres error      nabs error        E_hartree    delta E
  POISSON|      1        0.1039E-08      0.2011E-06    1993.1365157529  0.58E-05
  POISSON| Poisson solver converged in 1 iteration. 
    33 Broy./Diag. 0.30E+00   12.2     0.00002360     -5672.2610839283 -1.62E-04
  POISSON|   iter        pres error      nabs error        E_hartree    delta E
  POISSON|      1        0.1000E-08      0.1760E-06    1993.1365293198  0.14E-04
  POISSON| Poisson solver converged in 1 iteration. 
    34 Broy./Diag. 0.30E+00   12.2     0.00002354     -5672.2609570625  1.27E-04
  POISSON|   iter        pres error      nabs error        E_hartree    delta E
  POISSON|      1        0.3950E-08      0.2072E-06    1993.1365706709  0.41E-04
  POISSON| Poisson solver converged in 1 iteration. 
    35 Broy./Diag. 0.30E+00   12.1     0.00002593     -5672.2611237186 -1.67E-04
  POISSON|   iter        pres error      nabs error        E_hartree    delta E
  POISSON|      1        0.2075E-07      0.9221E-07    1993.1365705698 -0.10E-06
  POISSON|      2        0.1930E-17      0.2075E-07    1993.1365706685  0.99E-07
  POISSON| Poisson solver converged in 2 iterations.
    36 Broy./Diag. 0.30E+00   13.7     0.00004893     -5672.2608891008  2.35E-04
  POISSON|   iter        pres error      nabs error        E_hartree    delta E
  POISSON|      1        0.1519E-07      0.2096E-06    1993.1366068160  0.36E-04
  POISSON|      2        0.9275E-19      0.1519E-07    1993.1366067437 -0.72E-07
  POISSON| Poisson solver converged in 2 iterations.
    37 Broy./Diag. 0.30E+00   13.6     0.00004547     -5672.2609390743 -5.00E-05
  POISSON|   iter        pres error      nabs error        E_hartree    delta E
  POISSON|      1        0.3545E-08      0.1171E-06    1993.1366456437  0.39E-04
  POISSON| Poisson solver converged in 1 iteration. 
    38 Broy./Diag. 0.30E+00   12.2     0.00001790     -5672.2610083319 -6.93E-05
  POISSON|   iter        pres error      nabs error        E_hartree    delta E
  POISSON|      1        0.2419E-09      0.9392E-07    1993.1366636690  0.18E-04
  POISSON| Poisson solver converged in 1 iteration. 
    39 Broy./Diag. 0.30E+00   12.3     0.00001215     -5672.2608393616  1.69E-04
  POISSON|   iter        pres error      nabs error        E_hartree    delta E
  POISSON|      1        0.5586E-09      0.1041E-06    1993.1366808031  0.17E-04
  POISSON| Poisson solver converged in 1 iteration. 
    40 Broy./Diag. 0.30E+00   12.2     0.00000932     -5672.2608324808  6.88E-06
  POISSON|   iter        pres error      nabs error        E_hartree    delta E
  POISSON|      1        0.1516E-08      0.7735E-07    1993.1366933131  0.13E-04
  POISSON| Poisson solver converged in 1 iteration. 
    41 Broy./Diag. 0.30E+00   12.1     0.00000921     -5672.2608601591 -2.77E-05
  POISSON|   iter        pres error      nabs error        E_hartree    delta E
  POISSON|      1        0.2221E-09      0.8402E-07    1993.1366904953 -0.28E-05
  POISSON| Poisson solver converged in 1 iteration. 
    42 Broy./Diag. 0.30E+00   12.1     0.00000678     -5672.2607430573  1.17E-04
  POISSON|   iter        pres error      nabs error        E_hartree    delta E
  POISSON|      1        0.8004E-09      0.7171E-07    1993.1366797355 -0.11E-04
  POISSON| Poisson solver converged in 1 iteration. 
    43 Broy./Diag. 0.30E+00   12.2     0.00000617     -5672.2608061914 -6.31E-05
  POISSON|   iter        pres error      nabs error        E_hartree    delta E
  POISSON|      1        0.6136E-09      0.5450E-07    1993.1366677617 -0.12E-04
  POISSON| Poisson solver converged in 1 iteration. 
    44 Broy./Diag. 0.30E+00   12.1     0.00000682     -5672.2608360592 -2.99E-05
  POISSON|   iter        pres error      nabs error        E_hartree    delta E
  POISSON|      1        0.7940E-09      0.7921E-07    1993.1366516713 -0.16E-04
  POISSON| Poisson solver converged in 1 iteration. 
    45 Broy./Diag. 0.30E+00   12.1     0.00000613     -5672.2607933631  4.27E-05
  POISSON|   iter        pres error      nabs error        E_hartree    delta E
  POISSON|      1        0.7476E-08      0.3356E-07    1993.1366569681  0.53E-05
  POISSON| Poisson solver converged in 1 iteration. 
    46 Broy./Diag. 0.30E+00   12.2     0.00001736     -5672.2608604642 -6.71E-05
  POISSON|   iter        pres error      nabs error        E_hartree    delta E
  POISSON|      1        0.7608E-08      0.6779E-07    1993.1366426032 -0.14E-04
  POISSON| Poisson solver converged in 1 iteration. 
    47 Broy./Diag. 0.30E+00   12.2     0.00001725     -5672.2607948318  6.56E-05
  POISSON|   iter        pres error      nabs error        E_hartree    delta E
  POISSON|      1        0.1469E-08      0.4380E-07    1993.1366374031 -0.52E-05
  POISSON| Poisson solver converged in 1 iteration. 
    48 Broy./Diag. 0.30E+00   12.2     0.00000653     -5672.2608346657 -3.98E-05
  POISSON|   iter        pres error      nabs error        E_hartree    delta E
  POISSON|      1        0.6030E-09      0.2052E-07    1993.1366380927  0.69E-06
  POISSON| Poisson solver converged in 1 iteration. 
    49 Broy./Diag. 0.30E+00   12.1     0.00000398     -5672.2608478752 -1.32E-05
  POISSON|   iter        pres error      nabs error        E_hartree    delta E
  POISSON|      1        0.5049E-09      0.4448E-07    1993.1366389534  0.86E-06
  POISSON| Poisson solver converged in 1 iteration. 
    50 Broy./Diag. 0.30E+00   12.1     0.00000360     -5672.2608276522  2.02E-05
  POISSON|   iter        pres error      nabs error        E_hartree    delta E
  POISSON|      1        0.1021E-09      0.3442E-07    1993.1366400476  0.11E-05
  POISSON| Poisson solver converged in 1 iteration. 
    51 Broy./Diag. 0.30E+00   12.2     0.00000275     -5672.2608195462  8.11E-06
  POISSON|   iter        pres error      nabs error        E_hartree    delta E
  POISSON|      1        0.4316E-10      0.2985E-07    1993.1366446829  0.46E-05
  POISSON| Poisson solver converged in 1 iteration. 
    52 Broy./Diag. 0.30E+00   12.1     0.00000232     -5672.2608284273 -8.88E-06
  POISSON|   iter        pres error      nabs error        E_hartree    delta E
  POISSON|      1        0.3156E-09      0.1949E-07    1993.1366484246  0.37E-05
  POISSON| Poisson solver converged in 1 iteration. 
    53 Broy./Diag. 0.30E+00   12.2     0.00000208     -5672.2608031384  2.53E-05
  POISSON|   iter        pres error      nabs error        E_hartree    delta E
  POISSON|      1        0.9891E-11      0.2552E-07    1993.1366554766  0.71E-05
  POISSON| Poisson solver converged in 1 iteration. 
    54 Broy./Diag. 0.30E+00   12.2     0.00000154     -5672.2608099303 -6.79E-06
  POISSON|   iter        pres error      nabs error        E_hartree    delta E
  POISSON|      1        0.1494E-09      0.2224E-07    1993.1366593749  0.39E-05
  POISSON| Poisson solver converged in 1 iteration. 
    55 Broy./Diag. 0.30E+00   12.2     0.00000165     -5672.2608042324  5.70E-06
  POISSON|   iter        pres error      nabs error        E_hartree    delta E
  POISSON|      1        0.5032E-09      0.7774E-08    1993.1366589499 -0.42E-06
  POISSON| Poisson solver converged in 1 iteration. 
    56 Broy./Diag. 0.30E+00   12.2     0.00000221     -5672.2607906546  1.36E-05
  POISSON|   iter        pres error      nabs error        E_hartree    delta E
  POISSON|      1        0.5132E-09      0.1231E-07    1993.1366619914  0.30E-05
  POISSON| Poisson solver converged in 1 iteration. 
    57 Broy./Diag. 0.30E+00   12.2     0.00000187     -5672.2608200267 -2.94E-05
  POISSON|   iter        pres error      nabs error        E_hartree    delta E
  POISSON|      1        0.3122E-09      0.1670E-07    1993.1366612159 -0.78E-06
  POISSON| Poisson solver converged in 1 iteration. 
    58 Broy./Diag. 0.30E+00   12.1     0.00000086     -5672.2608039757  1.61E-05

  *** SCF run converged in    58 steps ***


  Electronic density on regular grids:      -2159.9999999992        0.0000000008
  Core density on regular grids:             2159.9999999995       -0.0000000005
  Total charge density on r-space grids:        0.0000000003
  Total charge density g-space grids:           0.0000000003

  Overlap energy of the core charge distribution:               0.00003162187786
  Self energy of the core charge distribution:              -9891.63555570741482
  Core Hamiltonian energy:                                   3201.94744648457163
  Hartree energy:                                            1993.13666121585561
  Electric enthalpy:                                         1993.12968106897301
  Exchange-correlation energy:                               -970.97721951872245
  Dispersion energy:                                           -4.69140386752292
  Electronic entropic energy:                                  -0.03378403654058
  Fermi energy:                                                -0.19010362173669

  Total energy:                                             -5672.26080397570331

 The electron density is written in cube file format to the file:

 cp2k-ELECTRON_DENSITY-1_0.cube

 !-----------------------------------------------------------------------------!
                     Mulliken Population Analysis

 #  Atom  Element  Kind  Atomic population                           Net charge
       1     Pt       1         10.069368                             -0.069368
       2     Pt       1         10.065363                             -0.065363
       3     Pt       1         10.039586                             -0.039586
       4     Pt       1         10.040103                             -0.040103
       5     Pt       1         10.051211                             -0.051211
       6     Pt       1         10.060434                             -0.060434
       7     Pt       1         10.039026                             -0.039026
       8     Pt       1         10.052957                             -0.052957
       9     Pt       1         10.062476                             -0.062476
      10     Pt       1         10.050903                             -0.050903
      11     Pt       1         10.052817                             -0.052817
      12     Pt       1         10.048130                             -0.048130
      13     Pt       1         10.035337                             -0.035337
      14     Pt       1         10.054674                             -0.054674
      15     Pt       1         10.036516                             -0.036516
      16     Pt       1         10.060649                             -0.060649
      17     Pt       1         10.057430                             -0.057430
      18     Pt       1         10.029538                             -0.029538
      19     Pt       1         10.040113                             -0.040113
      20     Pt       1         10.041354                             -0.041354
      21     Pt       1         10.048656                             -0.048656
      22     Pt       1         10.050028                             -0.050028
      23     Pt       1         10.053116                             -0.053116
      24     Pt       1         10.047326                             -0.047326
      25     Pt       1         10.028943                             -0.028943
      26     Pt       1         10.017338                             -0.017338
      27     Pt       1         10.040330                             -0.040330
      28     Pt       1         10.041000                             -0.041000
      29     Pt       1         10.036140                             -0.036140
      30     Pt       1         10.058046                             -0.058046
      31     Pt       1         10.052392                             -0.052392
      32     Pt       1         10.052096                             -0.052096
      33     Pt       1         10.052328                             -0.052328
      34     Pt       1         10.063995                             -0.063995
      35     Pt       1         10.056048                             -0.056048
      36     Pt       1         10.042987                             -0.042987
      37     Pt       1          9.975830                              0.024170
      38     Pt       1          9.995262                              0.004738
      39     Pt       1          9.990381                              0.009619
      40     Pt       1          9.973719                              0.026281
[...]
    191      1      Pt          0.00278542    -0.00905295    -0.00403088
    192      1      Pt         -0.00155289    -0.00199330    -0.00792210
    193      1      Pt         -0.00964502     0.00053145    -0.00906403
    194      1      Pt          0.00680137    -0.01737074     0.00845896
    195      1      Pt          0.01214348    -0.00030529     0.00096218
    196      1      Pt         -0.00743596     0.00406655    -0.01070513
    197      1      Pt          0.00511623    -0.01235853    -0.00188451
    198      1      Pt         -0.00835624     0.00622628    -0.00291288
    199      1      Pt         -0.00546421     0.01668751     0.00917154
    200      1      Pt         -0.00687006     0.00236681    -0.00628175
    201      1      Pt         -0.00549561     0.00239940     0.00223838
    202      1      Pt          0.00789341     0.01578147     0.01205575
    203      1      Pt          0.00441257    -0.00569453    -0.00379694
    204      1      Pt         -0.00136861    -0.01815275     0.00047812
    205      1      Pt          0.00201194    -0.01754262     0.01819877
    206      1      Pt          0.00142742     0.00801185    -0.00885170
    207      1      Pt         -0.00193579    -0.00547492     0.00018094
    208      1      Pt          0.00094922    -0.00049087     0.00267032
    209      1      Pt         -0.01364609     0.00309355     0.00369448
    210      1      Pt          0.00368149     0.00884180     0.00574867
    211      1      Pt          0.00302812    -0.00697038     0.01031344
    212      1      Pt          0.00700560    -0.01476211    -0.01212649
    213      1      Pt         -0.00024946    -0.01509281    -0.01559203
    214      1      Pt         -0.00317065    -0.00899652     0.00437037
    215      1      Pt          0.00077869    -0.00644064    -0.01800697
    216      1      Pt         -0.00795786    -0.00227935    -0.00088285
 SUM OF ATOMIC FORCES          -0.00001639     0.00003207    -0.00005753     0.00006787

 -------------------------------------------------------------------------------
 -                                                                             -
 -                                DBCSR STATISTICS                             -
 -                                                                             -
 -------------------------------------------------------------------------------
 COUNTER                                    TOTAL       BLAS       SMM       ACC
 flops    20 x    12 x    20            447897600       0.0%    100.0%      0.0%
 flops    20 x    32 x    20          58525286400       0.0%    100.0%      0.0%
 flops    20 x    20 x   204         229485312000       0.0%    100.0%      0.0%
 flops    20 x    20 x   224         251983872000       0.0%    100.0%      0.0%
 flops    20 x    20 x   192        1295917056000       0.0%    100.0%      0.0%
 flops inhomo. stacks                           0       0.0%      0.0%      0.0%
 flops total                         1.836359E+12       0.0%    100.0%      0.0%
 flops max/rank                     58.935245E+09       0.0%    100.0%      0.0%
 matmuls inhomo. stacks                         0       0.0%      0.0%      0.0%
 matmuls total                           13582080       0.0%    100.0%      0.0%
 number of processed stacks                 17792       0.0%    100.0%      0.0%
 average stack size                                     0.0     763.4       0.0
 marketing flops                     2.612325E+12
 -------------------------------------------------------------------------------
 # multiplications                             61
 max memory usage/rank               1.815634E+09
 # max total images/rank                        2
 # max 3D layers                                1
 # MPI messages exchanged                   25376
 MPI messages size (bytes):
  total size                        33.971790E+09
  min size                         829.440000E+03
  max size                           4.665600E+06
  average size                       1.338737E+06
 MPI breakdown and total messages size (bytes):
             size <=      128                   0                        0
       128 < size <=     8192                   0                        0
      8192 < size <=    32768                   0                        0
     32768 < size <=   131072                   0                        0
    131072 < size <=  4194304               25152              32926694400
   4194304 < size <= 16777216                 224               1045094400
  16777216 < size                               0                        0
 -------------------------------------------------------------------------------

 *** WARNING in dbcsr_mm.F:290 :: Using a non-square number of MPI ranks ***
 *** might lead to poor performance. Used ranks: 32 Suggested: 36 64     ***

 -------------------------------------------------------------------------------
 -                                                                             -
 -                      DBCSR MESSAGE PASSING PERFORMANCE                      -
 -                                                                             -
 -------------------------------------------------------------------------------
 ROUTINE             CALLS      AVE VOLUME [Bytes]
 MP_Bcast                6                     12.
 MP_Allreduce          450                      9.
 MP_Alltoall          1689                1274429.
 MP_ISend             1952                 579393.
 MP_IRecv             1952                 562428.
 -------------------------------------------------------------------------------

 -------------------------------------------------------------------------------
 -                                                                             -
 -                                DBM STATISTICS                               -
 -                                                                             -
 -------------------------------------------------------------------------------
    M  x    N  x    K                                          COUNT     PERCENT
 -------------------------------------------------------------------------------

 -------------------------------------------------------------------------------
 -                                                                             -
 -                                GRID STATISTICS                              -
 -                                                                             -
 -------------------------------------------------------------------------------
 LP    KERNEL             BACKEND                              COUNT     PERCENT
 4     collocate general  REF                               20077464      49.97%
 4     integrate general  REF                               19737168      49.12%
 5     integrate general  REF                                 340296       0.85%
 0     collocate general  REF                                  13824       0.03%
 0     integrate general  REF                                   6912       0.02%
 1     integrate general  REF                                   6912       0.02%
 -------------------------------------------------------------------------------

 MEMORY| Estimated peak process memory [MiB]                                2138

 -------------------------------------------------------------------------------
 ----                             MULTIGRID INFO                            ----
 -------------------------------------------------------------------------------
 count for grid        1:          17554          cutoff [a.u.]          200.00
 count for grid        2:         177523          cutoff [a.u.]           66.67
 count for grid        3:         109610          cutoff [a.u.]           22.22
 count for grid        4:         155225          cutoff [a.u.]            7.41
 total gridlevel count  :         459912

 -------------------------------------------------------------------------------
 -                                                                             -
 -                         MESSAGE PASSING PERFORMANCE                         -
 -                                                                             -
 -------------------------------------------------------------------------------

 ROUTINE             CALLS      AVE VOLUME [Bytes]
 MP_Group                4
 MP_Bcast             1760                 165463.
 MP_Allreduce         1524                   1657.
 MP_Sync                64
 MP_Alltoall          2885               49343658.
 MP_SendRecv           124                  14958.
 MP_ISendRecv         7316                 214800.
 MP_Wait             17750
 MP_comm_split           1
 MP_ISend             9356                 715622.
 MP_IRecv             9356                 715622.
 MP_Recv               144                1105920.
 MP_Write_All            3                4213860.
 -------------------------------------------------------------------------------


 -------------------------------------------------------------------------------
 -                                                                             -
 -                           R E F E R E N C E S                               -
 -                                                                             -
 -------------------------------------------------------------------------------
 
 CP2K version 2022.1, the CP2K developers group (2022).
 CP2K is freely available from https://www.cp2k.org/ .

 Kuehne,Thomas D.; Iannuzzi,Marcella; Del Ben,Mauro;
 Rybkin,Vladimir V.; Seewald,Patrick; Stein,Frederick; Laino,Teodoro;
 Khaliullin,Rustam Z.; Schuett,Ole; Schiffmann,Florian; Golze,Dorothea;
 Wilhelm,Jan; Chulkov,Sergey; Bani-Hashemian,Mohammad Hossein;
 Weber,Valery; Borstnik,Urban; Taillefumier,Mathieu;
 Jakobovits,Alice Shoshana; Lazzaro,Alfio; Pabst,Hans; Mueller,Tiziano;
 Schade,Robert; Guidon,Manuel; Andermatt,Samuel; Holmberg,Nico;
 Schenter,Gregory K.; Hehn,Anna; Bussy,Augustin; Belleflamme,Fabian;
 Tabacchi,Gloria; Gloess,Andreas; Lass,Michael; Bethune,Iain;
 Mundy,Christopher J.; Plessl,Christian; Watkins,Matt;
 VandeVondele,Joost; Krack,Matthias; Hutter,Juerg. 
 The Journal of Chemical Physics, 152 (19), (2020). 
 CP2K: An electronic structure and molecular dynamics software package -
 Quickstep: Efficient and accurate electronic structure calculations.
 https://doi.org/10.1063/5.0007045

 Goerigk, Lars; Hansen, Andreas; Bauer, Christoph; Ehrlich, Stephan;
 Najibi, Asim; Grimme, Stefan. , 19 (48), (2017). 
 A look at the density functional theory zoo with the advanced GMTKN55 database
 for general main group thermochemistry, kinetics and noncovalent interactions.
 https://doi.org/10.1039/C7CP04913G

 Bani-Hashemian, MH; Bruck, S; Luisier, M; VandeVondele, J. 
 JOURNAL OF CHEMICAL PHYSICS, 144 (4), 044113 (2016). 
 A generalized Poisson solver for first-principles device simulations.
 https://doi.org/10.1063/1.4940796

 Schuett, Ole; Messmer, Peter; Hutter, Juerg; VandeVondele, Joost. 
 Electronic Structure Calculations on Graphics Processing Units, John
 Wiley & Sons, Ltd, 173-190 (2016). 
 GPU-Accelerated Sparse Matrix-Matrix Multiplication for
 Linear Scaling Density Functional Theory.
 https://doi.org/10.1002/9781118670712.ch8

 Heinecke, A; Henry, G; Hutchinson, M; Pabst, H. 
 Proceedings of Intl. Supercomputing Conference, 981-991 (2016). 
 LIBXSMM: Accelerating Small Matrix Multiplications
 by Runtime Code Generation.
 https://doi.org/10.1109/SC.2016.83

 Borstnik, U; VandeVondele, J; Weber, V; Hutter, J. 
 PARALLEL COMPUTING, 40 (5-6), 47-58 (2014). 
 Sparse matrix multiplication: The distributed block-compressed sparse
 row library.
 https://doi.org/10.1016/j.parco.2014.03.012

 Hutter, J; Iannuzzi, M; Schiffmann, F; VandeVondele, J. 
 WIREs Comput Mol Sci., 4 (1), 15-25 (2014). 
 CP2K: atomistic simulations of condensed matter systems.
 https://doi.org/10.1002/wcms.1159

 Marek, A; Blum, V; Johanni, R; Havu, V; Lang, B; Auckenthaler, T;
 Heinecke, A; Bungartz, H; Lederer, H. 
 Journal of Physics: Condensed Matter, 26 (21), (2014). 
 The ELPA library: scalable parallel eigenvalue solutions for
 electronic structure
 theory and computational science.
 https://doi.org/10.1088/0953-8984/26/21/213201

 Grimme, S; Ehrlich, S; Goerigk, L. 
 JOURNAL OF COMPUTATIONAL CHEMISTRY, 32, 1456 (2011). 
 Effect of the damping function in dispersion corrected density functional theory.
 https://doi.org/10.1002/jcc.21759

 Grimme, S; Antony, J; Ehrlich, S; Krieg, H. 
 JOURNAL OF CHEMICAL PHYSICS, 132 (15), 154104 (2010). 
 A consistent and accurate ab initio parametrization of density
 functional dispersion correction (DFT-D) for the 94 elements H-Pu.
 https://doi.org/10.1063/1.3382344

 VandeVondele, J; Hutter, J. 
 JOURNAL OF CHEMICAL PHYSICS, 127 (11), 114105 (2007). 
 Gaussian basis sets for accurate calculations on molecular systems in
 gas and condensed phases.
 https://doi.org/10.1063/1.2770708

 Krack, M. 
 THEORETICAL CHEMISTRY ACCOUNTS, 114 (1-3), 145-152 (2005). 
 Pseudopotentials for H to Kr optimized for gradient-corrected
 exchange-correlation functionals.
 https://doi.org/10.1007/s00214-005-0655-y

 VandeVondele, J; Krack, M; Mohamed, F; Parrinello, M; Chassaing, T;
 Hutter, J. COMPUTER PHYSICS COMMUNICATIONS, 167 (2), 103-128 (2005). 
 QUICKSTEP: Fast and accurate density functional calculations using a
 mixed Gaussian and plane waves approach.
 https://doi.org/10.1016/j.cpc.2004.12.014

 Frigo, M; Johnson, SG. 
 PROCEEDINGS OF THE IEEE, 93 (2), 216-231 (2005). 
 The design and implementation of FFTW3.
 https://doi.org/10.1109/JPROC.2004.840301

 Hartwigsen, C; Goedecker, S; Hutter, J. 
 PHYSICAL REVIEW B, 58 (7), 3641-3662 (1998). 
 Relativistic separable dual-space Gaussian pseudopotentials from H to Rn.
 https://doi.org/10.1103/PhysRevB.58.3641

 Lippert, G; Hutter, J; Parrinello, M. 
 MOLECULAR PHYSICS, 92 (3), 477-487 (1997). 
 A hybrid Gaussian and plane wave density functional scheme.
 https://doi.org/10.1080/002689797170220

 Perdew, JP; Burke, K; Ernzerhof, M. 
 PHYSICAL REVIEW LETTERS, 77 (18), 3865-3868 (1996). 
 Generalized gradient approximation made simple.
 https://doi.org/10.1103/PhysRevLett.77.3865

 Goedecker, S; Teter, M; Hutter, J. 
 PHYSICAL REVIEW B, 54 (3), 1703-1710 (1996). 
 Separable dual-space Gaussian pseudopotentials.
 https://doi.org/10.1103/PhysRevB.54.1703


 -------------------------------------------------------------------------------
 -                                                                             -
 -                                T I M I N G                                  -
 -                                                                             -
 -------------------------------------------------------------------------------
 SUBROUTINE                       CALLS  ASD         SELF TIME        TOTAL TIME
                                MAXIMUM       AVERAGE  MAXIMUM  AVERAGE  MAXIMUM
 CP2K                                 1  1.0    0.018    0.036  766.461  766.462
 qs_forces                            1  2.0    0.001    0.001  766.015  766.016
 qs_energies                          1  3.0    0.000    0.000  751.817  751.820
 scf_env_do_scf                       1  4.0    0.000    0.000  741.397  741.484
 scf_env_do_scf_inner_loop           58  5.0    0.003    0.006  741.394  741.481
 rebuild_ks_matrix                   59  6.9    0.000    0.000  474.428  474.456
 qs_ks_build_kohn_sham_matrix        59  7.9    0.009    0.011  474.428  474.456
 qs_ks_update_qs_env                 58  6.0    0.000    0.000  464.677  464.704
 pw_transfer                       2752 12.1    0.213    0.329  266.606  268.969
 fft_wrap_pw1pw2                   2752 13.1    0.030    0.037  266.393  268.641
 fft_wrap_pw1pw2_200               2398 14.4   22.365   25.522  263.687  265.777
 pw_poisson_solve                    59  8.9    0.017    0.025  228.048  228.106
 implicit_poisson_solver_mixed_      59  9.9    6.089    6.573  214.405  214.527
 fft3d_ps                          2752 15.1  113.025  122.469  198.982  202.085
 qs_rho_update_rho_low               59  6.0    0.000    0.001  178.918  178.933
 calculate_rho_elec                  59  7.0    0.323    0.366  178.917  178.932
 sum_up_and_integrate                59  8.9    0.920    1.000  168.716  168.759
 integrate_v_rspace                  59  9.9    0.002    0.002  167.796  167.908
 grid_collocate_task_list            59  8.0   79.047  154.721   79.047  154.721
 derive_fft                         290 12.1    0.021    0.024  150.831  152.245
 grid_integrate_task_list            59 10.9   73.307  144.093   73.307  144.093
 rs_pw_transfer                     476 10.4    0.006    0.006   99.094  123.887
 apply_P_operator                   231 11.2    2.155    2.469  122.440  123.419
 density_rs2pw                       59  8.0    0.004    0.004   98.262  123.130
 mp_waitany                        9356 12.4   82.518  107.154   82.518  107.154
 rs_pw_transfer_RS2PW_200            61 10.0    3.439    4.063   81.088  105.880
 mp_alltoall_d11v                   842 10.3   72.585   95.702   72.585   95.702
 rs_gather_matrices                  59 10.9    0.234    0.269   71.576   94.703
 qs_scf_new_mos                      58  6.0    0.006    0.014   72.866   72.977
 qs_vxc_create                       59  8.9    0.002    0.002   69.806   70.691
 xc_vxc_pw_create                    59  9.9    1.582    1.986   69.804   70.689
 eigensolver                         58  7.0    0.005    0.008   65.684   65.751
 x_to_yz                           1724 16.3   37.945   44.863   59.030   62.916
 mp_alltoall_z22v                  2752 17.1   37.388   58.556   37.388   58.556
 xc_pw_derive                       354 11.9    0.006    0.007   47.159   49.766
 apply_poisson_operator_fft          59 10.9    0.001    0.001   45.006   45.266
 cp_fm_diag_elpa                     59  8.0    0.001    0.001   41.709   41.822
 cp_fm_diag_elpa_base                59  9.0   40.838   40.950   41.616   41.671
 yz_to_x                           1028 15.8   10.558   11.721   26.861   38.668
 xc_rho_set_and_dset_create          59 10.9    0.672    0.819   36.440   37.245
 apply_inv_laplace_operator_fft     147 11.6    1.210    1.315   32.664   33.703
 pw_scatter_p                      1724 15.3   29.249   32.837   29.249   32.837
 xc_pw_divergence                    59 10.9    0.003    0.004   30.828   32.477
 ps_implicit_compute_veps            59 10.9    0.717    0.857   31.267   32.049
 gspace_mixing                       57  6.0    0.312    0.334   27.541   27.541
 pw_derive                         1224 13.1   23.320   24.921   23.320   24.921
 cp_fm_triangular_multiply          174  8.0   23.280   23.468   23.280   23.468
 potential_pw2rs                     59 10.9    0.048    0.054   22.901   22.995
 ps_implicit_compute_error_fft       86 10.9    1.585    1.699   21.347   22.957
 broyden_mixing                      57  7.0   20.091   20.382   20.582   20.618
 pw_gather_p                       1028 14.8   15.505   16.218   15.505   16.218
 -------------------------------------------------------------------------------

 The number of warnings for this run is : 1
 
 -------------------------------------------------------------------------------
  **** **** ******  **  PROGRAM ENDED AT                 2023-12-02 20:55:39.410
 ***** ** ***  *** **   PROGRAM RAN ON                                     cu042
 **    ****   ******    PROGRAM RAN BY                                     jxzhu
 ***** **    ** ** **   PROGRAM PROCESS ID                                  8215
  **** **  *******  **  PROGRAM STOPPED IN /public/home/jxzhu/tmp_calc/04c0855f9
                                           8753fac23fde4df51ba20f3741a9e9a/calc/
                                           task.000.000004
