 DBCSR| CPU Multiplication driver                                           XSMM
 DBCSR| Multrec recursion limit                                              512
 DBCSR| Multiplication stack size                                           1000
 DBCSR| Maximum elements for images                                    UNLIMITED
 DBCSR| Multiplicative factor virtual images                                   1
 DBCSR| Use multiplication densification                                       T
 DBCSR| Multiplication size stacks                                             3
 DBCSR| Use memory pool for CPU allocation                                     F
 DBCSR| Number of 3D layers                                               SINGLE
 DBCSR| Use MPI memory allocation                                              F
 DBCSR| Use RMA algorithm                                                      F
 DBCSR| Use Communication thread                                               T
 DBCSR| Communication thread load                                             87
 DBCSR| MPI: My node id                                                        0
 DBCSR| MPI: Number of nodes                                                 128
 DBCSR| OMP: Current number of threads                                         1
 DBCSR| OMP: Max number of threads                                             1
 DBCSR| Split modifier for TAS multiplication algorithm                  1.0E+00


  **** **** ******  **  PROGRAM STARTED AT               2023-12-02 13:53:31.736
 ***** ** ***  *** **   PROGRAM STARTED ON                                 cu098
 **    ****   ******    PROGRAM STARTED BY                                 jxzhu
 ***** **    ** ** **   PROGRAM PROCESS ID                                  8139
  **** **  *******  **  PROGRAM STARTED IN /public/home/jxzhu/tmp_calc/9c778f859
                                           3eb8265636f214480dea28f4ea0088e/calc/
                                           001600.000/search_lo.000003

 CP2K| version string:                                       CP2K version 2022.1
 CP2K| source code revision number:                                  git:2caeb6f
 CP2K| cp2kflags: omp libint fftw3 libxc elpa parallel mpi3 scalapack cosma xsmm
 CP2K|             plumed2 spglib mkl sirius libvori libbqb
 CP2K| is freely available from                            https://www.cp2k.org/
 CP2K| Program compiled at                           Mon Jul 3 17:37:06 CST 2023
 CP2K| Program compiled on                                                 mu003
 CP2K| Program compiled for                                                local
 CP2K| Data directory path                             /public/home/jxzhu/basis/
 CP2K| Input file name                                                 input.inp
 
 GLOBAL| Force Environment number                                              1
 GLOBAL| Basis set file name                                        BASIS_MOLOPT
 GLOBAL| Potential file name                                      GTH_POTENTIALS
 GLOBAL| MM Potential file name                                     MM_POTENTIAL
 GLOBAL| Coordinate file name                                          coord.xyz
 GLOBAL| Method name                                                        CP2K
 GLOBAL| Project name                                                       cp2k
 GLOBAL| Run type                                                   ENERGY_FORCE
 GLOBAL| FFT library                                                       FFTW3
 GLOBAL| Diagonalization library                                            ELPA
 GLOBAL| Minimum number of eigenvectors for ELPA usage                        16
 GLOBAL| Orthonormality check for eigenvectors                          DISABLED
 GLOBAL| Matrix multiplication library                                     COSMA
 GLOBAL| All-to-all communication in single precision                          F
 GLOBAL| FFTs using library dependent lengths                                  T
 GLOBAL| Grid backend                                                       AUTO
 GLOBAL| Global print level                                               MEDIUM
 GLOBAL| MPI I/O enabled                                                       T
 GLOBAL| Total number of message passing processes                           128
 GLOBAL| Number of threads for this process                                    1
 GLOBAL| This output is from process                                           0
 GLOBAL| Stack size for threads created by OpenMP (OMP_STACKSIZE)        default
 GLOBAL| CPU model name                 Intel(R) Xeon(R) Gold 6338 CPU @ 2.00GHz
 GLOBAL| CPUID                                                              1003

 MEMORY| system memory details [Kb]
 MEMORY|                        rank 0           min           max       average
 MEMORY| MemTotal            263619172     263619172     263619172     263619172
 MEMORY| MemFree             223046300     223046300     223950144     223498120
 MEMORY| Buffers                    28            28          3320          1674
 MEMORY| Cached                1606108       1282512       1606108       1444310
 MEMORY| Slab                  1265752       1198172       1265752       1231962
 MEMORY| SReclaimable           224408        224408        249512        236960
 MEMORY| MemLikelyFree       224876844     224876844     225485488     225181064


 *** Fundamental physical constants (SI units) ***

 *** Literature: B. J. Mohr and B. N. Taylor,
 ***             CODATA recommended values of the fundamental physical
 ***             constants: 2006, Web Version 5.1
 ***             http://physics.nist.gov/constants

 Speed of light in vacuum [m/s]                             2.99792458000000E+08
 Magnetic constant or permeability of vacuum [N/A**2]       1.25663706143592E-06
 Electric constant or permittivity of vacuum [F/m]          8.85418781762039E-12
 Planck constant (h) [J*s]                                  6.62606896000000E-34
 Planck constant (h-bar) [J*s]                              1.05457162825177E-34
 Elementary charge [C]                                      1.60217648700000E-19
 Electron mass [kg]                                         9.10938215000000E-31
 Electron g factor [ ]                                     -2.00231930436220E+00
 Proton mass [kg]                                           1.67262163700000E-27
 Fine-structure constant                                    7.29735253760000E-03
 Rydberg constant [1/m]                                     1.09737315685270E+07
 Avogadro constant [1/mol]                                  6.02214179000000E+23
 Boltzmann constant [J/K]                                   1.38065040000000E-23
 Atomic mass unit [kg]                                      1.66053878200000E-27
 Bohr radius [m]                                            5.29177208590000E-11

 *** Conversion factors ***

 [u] -> [a.u.]                                              1.82288848426455E+03
 [Angstrom] -> [Bohr] = [a.u.]                              1.88972613288564E+00
 [a.u.] = [Bohr] -> [Angstrom]                              5.29177208590000E-01
 [a.u.] -> [s]                                              2.41888432650478E-17
 [a.u.] -> [fs]                                             2.41888432650478E-02
 [a.u.] -> [J]                                              4.35974393937059E-18
 [a.u.] -> [N]                                              8.23872205491840E-08
 [a.u.] -> [K]                                              3.15774647902944E+05
 [a.u.] -> [kJ/mol]                                         2.62549961709828E+03
 [a.u.] -> [kcal/mol]                                       6.27509468713739E+02
 [a.u.] -> [Pa]                                             2.94210107994716E+13
 [a.u.] -> [bar]                                            2.94210107994716E+08
 [a.u.] -> [atm]                                            2.90362800883016E+08
 [a.u.] -> [eV]                                             2.72113838565563E+01
 [a.u.] -> [Hz]                                             6.57968392072181E+15
 [a.u.] -> [1/cm] (wave numbers)                            2.19474631370540E+05
 [a.u./Bohr**2] -> [1/cm]                                   5.14048714338585E+03
 

 CELL_TOP| Volume [angstrom^3]:                                     17614.982639
 CELL_TOP| Vector a [angstrom    16.869     0.000     0.000   |a| =    16.869000
 CELL_TOP| Vector b [angstrom    -8.434    14.609     0.000   |b| =    16.869015
 CELL_TOP| Vector c [angstrom     0.000     0.000    71.478   |c| =    71.478000
 CELL_TOP| Angle (b,c), alpha [degree]:                                90.000000
 CELL_TOP| Angle (a,c), beta  [degree]:                                90.000000
 CELL_TOP| Angle (a,b), gamma [degree]:                               119.999970
 CELL_TOP| Numerically orthorhombic:                                          NO
 
 GENERATE|  Preliminary Number of Bonds generated:                             0
 GENERATE|  Achieved consistency in connectivity generation.

 CELL| Volume [angstrom^3]:                                         17614.982639
 CELL| Vector a [angstrom]:      16.869     0.000     0.000   |a| =    16.869000
 CELL| Vector b [angstrom]:      -8.434    14.609     0.000   |b| =    16.869015
 CELL| Vector c [angstrom]:       0.000     0.000    71.478   |c| =    71.478000
 CELL| Angle (b,c), alpha [degree]:                                    90.000000
 CELL| Angle (a,c), beta  [degree]:                                    90.000000
 CELL| Angle (a,b), gamma [degree]:                                   119.999970
 CELL| Numerically orthorhombic:                                              NO

 CELL_REF| Volume [angstrom^3]:                                     17614.982639
 CELL_REF| Vector a [angstrom    16.869     0.000     0.000   |a| =    16.869000
 CELL_REF| Vector b [angstrom    -8.434    14.609     0.000   |b| =    16.869015
 CELL_REF| Vector c [angstrom     0.000     0.000    71.478   |c| =    71.478000
 CELL_REF| Angle (b,c), alpha [degree]:                                90.000000
 CELL_REF| Angle (a,c), beta  [degree]:                                90.000000
 CELL_REF| Angle (a,b), gamma [degree]:                               119.999970
 CELL_REF| Numerically orthorhombic:                                          NO

 *******************************************************************************
 *******************************************************************************
 **                                                                           **
 **     #####                         ##              ##                      **
 **    ##   ##            ##          ##              ##                      **
 **   ##     ##                       ##            ######                    **
 **   ##     ##  ##   ##  ##   #####  ##  ##   ####   ##    #####    #####    **
 **   ##     ##  ##   ##  ##  ##      ## ##   ##      ##   ##   ##  ##   ##   **
 **   ##  ## ##  ##   ##  ##  ##      ####     ###    ##   ######   ######    **
 **    ##  ###   ##   ##  ##  ##      ## ##      ##   ##   ##       ##        **
 **     #######   #####   ##   #####  ##  ##  ####    ##    #####   ##        **
 **           ##                                                    ##        **
 **                                                                           **
 **                                                ... make the atoms dance   **
 **                                                                           **
 **            Copyright (C) by CP2K developers group (2000-2022)             **
 **                      J. Chem. Phys. 152, 194103 (2020)                    **
 **                                                                           **
 *******************************************************************************

 DFT| Spin restricted Kohn-Sham (RKS) calculation                            RKS
 DFT| Multiplicity                                                             1
 DFT| Number of spin states                                                    1
 DFT| Charge                                                                   0
 DFT| Self-interaction correction (SIC)                                       NO
 DFT| Cutoffs: density                                              1.000000E-10
 DFT|          gradient                                             1.000000E-10
 DFT|          tau                                                  1.000000E-10
 DFT|          cutoff_smoothing_range                               0.000000E+00
 DFT| XC density smoothing                                                  NONE
 DFT| XC derivatives                                                          PW

 FUNCTIONAL| PBE:
 FUNCTIONAL| J.P.Perdew, K.Burke, M.Ernzerhof, Phys. Rev. Letter, vol. 77, n 18,
 FUNCTIONAL|  pp. 3865-3868, (1996){spin unpolarized}                           

 vdW POTENTIAL|                                                   Pair Potential
 vdW POTENTIAL|          DFT-D3 (Version 3.1)
 vdW POTENTIAL|          Potential Form: S. Grimme et al, JCP 132: 154104 (2010)
 vdW POTENTIAL|          Zero Damping
 vdW POTENTIAL|          Cutoff Radius [Bohr]:                             20.00
 vdW POTENTIAL|          s6 Scaling Factor:                               1.0000
 vdW POTENTIAL|          sr6 Scaling Factor:                              1.2170
 vdW POTENTIAL|          s8 Scaling Factor:                               0.7220
 vdW POTENTIAL|          Cutoff for CN calculation:                   0.1000E-05

 QS| Method:                                                                 GPW
 QS| Density plane wave grid type                        NON-SPHERICAL FULLSPACE
 QS| Number of grid levels:                                                    4
 QS| Density cutoff [a.u.]:                                                200.0
 QS| Multi grid cutoff [a.u.]: 1) grid level                               200.0
 QS|                           2) grid level                                66.7
 QS|                           3) grid level                                22.2
 QS|                           4) grid level                                 7.4
 QS| Grid level progression factor:                                          3.0
 QS| Relative density cutoff [a.u.]:                                        20.0
 QS| Interaction thresholds: eps_pgf_orb:                                3.2E-07
 QS|                         eps_filter_matrix:                          0.0E+00
 QS|                         eps_core_charge:                            1.0E-15
 QS|                         eps_rho_gspace:                             1.0E-13
 QS|                         eps_rho_rspace:                             1.0E-13
 QS|                         eps_gvg_rspace:                             3.2E-07
 QS|                         eps_ppl:                                    1.0E-02
 QS|                         eps_ppnl:                                   3.2E-09


 ATOMIC KIND INFORMATION

  1. Atomic kind: O                                     Number of atoms:     100

     Orbital Basis Set                                        DZVP-MOLOPT-SR-GTH

       Number of orbital shell sets:                                           1
       Number of orbital shells:                                               5
       Number of primitive Cartesian functions:                                5
       Number of Cartesian basis functions:                                   14
       Number of spherical basis functions:                                   13
       Norm type:                                                              2

       Normalised Cartesian orbitals:

                        Set   Shell   Orbital            Exponent    Coefficient

                          1       1    2s               10.389228       0.396646
                                                         3.849621       0.208811
                                                         1.388401      -0.301641
                                                         0.496955      -0.274061
                                                         0.162492      -0.033677

                          1       2    3s               10.389228       0.303673
                                                         3.849621       0.240943
                                                         1.388401      -0.313066
                                                         0.496955      -0.043055
                                                         0.162492       0.213991

                          1       3    3px              10.389228      -1.530415
                                                         3.849621      -1.371928
                                                         1.388401      -0.761951
                                                         0.496955      -0.253695
                                                         0.162492      -0.035541
                          1       3    3py              10.389228      -1.530415
                                                         3.849621      -1.371928
                                                         1.388401      -0.761951
                                                         0.496955      -0.253695
                                                         0.162492      -0.035541
                          1       3    3pz              10.389228      -1.530415
                                                         3.849621      -1.371928
                                                         1.388401      -0.761951
                                                         0.496955      -0.253695
                                                         0.162492      -0.035541

                          1       4    4px              10.389228      -0.565392
                                                         3.849621      -0.038231
                                                         1.388401      -0.382373
                                                         0.496955       0.179070
                                                         0.162492       0.122714
                          1       4    4py              10.389228      -0.565392
                                                         3.849621      -0.038231
                                                         1.388401      -0.382373
                                                         0.496955       0.179070
                                                         0.162492       0.122714
                          1       4    4pz              10.389228      -0.565392
                                                         3.849621      -0.038231
                                                         1.388401      -0.382373
                                                         0.496955       0.179070
                                                         0.162492       0.122714

                          1       5    4dx2             10.389228       1.867377
                                                         3.849621       0.670994
                                                         1.388401       1.353441
                                                         0.496955       0.273538
                                                         0.162492       0.006620
                          1       5    4dxy             10.389228       3.234392
                                                         3.849621       1.162195
                                                         1.388401       2.344229
                                                         0.496955       0.473781
                                                         0.162492       0.011466
                          1       5    4dxz             10.389228       3.234392
                                                         3.849621       1.162195
                                                         1.388401       2.344229
                                                         0.496955       0.473781
                                                         0.162492       0.011466
                          1       5    4dy2             10.389228       1.867377
                                                         3.849621       0.670994
                                                         1.388401       1.353441
                                                         0.496955       0.273538
                                                         0.162492       0.006620
                          1       5    4dyz             10.389228       3.234392
                                                         3.849621       1.162195
                                                         1.388401       2.344229
                                                         0.496955       0.473781
                                                         0.162492       0.011466
                          1       5    4dz2             10.389228       1.867377
                                                         3.849621       0.670994
                                                         1.388401       1.353441
                                                         0.496955       0.273538
                                                         0.162492       0.006620

       Atomic covalent radius [Angstrom]:                                  0.730

       Atomic van der Waals radius [Angstrom]:                             1.520

     GTH Potential information for                                    GTH-PBE-q6

       Description:                       Goedecker-Teter-Hutter pseudopotential
                                           Goedecker et al., PRB 54, 1703 (1996)
                                          Hartwigsen et al., PRB 58, 3641 (1998)
                                                      Krack, TCA 114, 145 (2005)

       Gaussian exponent of the core charge distribution:               8.360253
       Electronic configuration (s p d ...):                               2   4

       Parameters of the local part of the GTH pseudopotential:

                          rloc        C1          C2          C3          C4
                        0.244554  -16.667215    2.487311

       Parameters of the non-local part of the GTH pseudopotential:

                   l      r(l)      h(i,j,l)

                   0    0.220956   18.337458
                   1    0.211332

  2. Atomic kind: H                                     Number of atoms:     200

     Orbital Basis Set                                        DZVP-MOLOPT-SR-GTH

       Number of orbital shell sets:                                           1
       Number of orbital shells:                                               3
       Number of primitive Cartesian functions:                                5
       Number of Cartesian basis functions:                                    5
       Number of spherical basis functions:                                    5
       Norm type:                                                              2

       Normalised Cartesian orbitals:

                        Set   Shell   Orbital            Exponent    Coefficient

                          1       1    2s               10.068468      -0.133023
                                                         2.680223      -0.177618
                                                         0.791502      -0.258419
                                                         0.239116      -0.107525
                                                         0.082193      -0.014019

                          1       2    3s               10.068468       0.344673
                                                         2.680223       1.819821
                                                         0.791502      -0.999069
                                                         0.239116       0.017430
                                                         0.082193       0.082660

                          1       3    3px              10.068468       0.155326
                                                         2.680223       0.367157
                                                         0.791502       0.311480
                                                         0.239116       0.080105
                                                         0.082193       0.033440
                          1       3    3py              10.068468       0.155326
                                                         2.680223       0.367157
                                                         0.791502       0.311480
                                                         0.239116       0.080105
                                                         0.082193       0.033440
                          1       3    3pz              10.068468       0.155326
                                                         2.680223       0.367157
                                                         0.791502       0.311480
                                                         0.239116       0.080105
                                                         0.082193       0.033440

       Atomic covalent radius [Angstrom]:                                  0.320

       Atomic van der Waals radius [Angstrom]:                             1.090

     GTH Potential information for                                    GTH-PBE-q1

       Description:                       Goedecker-Teter-Hutter pseudopotential
                                           Goedecker et al., PRB 54, 1703 (1996)
                                          Hartwigsen et al., PRB 58, 3641 (1998)
                                                      Krack, TCA 114, 145 (2005)

       Gaussian exponent of the core charge distribution:              12.500000
       Electronic configuration (s p d ...):                                   1

       Parameters of the local part of the GTH pseudopotential:

                          rloc        C1          C2          C3          C4
                        0.200000   -4.178900    0.724463

  3. Atomic kind: Pt                                    Number of atoms:     216

     Orbital Basis Set                      DZVP-A5-Q10-323-MOL-T1-DERIVED_SET-1

       Number of orbital shell sets:                                           1
       Number of orbital shells:                                               6
       Number of primitive Cartesian functions:                                5
       Number of Cartesian basis functions:                                   23
       Number of spherical basis functions:                                   20
       Norm type:                                                              2

       Normalised Cartesian orbitals:

                        Set   Shell   Orbital            Exponent    Coefficient

                          1       1    2s                2.521825       0.177473
                                                         1.453920      -0.063399
                                                         0.614053      -0.407089
                                                         0.232656       0.262254
                                                         0.074788       0.047371

                          1       2    3s                2.521825      -0.049056
                                                         1.453920       0.044904
                                                         0.614053      -0.009756
                                                         0.232656      -0.144709
                                                         0.074788       0.144085

                          1       3    3px               2.521825      -0.317572
                                                         1.453920       0.534826
                                                         0.614053      -0.489458
                                                         0.232656       0.245631
                                                         0.074788       0.018221
                          1       3    3py               2.521825      -0.317572
                                                         1.453920       0.534826
                                                         0.614053      -0.489458
                                                         0.232656       0.245631
                                                         0.074788       0.018221
                          1       3    3pz               2.521825      -0.317572
                                                         1.453920       0.534826
                                                         0.614053      -0.489458
                                                         0.232656       0.245631
                                                         0.074788       0.018221

                          1       4    4dx2              2.521825       3.008522
                                                         1.453920      -1.224251
                                                         0.614053       0.225691
                                                         0.232656       0.125144
                                                         0.074788      -0.015348
                          1       4    4dxy              2.521825       5.210912
                                                         1.453920      -2.120465
                                                         0.614053       0.390909
                                                         0.232656       0.216756
                                                         0.074788      -0.026584
                          1       4    4dxz              2.521825       5.210912
                                                         1.453920      -2.120465
                                                         0.614053       0.390909
                                                         0.232656       0.216756
                                                         0.074788      -0.026584
                          1       4    4dy2              2.521825       3.008522
                                                         1.453920      -1.224251
                                                         0.614053       0.225691
                                                         0.232656       0.125144
                                                         0.074788      -0.015348
                          1       4    4dyz              2.521825       5.210912
                                                         1.453920      -2.120465
                                                         0.614053       0.390909
                                                         0.232656       0.216756
                                                         0.074788      -0.026584
                          1       4    4dz2              2.521825       3.008522
                                                         1.453920      -1.224251
                                                         0.614053       0.225691
                                                         0.232656       0.125144
                                                         0.074788      -0.015348

                          1       5    5dx2              2.521825       0.698026
                                                         1.453920      -1.511486
                                                         0.614053      -0.335394
                                                         0.232656      -0.025564
                                                         0.074788      -0.002699
                          1       5    5dxy              2.521825       1.209017
                                                         1.453920      -2.617970
                                                         0.614053      -0.580920
                                                         0.232656      -0.044277
                                                         0.074788      -0.004674
                          1       5    5dxz              2.521825       1.209017
                                                         1.453920      -2.617970
                                                         0.614053      -0.580920
                                                         0.232656      -0.044277
                                                         0.074788      -0.004674
                          1       5    5dy2              2.521825       0.698026
                                                         1.453920      -1.511486
                                                         0.614053      -0.335394
                                                         0.232656      -0.025564
                                                         0.074788      -0.002699
                          1       5    5dyz              2.521825       1.209017
                                                         1.453920      -2.617970
                                                         0.614053      -0.580920
                                                         0.232656      -0.044277
                                                         0.074788      -0.004674
                          1       5    5dz2              2.521825       0.698026
                                                         1.453920      -1.511486
                                                         0.614053      -0.335394
                                                         0.232656      -0.025564
                                                         0.074788      -0.002699

                          1       6    6dx2              2.521825       0.831079
                                                         1.453920      -0.709226
                                                         0.614053      -0.137351
                                                         0.232656       0.068642
                                                         0.074788       0.011745
                          1       6    6dxy              2.521825       1.439472
                                                         1.453920      -1.228415
                                                         0.614053      -0.237899
                                                         0.232656       0.118891
                                                         0.074788       0.020343
                          1       6    6dxz              2.521825       1.439472
                                                         1.453920      -1.228415
                                                         0.614053      -0.237899
                                                         0.232656       0.118891
                                                         0.074788       0.020343
                          1       6    6dy2              2.521825       0.831079
                                                         1.453920      -0.709226
                                                         0.614053      -0.137351
                                                         0.232656       0.068642
                                                         0.074788       0.011745
                          1       6    6dyz              2.521825       1.439472
                                                         1.453920      -1.228415
                                                         0.614053      -0.237899
                                                         0.232656       0.118891
                                                         0.074788       0.020343
                          1       6    6dz2              2.521825       0.831079
                                                         1.453920      -0.709226
                                                         0.614053      -0.137351
                                                         0.232656       0.068642
                                                         0.074788       0.011745

       Atomic covalent radius [Angstrom]:                                  1.300

       Atomic van der Waals radius [Angstrom]:                             1.750

     GTH Potential information for                                   GTH-PBE-q10

       Description:                       Goedecker-Teter-Hutter pseudopotential
                                           Goedecker et al., PRB 54, 1703 (1996)
                                          Hartwigsen et al., PRB 58, 3641 (1998)
                                                      Krack, TCA 114, 145 (2005)

       Gaussian exponent of the core charge distribution:               1.317676
       Electronic configuration (s p d ...):                           1   0   9

       Parameters of the local part of the GTH pseudopotential:

                          rloc        C1          C2          C3          C4
                        0.616000   11.313635

       Parameters of the non-local part of the GTH pseudopotential:

                   l      r(l)      h(i,j,l)

                   0    0.550904    4.733491   -1.784594
                                   -1.784594    2.303901
                   1    0.674138    2.534798   -1.778066
                                   -1.778066    2.103836
                   2    0.457392   -7.264011    2.558665
                                    2.558665   -2.901253


 MOLECULE KIND INFORMATION


 All atoms are their own molecule, skipping detailed information


 TOTAL NUMBERS AND MAXIMUM NUMBERS

  Total number of            - Atomic kinds:                                   3
                             - Atoms:                                        516
                             - Shell sets:                                   516
                             - Shells:                                      2396
                             - Primitive Cartesian functions:               2580
                             - Cartesian basis functions:                   7368
                             - Spherical basis functions:                   6620

  Maximum angular momentum of- Orbital basis functions:                        2
                             - Local part of the GTH pseudopotential:          2
                             - Non-local part of the GTH pseudopotential:      4


 MODULE QUICKSTEP:  ATOMIC COORDINATES IN angstrom

 Atom  Kind  Element       X           Y           Z          Z(eff)       Mass
    1   1 O    8       1.320000   -9.360001   30.117997       6.0000     15.9994
    2   2 H    1       1.200000   -8.410000   30.297996       1.0000      1.0079
    3   2 H    1       1.000000   -9.540001   29.187996       1.0000      1.0079
    4   1 O    8       2.970000    2.600000   33.097997       6.0000     15.9994
    5   2 H    1       3.600000    3.190000   32.827997       1.0000      1.0079
    6   2 H    1       3.200000    2.110000   33.917996       1.0000      1.0079
    7   1 O    8       7.130001    6.970000   29.067996       6.0000     15.9994
    8   2 H    1       6.420000    7.680000   29.427996       1.0000      1.0079
    9   2 H    1       6.790000    6.060000   29.287997       1.0000      1.0079
   10   1 O    8       8.840000   30.630001   36.417997       6.0000     15.9994
   11   2 H    1       8.390000   30.740002   35.537997       1.0000      1.0079
   12   2 H    1       9.740001   30.450001   36.077997       1.0000      1.0079
   13   1 O    8      -7.250000   33.370003   36.637996       6.0000     15.9994
   14   2 H    1      -7.750000   32.490002   36.657996       1.0000      1.0079
   15   2 H    1      -6.470000   33.110001   36.217996       1.0000      1.0079
   16   1 O    8      -2.740000   29.360001   29.117997       6.0000     15.9994
   17   2 H    1      -2.260000   28.670002   29.667997       1.0000      1.0079
   18   2 H    1       4.720000   14.530001   29.307996       1.0000      1.0079
   19   1 O    8       8.950001   -5.310000   39.377998       6.0000     15.9994
   20   2 H    1       8.140000   -4.760000   39.407996       1.0000      1.0079
   21   2 H    1       9.260000   -5.180000   38.397996       1.0000      1.0079
   22   1 O    8      -9.210001  -27.870003   38.957996       6.0000     15.9994
   23   2 H    1      -8.940001  -27.940002   37.997997       1.0000      1.0079
   24   2 H    1      -9.410001  -26.860001   39.047998       1.0000      1.0079
   25   1 O    8      19.770000   14.840001   29.227996       6.0000     15.9994
   26   2 H    1      19.100000   14.210001   29.717996       1.0000      1.0079
   27   2 H    1      19.610001   15.780001   29.557996       1.0000      1.0079
   28   1 O    8      -5.070000   15.290001   35.137997       6.0000     15.9994
   29   2 H    1      -5.930000   15.500001   35.567996       1.0000      1.0079
   30   2 H    1      -4.410000   15.590000   35.887996       1.0000      1.0079
   31   1 O    8      26.280001  -23.059999   33.307996       6.0000     15.9994
   32   2 H    1      25.960003  -22.710001   34.157996       1.0000      1.0079
   33   2 H    1      43.010002  -22.310001   32.647996       1.0000      1.0079
   34   1 O    8       5.470000    0.410000   30.407996       6.0000     15.9994
   35   2 H    1      -3.030000   14.130001   29.967996       1.0000      1.0079
   36   2 H    1       6.440001    0.770000   30.387996       1.0000      1.0079
   37   1 O    8     -14.710001  -39.190002   39.077997       6.0000     15.9994
   38   2 H    1     -13.840000  -39.480003   38.987996       1.0000      1.0079
   39   2 H    1     -15.110001  -39.420002   38.137996       1.0000      1.0079
   40   1 O    8      10.020000   -7.980001   32.457997       6.0000     15.9994
   41   2 H    1      10.150002   -7.730001   33.367997       1.0000      1.0079
   42   2 H    1      10.180000   -7.180000   31.937996       1.0000      1.0079
   43   1 O    8      -3.900000   17.150000   29.137996       6.0000     15.9994
   44   2 H    1      -4.820000   17.020000   29.367996       1.0000      1.0079
   45   2 H    1      -3.450000   16.400002   29.617997       1.0000      1.0079
   46   1 O    8       7.190001   -4.510000   33.847996       6.0000     15.9994
   47   2 H    1       6.300001   -4.640000   33.477996       1.0000      1.0079
   48   2 H    1       6.960001   -4.620000   34.757997       1.0000      1.0079
   49   1 O    8     -24.370001  -10.340000   29.707997       6.0000     15.9994
   50   2 H    1     -23.590002   -9.700001   29.677996       1.0000      1.0079
   51   2 H    1     -25.150002   -9.830000   30.147996       1.0000      1.0079
   52   1 O    8       1.420000   -2.620000   34.967996       6.0000     15.9994
   53   2 H    1       1.560000   -3.520000   35.287997       1.0000      1.0079
   54   2 H    1       1.680000   -1.930000   35.707996       1.0000      1.0079
   55   1 O    8      22.170000    7.280001   37.857997       6.0000     15.9994
   56   2 H    1      22.110003    7.190001   38.797996       1.0000      1.0079
   57   2 H    1       5.340000    8.190001   37.537998       1.0000      1.0079
   58   1 O    8      -4.380000    8.090000   30.017996       6.0000     15.9994
   59   2 H    1      -5.130000    8.500000   29.537996       1.0000      1.0079
   60   2 H    1      -4.290000    7.140000   29.787996       1.0000      1.0079
   61   1 O    8      26.000002   18.540001   33.137996       6.0000     15.9994
   62   2 H    1      26.750002   17.889999   32.977996       1.0000      1.0079
   63   2 H    1      26.400002   19.400002   32.777996       1.0000      1.0079
   64   1 O    8      15.480001   19.200001   33.367997       6.0000     15.9994
   65   2 H    1      16.250002   19.670002   33.137996       1.0000      1.0079
   66   2 H    1      15.190001   19.610001   34.237996       1.0000      1.0079
   67   1 O    8      15.650001   -1.710000   34.537996       6.0000     15.9994
   68   2 H    1      15.460001   -1.390000   35.457996       1.0000      1.0079
   69   2 H    1       8.190001   12.710000   34.557996       1.0000      1.0079
   70   1 O    8       1.940000   24.480001   29.447996       6.0000     15.9994
   71   2 H    1       1.080000   24.640003   29.037996       1.0000      1.0079
   72   2 H    1       2.400000   25.360001   29.797996       1.0000      1.0079
   73   1 O    8       2.410000   11.210001   39.767997       6.0000     15.9994
   74   2 H    1       1.700000   10.559999   39.857997       1.0000      1.0079
   75   2 H    1       2.220000   11.410000   38.767997       1.0000      1.0079
   76   1 O    8     -17.830002   31.300001   28.897996       6.0000     15.9994
   77   2 H    1      -1.750000   30.690002   28.927996       1.0000      1.0079
   78   2 H    1     -17.980001   32.140003   29.477996       1.0000      1.0079
   79   1 O    8       4.210001   -5.270000   32.787997       6.0000     15.9994
   80   2 H    1       3.960000   -4.300000   32.667996       1.0000      1.0079
   81   2 H    1       4.020000   -5.550000   31.817996       1.0000      1.0079
   82   1 O    8       5.330000   -2.300000   30.047996       6.0000     15.9994
   83   2 H    1       4.300000   -2.350000   30.087996       1.0000      1.0079
   84   2 H    1       5.510000   -3.160000   29.527996       1.0000      1.0079
   85   1 O    8       3.470000   -2.700000   33.157996       6.0000     15.9994
   86   2 H    1       4.060000   -1.850000   33.177996       1.0000      1.0079
   87   2 H    1       2.780000   -2.560000   33.817996       1.0000      1.0079
   88   1 O    8       3.410000  -20.470001   29.987996       6.0000     15.9994
   89   2 H    1       2.860000  -19.860001   30.507996       1.0000      1.0079
   90   2 H    1       3.440000  -20.180000   29.047996       1.0000      1.0079
   91   1 O    8       6.730001   -3.790000   39.387996       6.0000     15.9994
   92   2 H    1       6.670001   -4.280000   38.467996       1.0000      1.0079
   93   2 H    1       6.630001   -2.800000   39.217996       1.0000      1.0079
   94   1 O    8       9.530001   14.140000   29.717996       6.0000     15.9994
   95   2 H    1       9.820001   15.060000   29.897996       1.0000      1.0079
   96   2 H    1       9.220000   14.000001   28.767996       1.0000      1.0079
   97   1 O    8      24.180002   -8.450001   30.777996       6.0000     15.9994
   98   2 H    1      15.860001    6.180000   31.777995       1.0000      1.0079
   99   2 H    1      23.630001   -9.200000   30.527995       1.0000      1.0079
  100   1 O    8      -3.680000  -11.060000   38.597997       6.0000     15.9994
  101   2 H    1      -3.610000  -10.980000   39.567996       1.0000      1.0079
  102   2 H    1      -4.370000  -10.510000   38.227996       1.0000      1.0079
  103   1 O    8      33.530003   12.710000   35.207997       6.0000     15.9994
  104   2 H    1      33.610001   13.470001   34.567996       1.0000      1.0079
  105   2 H    1      32.950001   11.980001   34.847996       1.0000      1.0079
  106   1 O    8      -4.670000    2.960000   36.367997       6.0000     15.9994
  107   2 H    1      12.540001    3.500000   35.587997       1.0000      1.0079
  108   2 H    1      -4.870000    2.100000   36.017996       1.0000      1.0079
  109   1 O    8      10.530001   32.870003   32.837997       6.0000     15.9994
  110   2 H    1      10.240001   33.760002   32.877996       1.0000      1.0079
  111   2 H    1      28.340000   32.890003   33.187996       1.0000      1.0079
  112   1 O    8       0.410000   -6.370000   36.177997       6.0000     15.9994
  113   2 H    1      -0.100000   -5.780000   35.587997       1.0000      1.0079
  114   2 H    1      -0.120000   -7.230001   36.217996       1.0000      1.0079
  115   1 O    8      -5.800000    2.720000   30.057996       6.0000     15.9994
  116   2 H    1      -5.620000    3.430000   29.407996       1.0000      1.0079
  117   2 H    1      -5.820000    3.180000   30.947996       1.0000      1.0079
  118   1 O    8      12.910000   -9.710001   32.357997       6.0000     15.9994
  119   2 H    1      12.540001   -9.110001   31.687996       1.0000      1.0079
  120   2 H    1      13.840000   -9.900001   32.157996       1.0000      1.0079
  121   1 O    8      -3.480000   33.080002   38.587997       6.0000     15.9994
  122   2 H    1      -3.040000   32.380001   39.127996       1.0000      1.0079
  123   2 H    1      -3.820000   32.640003   37.737996       1.0000      1.0079
  124   1 O    8      10.040001    1.130000   31.997997       6.0000     15.9994
  125   2 H    1      10.040001    2.080000   32.427997       1.0000      1.0079
  126   2 H    1       9.320001    0.700000   32.487995       1.0000      1.0079
  127   1 O    8      10.490000   -1.740000   37.627996       6.0000     15.9994
  128   2 H    1      10.400001   -0.940000   38.217996       1.0000      1.0079
  129   2 H    1      18.300001   13.150001   36.967996       1.0000      1.0079
  130   1 O    8       6.080000   -5.070000   29.237996       6.0000     15.9994
  131   2 H    1       7.040000   -5.360000   29.427996       1.0000      1.0079
  132   2 H    1       5.610001   -5.740000   29.787996       1.0000      1.0079
  133   1 O    8      -9.290000    5.820000   36.077997       6.0000     15.9994
  134   2 H    1     -10.110001    5.350000   36.367997       1.0000      1.0079
  135   2 H    1      -8.620001    5.090000   36.277996       1.0000      1.0079
  136   1 O    8      11.090001    9.570000   35.427996       6.0000     15.9994
  137   2 H    1      -6.390000    8.830000   35.547997       1.0000      1.0079
  138   2 H    1      11.640000    9.480001   34.677997       1.0000      1.0079
  139   1 O    8      21.000002   -1.620000   38.257997       6.0000     15.9994
  140   2 H    1      12.770000   13.300000   39.187997       1.0000      1.0079
  141   2 H    1      20.820000   -2.590000   38.287996       1.0000      1.0079
  142   1 O    8     -17.190001   16.330002   29.967996       6.0000     15.9994
  143   2 H    1     -16.820000   16.220001   29.037996       1.0000      1.0079
  144   2 H    1     -16.310001   16.090000   30.417996       1.0000      1.0079
  145   1 O    8     -15.250001   10.380001   31.087996       6.0000     15.9994
  146   2 H    1     -15.300001   11.280001   30.707996       1.0000      1.0079
  147   2 H    1     -16.010000    9.870001   30.757996       1.0000      1.0079
  148   1 O    8      -2.220000    0.040000   32.637997       6.0000     15.9994
  149   2 H    1      -1.970000   -0.540000   33.397996       1.0000      1.0079
  150   2 H    1      -3.270000   -0.050000   32.577997       1.0000      1.0079
  151   1 O    8      -0.410000   14.520000   33.307996       6.0000     15.9994
  152   2 H    1      -0.950000   15.280001   33.617996       1.0000      1.0079
  153   2 H    1      -0.920000   13.930000   32.707997       1.0000      1.0079
  154   1 O    8       7.360001   26.920002   31.847997       6.0000     15.9994
  155   2 H    1       6.540000   26.760002   31.297996       1.0000      1.0079
  156   2 H    1       7.590001   26.290001   32.557996       1.0000      1.0079
  157   1 O    8      12.080001    7.020000   38.747997       6.0000     15.9994
  158   2 H    1      11.550001    6.200000   38.847995       1.0000      1.0079
  159   2 H    1      12.470001    7.230001   39.667997       1.0000      1.0079
  160   1 O    8      -3.020000   24.460001   36.997997       6.0000     15.9994
  161   2 H    1      -3.670000   24.960001   36.447995       1.0000      1.0079
  162   2 H    1      -3.000000   25.010002   37.817996       1.0000      1.0079
  163   1 O    8      -3.260000   26.230001   39.287996       6.0000     15.9994
  164   2 H    1      -4.170000   26.100002   39.647996       1.0000      1.0079
  165   2 H    1      -2.600000   25.960003   40.027995       1.0000      1.0079
  166   1 O    8       8.810000   13.240002   38.837997       6.0000     15.9994
  167   2 H    1       9.370001   13.820001   39.337997       1.0000      1.0079
  168   2 H    1       9.080001   12.360001   39.097997       1.0000      1.0079
  169   1 O    8     -13.270000   10.620001   33.057996       6.0000     15.9994
  170   2 H    1     -13.860001   10.390000   32.347996       1.0000      1.0079
  171   2 H    1     -12.570001    9.900001   33.147996       1.0000      1.0079
  172   1 O    8       4.050000   12.270001   30.157996       6.0000     15.9994
  173   2 H    1       3.700000   12.050000   29.207996       1.0000      1.0079
  174   2 H    1       4.820000   11.710000   30.267996       1.0000      1.0079
  175   1 O    8       4.490000   21.580000   33.967997       6.0000     15.9994
  176   2 H    1       4.890000   21.840000   34.817996       1.0000      1.0079
  177   2 H    1       4.670000   22.350002   33.397996       1.0000      1.0079
  178   1 O    8      13.680000   -0.430000   38.537998       6.0000     15.9994
  179   2 H    1      13.810000   -1.440000   38.727996       1.0000      1.0079
  180   2 H    1      14.000001   -0.060000   39.357995       1.0000      1.0079
  181   1 O    8      18.980001    1.950000   30.027996       6.0000     15.9994
  182   2 H    1      19.370001    1.990000   30.957996       1.0000      1.0079
  183   2 H    1      18.390001    2.830000   29.997997       1.0000      1.0079
  184   1 O    8     -28.310001    8.360001   33.287996       6.0000     15.9994
  185   2 H    1     -27.990000    8.280001   32.367996       1.0000      1.0079
  186   2 H    1     -27.740002    9.000000   33.797996       1.0000      1.0079
  187   1 O    8      19.600000   -2.360000   30.447996       6.0000     15.9994
  188   2 H    1      19.180000   -1.490000   30.337996       1.0000      1.0079
  189   2 H    1      19.830000   -2.430000   31.457997       1.0000      1.0079
  190   1 O    8      -1.230000  -23.270000   33.437996       6.0000     15.9994
  191   2 H    1      -0.700000  -22.800003   34.087997       1.0000      1.0079
  192   2 H    1      -2.150000  -22.950001   33.447996       1.0000      1.0079
  193   1 O    8     -15.040001   -0.930000   36.767997       6.0000     15.9994
  194   2 H    1     -15.690001   -1.210000   37.477996       1.0000      1.0079
  195   2 H    1     -14.150001   -0.970000   37.307996       1.0000      1.0079
  196   1 O    8      -7.290000    8.470000   38.667997       6.0000     15.9994
  197   2 H    1      -7.760000    8.400001   37.767997       1.0000      1.0079
  198   2 H    1      10.380001    7.960001   38.467996       1.0000      1.0079
  199   1 O    8       5.900001  -20.610001   30.647996       6.0000     15.9994
  200   2 H    1       4.940000  -20.660000   30.207997       1.0000      1.0079
  201   2 H    1       6.240000  -19.710001   30.367997       1.0000      1.0079
  202   1 O    8      12.170000   10.210000   38.077997       6.0000     15.9994
  203   2 H    1      11.740000   10.180000   37.157996       1.0000      1.0079
  204   2 H    1      -5.450000    9.860001   38.637996       1.0000      1.0079
  205   1 O    8     -10.320001  -24.630001   30.057996       6.0000     15.9994
  206   2 H    1      -9.600000  -25.250000   30.137996       1.0000      1.0079
  207   2 H    1     -10.970000  -25.200003   29.587996       1.0000      1.0079
  208   1 O    8       6.920000   -8.890000   37.487996       6.0000     15.9994
  209   2 H    1       6.230001   -9.560000   37.667997       1.0000      1.0079
  210   2 H    1       7.470000   -8.720000   38.277997       1.0000      1.0079
  211   1 O    8     -18.680000   32.110001   32.607996       6.0000     15.9994
  212   2 H    1     -17.840000   32.350002   32.977996       1.0000      1.0079
  213   2 H    1     -18.800001   31.130001   32.627996       1.0000      1.0079
  214   1 O    8      -1.600000   29.730000   36.587997       6.0000     15.9994
  215   2 H    1      -2.190000   29.330002   37.257997       1.0000      1.0079
  216   2 H    1      -2.060000   30.130003   35.837996       1.0000      1.0079
  217   1 O    8      15.130001   13.720001   37.207998       6.0000     15.9994
  218   2 H    1      15.630001   13.190001   36.587997       1.0000      1.0079
  219   2 H    1      14.320001   13.140000   37.207998       1.0000      1.0079
  220   1 O    8      17.200001    4.740000   35.737996       6.0000     15.9994
  221   2 H    1      16.440001    5.120000   36.247997       1.0000      1.0079
  222   2 H    1      16.990002    4.420000   34.867996       1.0000      1.0079
  223   1 O    8     -16.049999   12.640000   29.977996       6.0000     15.9994
  224   2 H    1     -16.480001   12.440001   29.027996       1.0000      1.0079
  225   2 H    1     -16.750000   12.640000   30.737996       1.0000      1.0079
  226   1 O    8       8.730000  -12.340001   37.527995       6.0000     15.9994
  227   2 H    1       8.940001  -11.560000   36.987996       1.0000      1.0079
  228   2 H    1       8.010000  -12.850000   37.067996       1.0000      1.0079
  229   1 O    8      -1.160000   -1.410000   30.557996       6.0000     15.9994
  230   2 H    1      -0.210000   -1.130000   30.447996       1.0000      1.0079
  231   2 H    1      -1.540000   -1.050000   31.417996       1.0000      1.0079
  232   1 O    8      -5.750000   19.950001   38.047996       6.0000     15.9994
  233   2 H    1      -5.790000   19.590000   37.137996       1.0000      1.0079
  234   2 H    1      -5.040000   20.650002   38.057996       1.0000      1.0079
  235   1 O    8      20.130001    5.840001   29.797996       6.0000     15.9994
  236   2 H    1      20.050001    6.830000   29.807996       1.0000      1.0079
  237   2 H    1      20.400002    5.550000   28.887996       1.0000      1.0079
  238   1 O    8     -13.460001   14.860001   35.607996       6.0000     15.9994
  239   2 H    1     -13.410001   14.360001   34.757997       1.0000      1.0079
  240   2 H    1     -13.080001   14.230001   36.227996       1.0000      1.0079
  241   1 O    8     -28.460003   22.070000   36.497996       6.0000     15.9994
  242   2 H    1     -27.910002   21.410000   36.957996       1.0000      1.0079
  243   2 H    1     -29.100000   22.390001   37.197997       1.0000      1.0079
  244   1 O    8       4.670000   35.120003   34.947996       6.0000     15.9994
  245   2 H    1       4.470000   34.800003   34.017997       1.0000      1.0079
  246   2 H    1       5.110001   36.010002   34.717996       1.0000      1.0079
  247   1 O    8      40.050003   18.460001   30.207997       6.0000     15.9994
  248   2 H    1      40.180000   18.000000   31.157996       1.0000      1.0079
  249   2 H    1      39.140003   18.580000   30.047996       1.0000      1.0079
  250   1 O    8     -16.690001    6.440001   39.367996       6.0000     15.9994
  251   2 H    1     -16.490000    7.420001   39.227996       1.0000      1.0079
  252   2 H    1     -15.770000    6.170001   39.207996       1.0000      1.0079
  253   1 O    8     -10.000000   24.190002   36.677996       6.0000     15.9994
  254   2 H    1     -10.580001   23.250000   36.597997       1.0000      1.0079
  255   2 H    1      -9.050000   23.880001   36.767997       1.0000      1.0079
  256   1 O    8      23.480000   10.980000   29.697996       6.0000     15.9994
  257   2 H    1      24.130001   11.670000   30.067996       1.0000      1.0079
  258   2 H    1      23.350000   11.310000   28.787996       1.0000      1.0079
  259   1 O    8       2.890000   10.780001   35.497997       6.0000     15.9994
  260   2 H    1       2.970000   10.660001   34.477997       1.0000      1.0079
  261   2 H    1       2.550000   11.670000   35.617997       1.0000      1.0079
  262   1 O    8     -11.970000   -0.460000   33.077996       6.0000     15.9994
  263   2 H    1     -12.410001    0.050000   33.797996       1.0000      1.0079
  264   2 H    1     -11.890000    0.150000   32.377997       1.0000      1.0079
  265   1 O    8      -7.280001   -5.570001   36.787997       6.0000     15.9994
  266   2 H    1      -6.780000   -6.450000   36.537997       1.0000      1.0079
  267   2 H    1      -6.700000   -4.990000   36.187997       1.0000      1.0079
  268   1 O    8      10.440001    0.280000   39.467996       6.0000     15.9994
  269   2 H    1      18.440001  -14.990001   40.067996       1.0000      1.0079
  270   2 H    1       9.670001    0.820000   39.227996       1.0000      1.0079
  271   1 O    8      17.410000   22.299999   31.037996       6.0000     15.9994
  272   2 H    1      16.600000   22.139999   30.537997       1.0000      1.0079
  273   2 H    1      17.720001   23.140001   30.717996       1.0000      1.0079
  274   1 O    8     -21.280001    5.500000   29.997997       6.0000     15.9994
  275   2 H    1     -21.049999    5.330000   29.057996       1.0000      1.0079
  276   2 H    1     -22.299999    5.530000   29.947996       1.0000      1.0079
  277   1 O    8      15.890001  -10.700001   38.627996       6.0000     15.9994
  278   2 H    1      16.049999   -9.830000   39.097997       1.0000      1.0079
  279   2 H    1      14.930000  -10.520000   38.477996       1.0000      1.0079
  280   1 O    8       5.430000   30.500002   36.627996       6.0000     15.9994
  281   2 H    1       5.970000   29.650002   36.877997       1.0000      1.0079
  282   2 H    1       5.460000   31.120003   37.427997       1.0000      1.0079
  283   1 O    8      -6.420000   21.400002   35.277996       6.0000     15.9994
  284   2 H    1      11.380000   21.070002   35.367997       1.0000      1.0079
  285   2 H    1       9.890000   20.570002   35.577996       1.0000      1.0079
  286   1 O    8      21.550003   18.890001   34.227996       6.0000     15.9994
  287   2 H    1      22.340002   18.410000   33.777996       1.0000      1.0079
  288   2 H    1      21.450003   19.780001   33.897996       1.0000      1.0079
  289   1 O    8      16.710001    8.470000   29.947996       6.0000     15.9994
  290   2 H    1      17.190001    8.350000   29.067996       1.0000      1.0079
  291   2 H    1      16.450001    7.510000   30.157996       1.0000      1.0079
  292   1 O    8      -9.740001  -27.090000   34.477997       6.0000     15.9994
  293   2 H    1     -10.460000  -27.040003   35.157996       1.0000      1.0079
  294   2 H    1      -9.680000  -26.400002   33.787997       1.0000      1.0079
  295   1 O    8      -1.320000   24.600000   34.767996       6.0000     15.9994
  296   2 H    1      -1.120000   25.550001   34.607995       1.0000      1.0079
  297   2 H    1      -1.880000   24.590000   35.567996       1.0000      1.0079
  298   1 O    8     -21.740000   -0.400000   32.847996       6.0000     15.9994
  299   2 H    1     -22.420002    0.230000   32.417996       1.0000      1.0079
  300   2 H    1      -4.970000   -1.320000   32.447996       1.0000      1.0079
  301   3 Pt  78       1.880000    0.660000   15.149998      10.0000    195.0840
  302   3 Pt  78       4.600000    0.710000   15.189995      10.0000    195.0840
  303   3 Pt  78       7.360001    0.810000   15.259995      10.0000    195.0840
  304   3 Pt  78      10.150002    0.870000   15.129997      10.0000    195.0840
  305   3 Pt  78      13.010001    0.780000   15.129997      10.0000    195.0840
  306   3 Pt  78      15.760001    0.640000   15.189995      10.0000    195.0840
  307   3 Pt  78       3.140000    3.270000   15.199997      10.0000    195.0840
  308   3 Pt  78       5.890000    3.190000   15.189995      10.0000    195.0840
  309   3 Pt  78       8.730000    3.190000   15.269997      10.0000    195.0840
  310   3 Pt  78      11.640000    3.210000   15.139999      10.0000    195.0840
  311   3 Pt  78      14.510001    3.180000   15.219997      10.0000    195.0840
  312   3 Pt  78       0.360000    3.010000   15.139999      10.0000    195.0840
  313   3 Pt  78       4.500000    5.630000   15.149998      10.0000    195.0840
  314   3 Pt  78       7.400000    5.590000   15.109997      10.0000    195.0840
  315   3 Pt  78      10.180000    5.600000   15.159996      10.0000    195.0840
  316   3 Pt  78      13.020000    5.630000   15.149998      10.0000    195.0840
  317   3 Pt  78      -1.070000    5.650000   15.239998      10.0000    195.0840
  318   3 Pt  78       1.650000    5.670000   15.079998      10.0000    195.0840
  319   3 Pt  78       5.930000    8.020000   15.119995      10.0000    195.0840
  320   3 Pt  78       8.650001    8.030001   15.059998      10.0000    195.0840
  321   3 Pt  78      11.450001    7.990000   15.239998      10.0000    195.0840
  322   3 Pt  78      -2.440000    8.100000   15.189995      10.0000    195.0840
  323   3 Pt  78       0.330000    8.110001   15.129997      10.0000    195.0840
  324   3 Pt  78       3.030000    8.030001   15.049995      10.0000    195.0840
  325   3 Pt  78       7.280001   10.450001   15.109997      10.0000    195.0840
  326   3 Pt  78      10.150002   10.370001   15.079998      10.0000    195.0840
  327   3 Pt  78      -3.870000   10.220001   15.149998      10.0000    195.0840
  328   3 Pt  78      -1.120000   10.450001   15.079998      10.0000    195.0840
  329   3 Pt  78       1.710000   10.510000   15.319996      10.0000    195.0840
  330   3 Pt  78       4.540000   10.470000   15.149998      10.0000    195.0840
  331   3 Pt  78       8.760000   12.890000   15.000000      10.0000    195.0840
  332   3 Pt  78      -5.160000   12.710000   15.039997      10.0000    195.0840
  333   3 Pt  78      -2.430000   12.940001   15.169998      10.0000    195.0840
  334   3 Pt  78       0.310000   12.840000   15.019997      10.0000    195.0840
  335   3 Pt  78       3.100000   12.830001   15.000000      10.0000    195.0840
  336   3 Pt  78       5.850000   12.870001   15.149998      10.0000    195.0840
  337   3 Pt  78       0.350000    1.540000   17.489998      10.0000    195.0840
  338   3 Pt  78       3.140000    1.640000   17.459995      10.0000    195.0840
  339   3 Pt  78       5.950000    1.570000   17.539997      10.0000    195.0840
  340   3 Pt  78       8.760000    1.530000   17.649998      10.0000    195.0840
  341   3 Pt  78      11.580001    1.520000   17.509998      10.0000    195.0840
  342   3 Pt  78      14.370001    1.570000   17.500000      10.0000    195.0840
  343   3 Pt  78       1.690000    4.040000   17.419998      10.0000    195.0840
  344   3 Pt  78       4.490000    4.070000   17.559998      10.0000    195.0840
  345   3 Pt  78       7.370000    3.950000   17.589996      10.0000    195.0840
  346   3 Pt  78      10.130000    3.920000   17.500000      10.0000    195.0840
  347   3 Pt  78      12.930001    4.060000   17.479996      10.0000    195.0840
  348   3 Pt  78      -1.140000    3.980000   17.559998      10.0000    195.0840
  349   3 Pt  78       3.030000    6.470000   17.349998      10.0000    195.0840
  350   3 Pt  78       5.880000    6.460000   17.449997      10.0000    195.0840
  351   3 Pt  78       8.590000    6.380000   17.489998      10.0000    195.0840
  352   3 Pt  78      11.450001    6.370000   17.500000      10.0000    195.0840
  353   3 Pt  78      -2.520000    6.490001   17.559998      10.0000    195.0840
  354   3 Pt  78       0.270000    6.350000   17.570000      10.0000    195.0840
  355   3 Pt  78       4.470000    8.860001   17.519997      10.0000    195.0840
  356   3 Pt  78       7.190001    8.900001   17.459995      10.0000    195.0840
  357   3 Pt  78      10.070001    8.880001   17.439999      10.0000    195.0840
  358   3 Pt  78      -4.030000    8.850000   17.479996      10.0000    195.0840
  359   3 Pt  78      -1.020000    8.850000   17.570000      10.0000    195.0840
  360   3 Pt  78       1.630000    8.850000   17.489998      10.0000    195.0840
  361   3 Pt  78       5.970000   11.290001   17.529995      10.0000    195.0840
  362   3 Pt  78       8.750001   11.210001   17.389996      10.0000    195.0840
  363   3 Pt  78      -5.340000   11.420001   17.459995      10.0000    195.0840
  364   3 Pt  78      -2.590000   11.180000   17.500000      10.0000    195.0840
  365   3 Pt  78       0.210000   11.330000   17.500000      10.0000    195.0840
  366   3 Pt  78       2.980000   11.310000   17.519997      10.0000    195.0840
  367   3 Pt  78       7.360001   13.630000   17.449997      10.0000    195.0840
  368   3 Pt  78      -6.780000   13.630000   17.409996      10.0000    195.0840
  369   3 Pt  78      -3.920000   13.810000   17.449997      10.0000    195.0840
  370   3 Pt  78      -1.100000   13.630000   17.609997      10.0000    195.0840
  371   3 Pt  78       1.650000   13.730000   17.399998      10.0000    195.0840
  372   3 Pt  78       4.490000   13.710001   17.500000      10.0000    195.0840
  373   3 Pt  78      -8.240001   14.560001   19.729996      10.0000    195.0840
  374   3 Pt  78      -5.460000   14.520000   19.689999      10.0000    195.0840
  375   3 Pt  78      -2.580000   14.430000   19.779999      10.0000    195.0840
  376   3 Pt  78       0.130000   14.370001   19.849998      10.0000    195.0840
  377   3 Pt  78       2.970000   14.430000   19.820000      10.0000    195.0840
  378   3 Pt  78       5.800000   14.540001   19.939995      10.0000    195.0840
  379   3 Pt  78       1.620000    2.460000   19.759998      10.0000    195.0840
  380   3 Pt  78       4.420000    2.400000   19.820000      10.0000    195.0840
  381   3 Pt  78       7.240000    2.380000   19.869995      10.0000    195.0840
  382   3 Pt  78      10.010000    2.180000   19.869995      10.0000    195.0840
  383   3 Pt  78      12.890000    2.280000   19.879997      10.0000    195.0840
  384   3 Pt  78      -1.210000    2.370000   19.869995      10.0000    195.0840
  385   3 Pt  78       3.060000    4.830000   19.829998      10.0000    195.0840
  386   3 Pt  78       5.860000    4.860000   19.809998      10.0000    195.0840
  387   3 Pt  78       8.700001    4.820000   19.909996      10.0000    195.0840
  388   3 Pt  78      11.410000    4.750000   19.839996      10.0000    195.0840
  389   3 Pt  78      -2.620000    4.750000   19.789997      10.0000    195.0840
  390   3 Pt  78       0.170000    4.780000   19.779999      10.0000    195.0840
  391   3 Pt  78       4.360000    7.330000   19.789997      10.0000    195.0840
  392   3 Pt  78       7.200000    7.210000   19.809998      10.0000    195.0840
  393   3 Pt  78      10.010000    7.300000   19.839996      10.0000    195.0840
  394   3 Pt  78      -4.130000    7.230001   19.839996      10.0000    195.0840
  395   3 Pt  78      -1.120000    7.190001   19.909996      10.0000    195.0840
  396   3 Pt  78       1.630000    7.150001   19.799995      10.0000    195.0840
  397   3 Pt  78       5.820000    9.700001   19.839996      10.0000    195.0840
  398   3 Pt  78       8.630000    9.700001   19.689999      10.0000    195.0840
  399   3 Pt  78      -5.400000    9.650001   19.709999      10.0000    195.0840
  400   3 Pt  78      -2.610000    9.580001   19.699997      10.0000    195.0840
  401   3 Pt  78       0.340000    9.630001   19.879997      10.0000    195.0840
  402   3 Pt  78       3.050000    9.690001   19.899998      10.0000    195.0840
  403   3 Pt  78       7.210000   12.100000   19.889999      10.0000    195.0840
  404   3 Pt  78      -6.890000   12.140001   19.669998      10.0000    195.0840
  405   3 Pt  78      -4.010000   12.120000   19.769997      10.0000    195.0840
  406   3 Pt  78      -1.200000   12.020000   19.829998      10.0000    195.0840
  407   3 Pt  78       1.550000   12.080001   19.879997      10.0000    195.0840
  408   3 Pt  78       4.350000   12.100000   19.839996      10.0000    195.0840
  409   3 Pt  78       1.530000    0.750000   22.067996      10.0000    195.0840
  410   3 Pt  78       4.420000    0.590000   21.957996      10.0000    195.0840
  411   3 Pt  78       7.190001    0.650000   22.157996      10.0000    195.0840
  412   3 Pt  78       9.820001    0.610000   22.217996      10.0000    195.0840
  413   3 Pt  78      12.800001    0.660000   22.167996      10.0000    195.0840
  414   3 Pt  78      15.530001    0.710000   22.157996      10.0000    195.0840
  415   3 Pt  78       3.030000    3.140000   22.137996      10.0000    195.0840
  416   3 Pt  78       5.760000    3.160000   22.127996      10.0000    195.0840
  417   3 Pt  78       8.510000    3.190000   22.097996      10.0000    195.0840
  418   3 Pt  78      11.350001    3.050000   22.197996      10.0000    195.0840
  419   3 Pt  78      14.210001    3.080000   22.157996      10.0000    195.0840
  420   3 Pt  78       0.150000    3.120000   22.177996      10.0000    195.0840
  421   3 Pt  78       4.360000    5.610001   22.087996      10.0000    195.0840
  422   3 Pt  78       7.110000    5.700001   22.127996      10.0000    195.0840
  423   3 Pt  78       9.920000    5.660000   22.147996      10.0000    195.0840
  424   3 Pt  78      12.720001    5.500000   22.097996      10.0000    195.0840
  425   3 Pt  78      -1.240000    5.500000   22.067996      10.0000    195.0840
  426   3 Pt  78       1.540000    5.500000   22.087996      10.0000    195.0840
  427   3 Pt  78       5.790000    8.080000   22.147996      10.0000    195.0840
  428   3 Pt  78       8.610001    8.070001   22.207996      10.0000    195.0840
  429   3 Pt  78      11.430000    8.050001   22.147996      10.0000    195.0840
  430   3 Pt  78      -2.710000    7.890000   22.117996      10.0000    195.0840
  431   3 Pt  78       0.150000    7.870001   22.167996      10.0000    195.0840
  432   3 Pt  78       2.960000    8.060000   22.187996      10.0000    195.0840
  433   3 Pt  78       7.150001   10.500001   22.077996      10.0000    195.0840
  434   3 Pt  78       9.950001   10.420000   21.967996      10.0000    195.0840
  435   3 Pt  78      -4.000000   10.430001   22.027996      10.0000    195.0840
  436   3 Pt  78      -1.260000   10.310000   22.287996      10.0000    195.0840
  437   3 Pt  78       1.470000   10.430001   22.287996      10.0000    195.0840
  438   3 Pt  78       4.330000   10.430001   22.127996      10.0000    195.0840
  439   3 Pt  78       8.540000   12.940001   22.097996      10.0000    195.0840
  440   3 Pt  78      -5.560000   12.820001   21.927996      10.0000    195.0840
  441   3 Pt  78      -2.650000   12.800001   22.127996      10.0000    195.0840
  442   3 Pt  78       0.060000   12.780001   22.237996      10.0000    195.0840
  443   3 Pt  78       2.900000   12.850000   22.217996      10.0000    195.0840
  444   3 Pt  78       5.710001   12.940001   22.197996      10.0000    195.0840
  445   3 Pt  78       0.320000    1.450000   24.397996      10.0000    195.0840
  446   3 Pt  78       2.990000    1.380000   24.367996      10.0000    195.0840
  447   3 Pt  78       5.700001    1.460000   24.347996      10.0000    195.0840
  448   3 Pt  78       8.530001    1.530000   24.437996      10.0000    195.0840
  449   3 Pt  78      11.520000    1.510000   24.497996      10.0000    195.0840
  450   3 Pt  78      14.320001    1.470000   24.517996      10.0000    195.0840
  451   3 Pt  78       1.560000    3.920000   24.487996      10.0000    195.0840
  452   3 Pt  78       4.390000    3.920000   24.407996      10.0000    195.0840
  453   3 Pt  78       7.110000    4.020000   24.497996      10.0000    195.0840
  454   3 Pt  78       9.900001    3.960000   24.457996      10.0000    195.0840
  455   3 Pt  78      12.720001    3.920000   24.307996      10.0000    195.0840
  456   3 Pt  78      -1.250000    3.850000   24.417996      10.0000    195.0840
  457   3 Pt  78       2.950000    6.330000   24.407996      10.0000    195.0840
  458   3 Pt  78       5.640000    6.430000   24.407996      10.0000    195.0840
  459   3 Pt  78       8.530001    6.340000   24.467996      10.0000    195.0840
  460   3 Pt  78      11.390000    6.410000   24.477996      10.0000    195.0840
  461   3 Pt  78      -2.710000    6.290000   24.427996      10.0000    195.0840
  462   3 Pt  78       0.150000    6.290000   24.467996      10.0000    195.0840
  463   3 Pt  78       4.390000    8.880001   24.457996      10.0000    195.0840
  464   3 Pt  78       7.230001    8.730000   24.457996      10.0000    195.0840
  465   3 Pt  78      10.020000    8.750001   24.567996      10.0000    195.0840
  466   3 Pt  78      -4.060000    8.760000   24.587996      10.0000    195.0840
  467   3 Pt  78      -1.360000    8.770000   24.517996      10.0000    195.0840
  468   3 Pt  78       1.520000    8.830000   24.527996      10.0000    195.0840
  469   3 Pt  78       5.880000   11.060000   24.447996      10.0000    195.0840
  470   3 Pt  78       8.640000   11.090001   24.307996      10.0000    195.0840
  471   3 Pt  78      -5.470000   11.220001   24.287996      10.0000    195.0840
  472   3 Pt  78      -2.700000   11.240001   24.517996      10.0000    195.0840
  473   3 Pt  78       0.110000   11.270000   24.547996      10.0000    195.0840
  474   3 Pt  78       3.000000   11.230000   24.577996      10.0000    195.0840
  475   3 Pt  78       7.180000   13.600000   24.417996      10.0000    195.0840
  476   3 Pt  78      -6.920000   13.620001   24.357996      10.0000    195.0840
  477   3 Pt  78      -4.070000   13.610001   24.367996      10.0000    195.0840
  478   3 Pt  78      -1.240000   13.610001   24.507996      10.0000    195.0840
  479   3 Pt  78       1.520000   13.730000   24.587996      10.0000    195.0840
  480   3 Pt  78       4.460000   13.640001   24.557996      10.0000    195.0840
  481   3 Pt  78      -8.270000   14.440001   26.717996      10.0000    195.0840
  482   3 Pt  78      -5.440001   14.450001   26.637996      10.0000    195.0840
  483   3 Pt  78      -2.560000   14.410001   26.727996      10.0000    195.0840
  484   3 Pt  78       0.110000   14.590001   26.787996      10.0000    195.0840
  485   3 Pt  78       2.980000   14.460001   26.907996      10.0000    195.0840
  486   3 Pt  78       5.680000   14.380001   26.877996      10.0000    195.0840
  487   3 Pt  78       1.620000    2.200000   26.807996      10.0000    195.0840
  488   3 Pt  78       4.420000    2.200000   26.767996      10.0000    195.0840
  489   3 Pt  78       7.210000    2.360000   26.747996      10.0000    195.0840
  490   3 Pt  78       9.970000    2.320000   26.727996      10.0000    195.0840
  491   3 Pt  78      12.830001    2.290000   26.757996      10.0000    195.0840
  492   3 Pt  78      -1.180000    2.430000   26.767996      10.0000    195.0840
  493   3 Pt  78       2.980000    4.680000   26.827996      10.0000    195.0840
  494   3 Pt  78       5.880000    4.770000   26.857996      10.0000    195.0840
  495   3 Pt  78       8.600000    4.630000   26.927996      10.0000    195.0840
  496   3 Pt  78      11.440001    4.550000   26.747996      10.0000    195.0840
  497   3 Pt  78      -2.660000    4.840000   26.697996      10.0000    195.0840
  498   3 Pt  78       0.190000    4.760000   26.827996      10.0000    195.0840
  499   3 Pt  78       4.340000    7.070000   26.807996      10.0000    195.0840
  500   3 Pt  78       7.210000    7.100000   26.827996      10.0000    195.0840
  501   3 Pt  78       9.940001    6.980000   26.927996      10.0000    195.0840
  502   3 Pt  78      -4.190001    7.070000   26.857996      10.0000    195.0840
  503   3 Pt  78      -1.290000    7.310000   26.777996      10.0000    195.0840
  504   3 Pt  78       1.610000    7.020000   26.927996      10.0000    195.0840
  505   3 Pt  78       5.670000    9.630001   26.757996      10.0000    195.0840
[...]
 flops    13 x     5 x    96           5631150720       0.0%    100.0%      0.0%
 flops     5 x    13 x    96           5638613760       0.0%    100.0%      0.0%
 flops    13 x    32 x    13           5875965056       0.0%    100.0%      0.0%
 flops    13 x    20 x   124           6111607840       0.0%    100.0%      0.0%
 flops    20 x    13 x   124           6138302560       0.0%    100.0%      0.0%
 flops     5 x    20 x   124           6592112800       0.0%    100.0%      0.0%
 flops    20 x     5 x   124           6597246400       0.0%    100.0%      0.0%
 flops    13 x    13 x    96           6721213824       0.0%    100.0%      0.0%
 flops    13 x    32 x    20           8384230400       0.0%    100.0%      0.0%
 flops    20 x    32 x    13           8384230400       0.0%    100.0%      0.0%
 flops     5 x    32 x    20           9027219200       0.0%    100.0%      0.0%
 flops    20 x    32 x     5           9027219200       0.0%    100.0%      0.0%
 flops    13 x    20 x    96           9463134720       0.0%    100.0%      0.0%
 flops    20 x    13 x    96           9504468480       0.0%    100.0%      0.0%
 flops     5 x    20 x    96          10207142400       0.0%    100.0%      0.0%
 flops    20 x     5 x    96          10215091200       0.0%    100.0%      0.0%
 flops     5 x     5 x   128          38459532800       0.0%    100.0%      0.0%
 flops    13 x     5 x   128          48803306240       0.0%    100.0%      0.0%
 flops     5 x    13 x   128          48867985920       0.0%    100.0%      0.0%
 flops    20 x    20 x   124          53471577600       0.0%    100.0%      0.0%
 flops    13 x    13 x   128          58250519808       0.0%    100.0%      0.0%
 flops    20 x    32 x    20          72858009600       0.0%    100.0%      0.0%
 flops    13 x    20 x   128          82013834240       0.0%    100.0%      0.0%
 flops    20 x    13 x   128          82372060160       0.0%    100.0%      0.0%
 flops    20 x    20 x    96          82794700800       0.0%    100.0%      0.0%
 flops     5 x    20 x   128          88461900800       0.0%    100.0%      0.0%
 flops    20 x     5 x   128          88530790400       0.0%    100.0%      0.0%
 flops    20 x    20 x   128         717554073600       0.0%    100.0%      0.0%
 flops inhomo. stacks                           0       0.0%      0.0%      0.0%
 flops total                         1.620575E+12       0.0%    100.0%      0.0%
 flops max/rank                     15.284602E+09       0.0%    100.0%      0.0%
 matmuls inhomo. stacks                         0       0.0%      0.0%      0.0%
 matmuls total                           48701100       0.0%    100.0%      0.0%
 number of processed stacks                444179       0.0%    100.0%      0.0%
 average stack size                                     0.0     109.6       0.0
 marketing flops                     3.280520E+12
 -------------------------------------------------------------------------------
 # multiplications                             24
 max memory usage/rank               1.584972E+09
 # max total images/rank                        2
 # max 3D layers                                1
 # MPI messages exchanged                   89088
 MPI messages size (bytes):
  total size                        57.710297E+09
  min size                         276.480000E+03
  max size                           2.312096E+06
  average size                     647.789812E+03
 MPI breakdown and total messages size (bytes):
             size <=      128                   0                        0
       128 < size <=     8192                   0                        0
      8192 < size <=    32768                   0                        0
     32768 < size <=   131072                   0                        0
    131072 < size <=  4194304               89088              57710299680
   4194304 < size <= 16777216                   0                        0
  16777216 < size                               0                        0
 -------------------------------------------------------------------------------

 *** WARNING in dbcsr_mm.F:290 :: Using a non-square number of MPI ranks ***
 *** might lead to poor performance. Used ranks: 128 Suggested: 121 256  ***

 -------------------------------------------------------------------------------
 -                                                                             -
 -                      DBCSR MESSAGE PASSING PERFORMANCE                      -
 -                                                                             -
 -------------------------------------------------------------------------------
 ROUTINE             CALLS      AVE VOLUME [Bytes]
 MP_Bcast               46                     12.
 MP_Allreduce          271                     15.
 MP_Alltoall           665                 560249.
 MP_ISend             1536                 306241.
 MP_IRecv             1536                 299989.
 -------------------------------------------------------------------------------

 -------------------------------------------------------------------------------
 -                                                                             -
 -                                DBM STATISTICS                               -
 -                                                                             -
 -------------------------------------------------------------------------------
    M  x    N  x    K                                          COUNT     PERCENT
 -------------------------------------------------------------------------------

 -------------------------------------------------------------------------------
 -                                                                             -
 -                                GRID STATISTICS                              -
 -                                                                             -
 -------------------------------------------------------------------------------
 LP    KERNEL             BACKEND                              COUNT     PERCENT
 4     collocate general  REF                                8914092      22.10%
 4     integrate general  REF                                8790422      21.80%
 3     collocate general  REF                                6193352      15.36%
 3     integrate general  REF                                6135666      15.21%
 2     collocate general  REF                                4924260      12.21%
 2     integrate general  REF                                4700430      11.66%
 5     integrate general  REF                                 405186       1.00%
 0     collocate general  REF                                 132096       0.33%
 0     integrate general  REF                                  66048       0.16%
 1     integrate general  REF                                  66048       0.16%
 -------------------------------------------------------------------------------

 MEMORY| Estimated peak process memory [MiB]                                1760

 -------------------------------------------------------------------------------
 ----                             MULTIGRID INFO                            ----
 -------------------------------------------------------------------------------
 count for grid        1:        1095836          cutoff [a.u.]          200.00
 count for grid        2:        1090900          cutoff [a.u.]           66.67
 count for grid        3:         715196          cutoff [a.u.]           22.22
 count for grid        4:         553949          cutoff [a.u.]            7.41
 total gridlevel count  :        3455881

 -------------------------------------------------------------------------------
 -                                                                             -
 -                         MESSAGE PASSING PERFORMANCE                         -
 -                                                                             -
 -------------------------------------------------------------------------------

 ROUTINE             CALLS      AVE VOLUME [Bytes]
 MP_Group                4
 MP_Bcast             2158                 312792.
 MP_Allreduce         2999                  36166.
 MP_Sync                50
 MP_Alltoall          1342               16795575.
 MP_SendRecv           508                   6330.
 MP_ISendRecv        11176                  61740.
 MP_Wait             20056
 MP_comm_split          23
 MP_ISend             8376                 256527.
 MP_IRecv             8376                 256527.
 MP_Recv               122                1694720.
 MP_Write_All            3                1797408.
 -------------------------------------------------------------------------------


 -------------------------------------------------------------------------------
 -                                                                             -
 -                           R E F E R E N C E S                               -
 -                                                                             -
 -------------------------------------------------------------------------------
 
 CP2K version 2022.1, the CP2K developers group (2022).
 CP2K is freely available from https://www.cp2k.org/ .

 Kuehne,Thomas D.; Iannuzzi,Marcella; Del Ben,Mauro;
 Rybkin,Vladimir V.; Seewald,Patrick; Stein,Frederick; Laino,Teodoro;
 Khaliullin,Rustam Z.; Schuett,Ole; Schiffmann,Florian; Golze,Dorothea;
 Wilhelm,Jan; Chulkov,Sergey; Bani-Hashemian,Mohammad Hossein;
 Weber,Valery; Borstnik,Urban; Taillefumier,Mathieu;
 Jakobovits,Alice Shoshana; Lazzaro,Alfio; Pabst,Hans; Mueller,Tiziano;
 Schade,Robert; Guidon,Manuel; Andermatt,Samuel; Holmberg,Nico;
 Schenter,Gregory K.; Hehn,Anna; Bussy,Augustin; Belleflamme,Fabian;
 Tabacchi,Gloria; Gloess,Andreas; Lass,Michael; Bethune,Iain;
 Mundy,Christopher J.; Plessl,Christian; Watkins,Matt;
 VandeVondele,Joost; Krack,Matthias; Hutter,Juerg. 
 The Journal of Chemical Physics, 152 (19), (2020). 
 CP2K: An electronic structure and molecular dynamics software package -
 Quickstep: Efficient and accurate electronic structure calculations.
 https://doi.org/10.1063/5.0007045

 Goerigk, Lars; Hansen, Andreas; Bauer, Christoph; Ehrlich, Stephan;
 Najibi, Asim; Grimme, Stefan. , 19 (48), (2017). 
 A look at the density functional theory zoo with the advanced GMTKN55 database
 for general main group thermochemistry, kinetics and noncovalent interactions.
 https://doi.org/10.1039/C7CP04913G

 Bani-Hashemian, MH; Bruck, S; Luisier, M; VandeVondele, J. 
 JOURNAL OF CHEMICAL PHYSICS, 144 (4), 044113 (2016). 
 A generalized Poisson solver for first-principles device simulations.
 https://doi.org/10.1063/1.4940796

 Schuett, Ole; Messmer, Peter; Hutter, Juerg; VandeVondele, Joost. 
 Electronic Structure Calculations on Graphics Processing Units, John
 Wiley & Sons, Ltd, 173-190 (2016). 
 GPU-Accelerated Sparse Matrix-Matrix Multiplication for
 Linear Scaling Density Functional Theory.
 https://doi.org/10.1002/9781118670712.ch8

 Heinecke, A; Henry, G; Hutchinson, M; Pabst, H. 
 Proceedings of Intl. Supercomputing Conference, 981-991 (2016). 
 LIBXSMM: Accelerating Small Matrix Multiplications
 by Runtime Code Generation.
 https://doi.org/10.1109/SC.2016.83

 Borstnik, U; VandeVondele, J; Weber, V; Hutter, J. 
 PARALLEL COMPUTING, 40 (5-6), 47-58 (2014). 
 Sparse matrix multiplication: The distributed block-compressed sparse
 row library.
 https://doi.org/10.1016/j.parco.2014.03.012

 Hutter, J; Iannuzzi, M; Schiffmann, F; VandeVondele, J. 
 WIREs Comput Mol Sci., 4 (1), 15-25 (2014). 
 CP2K: atomistic simulations of condensed matter systems.
 https://doi.org/10.1002/wcms.1159

 Marek, A; Blum, V; Johanni, R; Havu, V; Lang, B; Auckenthaler, T;
 Heinecke, A; Bungartz, H; Lederer, H. 
 Journal of Physics: Condensed Matter, 26 (21), (2014). 
 The ELPA library: scalable parallel eigenvalue solutions for
 electronic structure
 theory and computational science.
 https://doi.org/10.1088/0953-8984/26/21/213201

 Grimme, S; Ehrlich, S; Goerigk, L. 
 JOURNAL OF COMPUTATIONAL CHEMISTRY, 32, 1456 (2011). 
 Effect of the damping function in dispersion corrected density functional theory.
 https://doi.org/10.1002/jcc.21759

 Grimme, S; Antony, J; Ehrlich, S; Krieg, H. 
 JOURNAL OF CHEMICAL PHYSICS, 132 (15), 154104 (2010). 
 A consistent and accurate ab initio parametrization of density
 functional dispersion correction (DFT-D) for the 94 elements H-Pu.
 https://doi.org/10.1063/1.3382344

 VandeVondele, J; Hutter, J. 
 JOURNAL OF CHEMICAL PHYSICS, 127 (11), 114105 (2007). 
 Gaussian basis sets for accurate calculations on molecular systems in
 gas and condensed phases.
 https://doi.org/10.1063/1.2770708

 Krack, M. 
 THEORETICAL CHEMISTRY ACCOUNTS, 114 (1-3), 145-152 (2005). 
 Pseudopotentials for H to Kr optimized for gradient-corrected
 exchange-correlation functionals.
 https://doi.org/10.1007/s00214-005-0655-y

 VandeVondele, J; Krack, M; Mohamed, F; Parrinello, M; Chassaing, T;
 Hutter, J. COMPUTER PHYSICS COMMUNICATIONS, 167 (2), 103-128 (2005). 
 QUICKSTEP: Fast and accurate density functional calculations using a
 mixed Gaussian and plane waves approach.
 https://doi.org/10.1016/j.cpc.2004.12.014

 Frigo, M; Johnson, SG. 
 PROCEEDINGS OF THE IEEE, 93 (2), 216-231 (2005). 
 The design and implementation of FFTW3.
 https://doi.org/10.1109/JPROC.2004.840301

 Hartwigsen, C; Goedecker, S; Hutter, J. 
 PHYSICAL REVIEW B, 58 (7), 3641-3662 (1998). 
 Relativistic separable dual-space Gaussian pseudopotentials from H to Rn.
 https://doi.org/10.1103/PhysRevB.58.3641

 Lippert, G; Hutter, J; Parrinello, M. 
 MOLECULAR PHYSICS, 92 (3), 477-487 (1997). 
 A hybrid Gaussian and plane wave density functional scheme.
 https://doi.org/10.1080/002689797170220

 Perdew, JP; Burke, K; Ernzerhof, M. 
 PHYSICAL REVIEW LETTERS, 77 (18), 3865-3868 (1996). 
 Generalized gradient approximation made simple.
 https://doi.org/10.1103/PhysRevLett.77.3865

 Goedecker, S; Teter, M; Hutter, J. 
 PHYSICAL REVIEW B, 54 (3), 1703-1710 (1996). 
 Separable dual-space Gaussian pseudopotentials.
 https://doi.org/10.1103/PhysRevB.54.1703


 -------------------------------------------------------------------------------
 -                                                                             -
 -                                T I M I N G                                  -
 -                                                                             -
 -------------------------------------------------------------------------------
 SUBROUTINE                       CALLS  ASD         SELF TIME        TOTAL TIME
                                MAXIMUM       AVERAGE  MAXIMUM  AVERAGE  MAXIMUM
 CP2K                                 1  1.0    0.019    0.030  161.154  161.155
 qs_forces                            1  2.0    0.002    0.002  160.831  160.832
 qs_energies                          1  3.0    0.000    0.001  154.614  154.619
 scf_env_do_scf                       1  4.0    0.000    0.000  145.484  145.626
 scf_env_do_scf_inner_loop           21  5.0    0.002    0.004  145.481  145.623
 rebuild_ks_matrix                   22  6.9    0.000    0.000   80.250   80.267
 qs_ks_build_kohn_sham_matrix        22  7.9    0.004    0.004   80.250   80.267
 qs_ks_update_qs_env                 21  6.0    0.000    0.000   76.178   76.195
 pw_transfer                       1148 12.1    0.083    0.107   50.552   51.641
 fft_wrap_pw1pw2                   1148 13.1    0.011    0.014   50.469   51.534
 fft_wrap_pw1pw2_200               1016 14.4    3.386    4.049   49.802   50.805
 pw_poisson_solve                    22  8.9    0.002    0.005   42.955   43.008
 fft3d_ps                          1148 15.1   14.482   16.333   40.635   42.212
 qs_scf_new_mos                      21  6.0    0.001    0.002   41.806   41.874
 implicit_poisson_solver_mixed_      22  9.9    0.908    1.106   40.447   40.475
 eigensolver                         21  7.0    0.002    0.003   39.339   39.472
 derive_fft                         132 12.0    0.008    0.010   28.328   28.411
 cp_fm_diag_elpa                     23  8.1    0.000    0.001   28.264   28.344
 cp_fm_redistribute_end              23  9.1    3.782   27.978    3.837   28.015
 cp_fm_diag_elpa_base                23  9.1   23.816   27.362   24.042   27.608
 mp_alltoall_z22v                  1148 17.1   21.942   27.141   21.942   27.141
 qs_rho_update_rho_low               22  6.0    0.000    0.000   25.305   25.314
 calculate_rho_elec                  22  7.0    0.043    0.053   25.305   25.314
 sum_up_and_integrate                22  8.9    0.119    0.158   25.026   25.054
 integrate_v_rspace                  22  9.9    0.001    0.001   24.907   24.963
 apply_P_operator                   110 11.1    0.588    0.654   24.232   24.303
 grid_collocate_task_list            22  8.0   15.997   19.983   15.997   19.983
 grid_integrate_task_list            22 10.9   14.965   18.447   14.965   18.447
 x_to_yz                            661 16.4    2.814    3.686   16.723   17.470
 rs_pw_transfer                     180 10.4    0.002    0.003   11.732   14.772
 cp_fm_triangular_multiply           63  8.0   12.666   12.826   12.666   12.826
 yz_to_x                            355 16.4    0.972    1.141    8.920   12.133
 density_rs2pw                       22  8.0    0.001    0.002    8.762   11.871
 qs_vxc_create                       22  8.9    0.001    0.001   10.905   11.041
 xc_vxc_pw_create                    22  9.9    0.189    0.234   10.904   11.040
 mp_waitany                        8376 12.2    5.483    8.813    5.483    8.813
 rs_pw_transfer_RS2PW_200            24  9.9    1.552    1.735    5.603    8.638
 xc_pw_derive                       132 11.9    0.002    0.007    7.692    8.509
 apply_poisson_operator_fft          22 10.9    0.000    0.000    7.169    7.289
 mp_alltoall_d11v                   330 10.2    4.490    7.214    4.490    7.214
 apply_inv_laplace_operator_fft      68 11.6    0.170    0.198    6.628    6.861
 rs_gather_matrices                  22 10.9    0.027    0.035    3.695    6.393
 potential_pw2rs                     22 10.9    0.007    0.008    6.235    6.293
 xc_pw_divergence                    22 10.9    0.001    0.001    5.217    5.851
 scf_post_calculation_gpw             1  4.0    0.000    0.001    5.763    5.769
 write_available_results              1  5.0    0.000    0.000    5.762    5.769
 xc_rho_set_and_dset_create          22 10.9    0.110    0.129    5.299    5.648
 ps_implicit_compute_error_fft       44 10.9    0.277    0.338    4.794    5.142
 ps_implicit_compute_veps            22 10.9    0.128    0.152    4.814    4.900
 pw_scatter_p                       727 15.3    4.095    4.805    4.095    4.805
 qs_ks_update_qs_env_forces           1  3.0    0.000    0.000    4.106    4.107
 write_mo_dependent_results           1  6.0    0.000    0.000    2.622    3.897
 calculate_projected_dos              1  7.0    0.365    1.781    2.622    3.897
 rs_pw_transfer_PW2RS_200            24 12.5    1.820    1.894    3.782    3.882
 pw_derive                          528 13.0    3.356    3.585    3.356    3.585
 -------------------------------------------------------------------------------

 The number of warnings for this run is : 1
 
 -------------------------------------------------------------------------------
  **** **** ******  **  PROGRAM ENDED AT                 2023-12-02 13:56:17.590
 ***** ** ***  *** **   PROGRAM RAN ON                                     cu098
 **    ****   ******    PROGRAM RAN BY                                     jxzhu
 ***** **    ** ** **   PROGRAM PROCESS ID                                  8139
  **** **  *******  **  PROGRAM STOPPED IN /public/home/jxzhu/tmp_calc/9c778f859
                                           3eb8265636f214480dea28f4ea0088e/calc/
                                           001600.000/search_lo.000003
