 DBCSR| CPU Multiplication driver                                           XSMM
 DBCSR| Multrec recursion limit                                              512
 DBCSR| Multiplication stack size                                           1000
 DBCSR| Maximum elements for images                                    UNLIMITED
 DBCSR| Multiplicative factor virtual images                                   1
 DBCSR| Use multiplication densification                                       T
 DBCSR| Multiplication size stacks                                             3
 DBCSR| Use memory pool for CPU allocation                                     F
 DBCSR| Number of 3D layers                                               SINGLE
 DBCSR| Use MPI memory allocation                                              F
 DBCSR| Use RMA algorithm                                                      F
 DBCSR| Use Communication thread                                               T
 DBCSR| Communication thread load                                             87
 DBCSR| MPI: My node id                                                        0
 DBCSR| MPI: Number of nodes                                                  32
 DBCSR| OMP: Current number of threads                                         1
 DBCSR| OMP: Max number of threads                                             1
 DBCSR| Split modifier for TAS multiplication algorithm                  1.0E+00


  **** **** ******  **  PROGRAM STARTED AT               2023-12-03 00:26:57.042
 ***** ** ***  *** **   PROGRAM STARTED ON                                 cu042
 **    ****   ******    PROGRAM STARTED BY                                 jxzhu
 ***** **    ** ** **   PROGRAM PROCESS ID                                 49104
  **** **  *******  **  PROGRAM STARTED IN /public/home/jxzhu/tmp_calc/04c0855f9
                                           8753fac23fde4df51ba20f3741a9e9a/calc/
                                           task.001.000027

 CP2K| version string:                                       CP2K version 2022.1
 CP2K| source code revision number:                                  git:2caeb6f
 CP2K| cp2kflags: omp libint fftw3 libxc elpa parallel mpi3 scalapack cosma xsmm
 CP2K|             plumed2 spglib mkl sirius libvori libbqb
 CP2K| is freely available from                            https://www.cp2k.org/
 CP2K| Program compiled at                           Mon Jul 3 17:37:06 CST 2023
 CP2K| Program compiled on                                                 mu003
 CP2K| Program compiled for                                                local
 CP2K| Data directory path                             /public/home/jxzhu/basis/
 CP2K| Input file name                                                 input.inp
 
 GLOBAL| Force Environment number                                              1
 GLOBAL| Basis set file name                                        BASIS_MOLOPT
 GLOBAL| Potential file name                                      GTH_POTENTIALS
 GLOBAL| MM Potential file name                                     MM_POTENTIAL
 GLOBAL| Coordinate file name                                          coord.xyz
 GLOBAL| Method name                                                        CP2K
 GLOBAL| Project name                                                       cp2k
 GLOBAL| Run type                                                   ENERGY_FORCE
 GLOBAL| FFT library                                                       FFTW3
 GLOBAL| Diagonalization library                                            ELPA
 GLOBAL| Minimum number of eigenvectors for ELPA usage                        16
 GLOBAL| Orthonormality check for eigenvectors                          DISABLED
 GLOBAL| Matrix multiplication library                                     COSMA
 GLOBAL| All-to-all communication in single precision                          F
 GLOBAL| FFTs using library dependent lengths                                  T
 GLOBAL| Grid backend                                                       AUTO
 GLOBAL| Global print level                                               MEDIUM
 GLOBAL| MPI I/O enabled                                                       T
 GLOBAL| Total number of message passing processes                            32
 GLOBAL| Number of threads for this process                                    1
 GLOBAL| This output is from process                                           0
 GLOBAL| Stack size for threads created by OpenMP (OMP_STACKSIZE)        default
 GLOBAL| CPU model name                 Intel(R) Xeon(R) Gold 6338 CPU @ 2.00GHz
 GLOBAL| CPUID                                                              1003

 MEMORY| system memory details [Kb]
 MEMORY|                        rank 0           min           max       average
 MEMORY| MemTotal            263619172     263619172     263619172     263619172
 MEMORY| MemFree             173583972     173571928     173583972     173577501
 MEMORY| Buffers                  3320          3320          3320          3320
 MEMORY| Cached                8966372       8966372       8966372       8966372
 MEMORY| Slab                  1927080       1927080       1927080       1927080
 MEMORY| SReclaimable           246172        246172        246172        246172
 MEMORY| MemLikelyFree       182799836     182787792     182799836     182793365


 *** Fundamental physical constants (SI units) ***

 *** Literature: B. J. Mohr and B. N. Taylor,
 ***             CODATA recommended values of the fundamental physical
 ***             constants: 2006, Web Version 5.1
 ***             http://physics.nist.gov/constants

 Speed of light in vacuum [m/s]                             2.99792458000000E+08
 Magnetic constant or permeability of vacuum [N/A**2]       1.25663706143592E-06
 Electric constant or permittivity of vacuum [F/m]          8.85418781762039E-12
 Planck constant (h) [J*s]                                  6.62606896000000E-34
 Planck constant (h-bar) [J*s]                              1.05457162825177E-34
 Elementary charge [C]                                      1.60217648700000E-19
 Electron mass [kg]                                         9.10938215000000E-31
 Electron g factor [ ]                                     -2.00231930436220E+00
 Proton mass [kg]                                           1.67262163700000E-27
 Fine-structure constant                                    7.29735253760000E-03
 Rydberg constant [1/m]                                     1.09737315685270E+07
 Avogadro constant [1/mol]                                  6.02214179000000E+23
 Boltzmann constant [J/K]                                   1.38065040000000E-23
 Atomic mass unit [kg]                                      1.66053878200000E-27
 Bohr radius [m]                                            5.29177208590000E-11

 *** Conversion factors ***

 [u] -> [a.u.]                                              1.82288848426455E+03
 [Angstrom] -> [Bohr] = [a.u.]                              1.88972613288564E+00
 [a.u.] = [Bohr] -> [Angstrom]                              5.29177208590000E-01
 [a.u.] -> [s]                                              2.41888432650478E-17
 [a.u.] -> [fs]                                             2.41888432650478E-02
 [a.u.] -> [J]                                              4.35974393937059E-18
 [a.u.] -> [N]                                              8.23872205491840E-08
 [a.u.] -> [K]                                              3.15774647902944E+05
 [a.u.] -> [kJ/mol]                                         2.62549961709828E+03
 [a.u.] -> [kcal/mol]                                       6.27509468713739E+02
 [a.u.] -> [Pa]                                             2.94210107994716E+13
 [a.u.] -> [bar]                                            2.94210107994716E+08
 [a.u.] -> [atm]                                            2.90362800883016E+08
 [a.u.] -> [eV]                                             2.72113838565563E+01
 [a.u.] -> [Hz]                                             6.57968392072181E+15
 [a.u.] -> [1/cm] (wave numbers)                            2.19474631370540E+05
 [a.u./Bohr**2] -> [1/cm]                                   5.14048714338585E+03
 

 CELL_TOP| Volume [angstrom^3]:                                     12686.086737
 CELL_TOP| Vector a [angstrom    16.869     0.000     0.000   |a| =    16.869000
 CELL_TOP| Vector b [angstrom    -8.434    14.609     0.000   |b| =    16.868929
 CELL_TOP| Vector c [angstrom     0.000     0.000    51.478   |c| =    51.477900
 CELL_TOP| Angle (b,c), alpha [degree]:                                90.000000
 CELL_TOP| Angle (a,c), beta  [degree]:                                90.000000
 CELL_TOP| Angle (a,b), gamma [degree]:                               120.000140
 CELL_TOP| Numerically orthorhombic:                                          NO
 
 GENERATE|  Preliminary Number of Bonds generated:                             0
 GENERATE|  Achieved consistency in connectivity generation.

 CELL| Volume [angstrom^3]:                                         12686.086737
 CELL| Vector a [angstrom]:      16.869     0.000     0.000   |a| =    16.869000
 CELL| Vector b [angstrom]:      -8.434    14.609     0.000   |b| =    16.868929
 CELL| Vector c [angstrom]:       0.000     0.000    51.478   |c| =    51.477900
 CELL| Angle (b,c), alpha [degree]:                                    90.000000
 CELL| Angle (a,c), beta  [degree]:                                    90.000000
 CELL| Angle (a,b), gamma [degree]:                                   120.000140
 CELL| Numerically orthorhombic:                                              NO

 CELL_REF| Volume [angstrom^3]:                                     12686.086737
 CELL_REF| Vector a [angstrom    16.869     0.000     0.000   |a| =    16.869000
 CELL_REF| Vector b [angstrom    -8.434    14.609     0.000   |b| =    16.868929
 CELL_REF| Vector c [angstrom     0.000     0.000    51.478   |c| =    51.477900
 CELL_REF| Angle (b,c), alpha [degree]:                                90.000000
 CELL_REF| Angle (a,c), beta  [degree]:                                90.000000
 CELL_REF| Angle (a,b), gamma [degree]:                               120.000140
 CELL_REF| Numerically orthorhombic:                                          NO

 *******************************************************************************
 *******************************************************************************
 **                                                                           **
 **     #####                         ##              ##                      **
 **    ##   ##            ##          ##              ##                      **
 **   ##     ##                       ##            ######                    **
 **   ##     ##  ##   ##  ##   #####  ##  ##   ####   ##    #####    #####    **
 **   ##     ##  ##   ##  ##  ##      ## ##   ##      ##   ##   ##  ##   ##   **
 **   ##  ## ##  ##   ##  ##  ##      ####     ###    ##   ######   ######    **
 **    ##  ###   ##   ##  ##  ##      ## ##      ##   ##   ##       ##        **
 **     #######   #####   ##   #####  ##  ##  ####    ##    #####   ##        **
 **           ##                                                    ##        **
 **                                                                           **
 **                                                ... make the atoms dance   **
 **                                                                           **
 **            Copyright (C) by CP2K developers group (2000-2022)             **
 **                      J. Chem. Phys. 152, 194103 (2020)                    **
 **                                                                           **
 *******************************************************************************

 DFT| Spin restricted Kohn-Sham (RKS) calculation                            RKS
 DFT| Multiplicity                                                             1
 DFT| Number of spin states                                                    1
 DFT| Charge                                                                   0
 DFT| Self-interaction correction (SIC)                                       NO
 DFT| Cutoffs: density                                              1.000000E-10
 DFT|          gradient                                             1.000000E-10
 DFT|          tau                                                  1.000000E-10
 DFT|          cutoff_smoothing_range                               0.000000E+00
 DFT| XC density smoothing                                                  NONE
 DFT| XC derivatives                                                          PW

 FUNCTIONAL| PBE:
 FUNCTIONAL| J.P.Perdew, K.Burke, M.Ernzerhof, Phys. Rev. Letter, vol. 77, n 18,
 FUNCTIONAL|  pp. 3865-3868, (1996){spin unpolarized}                           

 vdW POTENTIAL|                                                   Pair Potential
 vdW POTENTIAL|          DFT-D3 (Version 3.1)
 vdW POTENTIAL|          Potential Form: S. Grimme et al, JCP 132: 154104 (2010)
 vdW POTENTIAL|          Zero Damping
 vdW POTENTIAL|          Cutoff Radius [Bohr]:                             20.00
 vdW POTENTIAL|          s6 Scaling Factor:                               1.0000
 vdW POTENTIAL|          sr6 Scaling Factor:                              1.2170
 vdW POTENTIAL|          s8 Scaling Factor:                               0.7220
 vdW POTENTIAL|          Cutoff for CN calculation:                   0.1000E-05

 QS| Method:                                                                 GPW
 QS| Density plane wave grid type                        NON-SPHERICAL FULLSPACE
 QS| Number of grid levels:                                                    4
 QS| Density cutoff [a.u.]:                                                200.0
 QS| Multi grid cutoff [a.u.]: 1) grid level                               200.0
 QS|                           2) grid level                                66.7
 QS|                           3) grid level                                22.2
 QS|                           4) grid level                                 7.4
 QS| Grid level progression factor:                                          3.0
 QS| Relative density cutoff [a.u.]:                                        20.0
 QS| Interaction thresholds: eps_pgf_orb:                                3.2E-07
 QS|                         eps_filter_matrix:                          0.0E+00
 QS|                         eps_core_charge:                            1.0E-15
 QS|                         eps_rho_gspace:                             1.0E-13
 QS|                         eps_rho_rspace:                             1.0E-13
 QS|                         eps_gvg_rspace:                             3.2E-07
 QS|                         eps_ppl:                                    1.0E-02
 QS|                         eps_ppnl:                                   3.2E-09


 ATOMIC KIND INFORMATION

  1. Atomic kind: Pt                                    Number of atoms:     216

     Orbital Basis Set                      DZVP-A5-Q10-323-MOL-T1-DERIVED_SET-1

       Number of orbital shell sets:                                           1
       Number of orbital shells:                                               6
       Number of primitive Cartesian functions:                                5
       Number of Cartesian basis functions:                                   23
       Number of spherical basis functions:                                   20
       Norm type:                                                              2

       Normalised Cartesian orbitals:

                        Set   Shell   Orbital            Exponent    Coefficient

                          1       1    2s                2.521825       0.177473
                                                         1.453920      -0.063399
                                                         0.614053      -0.407089
                                                         0.232656       0.262254
                                                         0.074788       0.047371

                          1       2    3s                2.521825      -0.049056
                                                         1.453920       0.044904
                                                         0.614053      -0.009756
                                                         0.232656      -0.144709
                                                         0.074788       0.144085

                          1       3    3px               2.521825      -0.317572
                                                         1.453920       0.534826
                                                         0.614053      -0.489458
                                                         0.232656       0.245631
                                                         0.074788       0.018221
                          1       3    3py               2.521825      -0.317572
                                                         1.453920       0.534826
                                                         0.614053      -0.489458
                                                         0.232656       0.245631
                                                         0.074788       0.018221
                          1       3    3pz               2.521825      -0.317572
                                                         1.453920       0.534826
                                                         0.614053      -0.489458
                                                         0.232656       0.245631
                                                         0.074788       0.018221

                          1       4    4dx2              2.521825       3.008522
                                                         1.453920      -1.224251
                                                         0.614053       0.225691
                                                         0.232656       0.125144
                                                         0.074788      -0.015348
                          1       4    4dxy              2.521825       5.210912
                                                         1.453920      -2.120465
                                                         0.614053       0.390909
                                                         0.232656       0.216756
                                                         0.074788      -0.026584
                          1       4    4dxz              2.521825       5.210912
                                                         1.453920      -2.120465
                                                         0.614053       0.390909
                                                         0.232656       0.216756
                                                         0.074788      -0.026584
                          1       4    4dy2              2.521825       3.008522
                                                         1.453920      -1.224251
                                                         0.614053       0.225691
                                                         0.232656       0.125144
                                                         0.074788      -0.015348
                          1       4    4dyz              2.521825       5.210912
                                                         1.453920      -2.120465
                                                         0.614053       0.390909
                                                         0.232656       0.216756
                                                         0.074788      -0.026584
                          1       4    4dz2              2.521825       3.008522
                                                         1.453920      -1.224251
                                                         0.614053       0.225691
                                                         0.232656       0.125144
                                                         0.074788      -0.015348

                          1       5    5dx2              2.521825       0.698026
                                                         1.453920      -1.511486
                                                         0.614053      -0.335394
                                                         0.232656      -0.025564
                                                         0.074788      -0.002699
                          1       5    5dxy              2.521825       1.209017
                                                         1.453920      -2.617970
                                                         0.614053      -0.580920
                                                         0.232656      -0.044277
                                                         0.074788      -0.004674
                          1       5    5dxz              2.521825       1.209017
                                                         1.453920      -2.617970
                                                         0.614053      -0.580920
                                                         0.232656      -0.044277
                                                         0.074788      -0.004674
                          1       5    5dy2              2.521825       0.698026
                                                         1.453920      -1.511486
                                                         0.614053      -0.335394
                                                         0.232656      -0.025564
                                                         0.074788      -0.002699
                          1       5    5dyz              2.521825       1.209017
                                                         1.453920      -2.617970
                                                         0.614053      -0.580920
                                                         0.232656      -0.044277
                                                         0.074788      -0.004674
                          1       5    5dz2              2.521825       0.698026
                                                         1.453920      -1.511486
                                                         0.614053      -0.335394
                                                         0.232656      -0.025564
                                                         0.074788      -0.002699

                          1       6    6dx2              2.521825       0.831079
                                                         1.453920      -0.709226
                                                         0.614053      -0.137351
                                                         0.232656       0.068642
                                                         0.074788       0.011745
                          1       6    6dxy              2.521825       1.439472
                                                         1.453920      -1.228415
                                                         0.614053      -0.237899
                                                         0.232656       0.118891
                                                         0.074788       0.020343
                          1       6    6dxz              2.521825       1.439472
                                                         1.453920      -1.228415
                                                         0.614053      -0.237899
                                                         0.232656       0.118891
                                                         0.074788       0.020343
                          1       6    6dy2              2.521825       0.831079
                                                         1.453920      -0.709226
                                                         0.614053      -0.137351
                                                         0.232656       0.068642
                                                         0.074788       0.011745
                          1       6    6dyz              2.521825       1.439472
                                                         1.453920      -1.228415
                                                         0.614053      -0.237899
                                                         0.232656       0.118891
                                                         0.074788       0.020343
                          1       6    6dz2              2.521825       0.831079
                                                         1.453920      -0.709226
                                                         0.614053      -0.137351
                                                         0.232656       0.068642
                                                         0.074788       0.011745

       Atomic covalent radius [Angstrom]:                                  1.300

       Atomic van der Waals radius [Angstrom]:                             1.750

     GTH Potential information for                                   GTH-PBE-q10

       Description:                       Goedecker-Teter-Hutter pseudopotential
                                           Goedecker et al., PRB 54, 1703 (1996)
                                          Hartwigsen et al., PRB 58, 3641 (1998)
                                                      Krack, TCA 114, 145 (2005)

       Gaussian exponent of the core charge distribution:               1.317676
       Electronic configuration (s p d ...):                           1   0   9

       Parameters of the local part of the GTH pseudopotential:

                          rloc        C1          C2          C3          C4
                        0.616000   11.313635

       Parameters of the non-local part of the GTH pseudopotential:

                   l      r(l)      h(i,j,l)

                   0    0.550904    4.733491   -1.784594
                                   -1.784594    2.303901
                   1    0.674138    2.534798   -1.778066
                                   -1.778066    2.103836
                   2    0.457392   -7.264011    2.558665
                                    2.558665   -2.901253


 MOLECULE KIND INFORMATION


 All atoms are their own molecule, skipping detailed information


 TOTAL NUMBERS AND MAXIMUM NUMBERS

  Total number of            - Atomic kinds:                                   1
                             - Atoms:                                        216
                             - Shell sets:                                   216
                             - Shells:                                      1296
                             - Primitive Cartesian functions:               1080
                             - Cartesian basis functions:                   4968
                             - Spherical basis functions:                   4320

  Maximum angular momentum of- Orbital basis functions:                        2
                             - Local part of the GTH pseudopotential:          0
                             - Non-local part of the GTH pseudopotential:      4


 MODULE QUICKSTEP:  ATOMIC COORDINATES IN angstrom

 Atom  Kind  Element       X           Y           Z          Z(eff)       Mass
    1   1 Pt  78       2.054502    0.614470   19.779933      10.0000    195.0840
    2   1 Pt  78       4.934503    0.654470   19.879932      10.0000    195.0840
    3   1 Pt  78       7.814503    0.344470   19.979934      10.0000    195.0840
    4   1 Pt  78      10.604503    0.444470   20.109935      10.0000    195.0840
    5   1 Pt  78      13.394503    0.684470   19.799934      10.0000    195.0840
    6   1 Pt  78      16.164503    0.594470   19.939933      10.0000    195.0840
    7   1 Pt  78       3.484503    3.034471   19.729934      10.0000    195.0840
    8   1 Pt  78       6.444502    3.004471   19.989936      10.0000    195.0840
    9   1 Pt  78       9.124503    2.904470   19.899936      10.0000    195.0840
   10   1 Pt  78      11.884503    2.994471   20.069934      10.0000    195.0840
   11   1 Pt  78      14.794503    3.054471   19.999935      10.0000    195.0840
   12   1 Pt  78       0.714502    2.924470   19.949932      10.0000    195.0840
   13   1 Pt  78       4.984503    5.354471   19.729934      10.0000    195.0840
   14   1 Pt  78       7.744502    5.354471   19.969936      10.0000    195.0840
   15   1 Pt  78      10.444503    5.334471   19.959934      10.0000    195.0840
   16   1 Pt  78      13.324503    5.424471   19.699935      10.0000    195.0840
   17   1 Pt  78      -0.615498    5.374471   19.929935      10.0000    195.0840
   18   1 Pt  78       2.234503    5.314470   19.699935      10.0000    195.0840
   19   1 Pt  78       6.344503    7.834471   19.779933      10.0000    195.0840
   20   1 Pt  78       9.124503    7.824471   19.889934      10.0000    195.0840
   21   1 Pt  78      11.844503    7.724471   19.759937      10.0000    195.0840
   22   1 Pt  78      -2.015498    7.784471   19.809932      10.0000    195.0840
   23   1 Pt  78       0.714502    7.814471   19.729934      10.0000    195.0840
   24   1 Pt  78       3.494503    7.774471   19.749935      10.0000    195.0840
   25   1 Pt  78       7.564503   10.354471   20.019931      10.0000    195.0840
   26   1 Pt  78      10.584503   10.164471   19.879932      10.0000    195.0840
   27   1 Pt  78      -3.525498   10.024471   19.759937      10.0000    195.0840
   28   1 Pt  78      -0.745498   10.244471   19.819934      10.0000    195.0840
   29   1 Pt  78       2.024502   10.174470   19.829936      10.0000    195.0840
   30   1 Pt  78       4.784503   10.284471   19.879932      10.0000    195.0840
   31   1 Pt  78       9.034502   12.794471   19.989936      10.0000    195.0840
   32   1 Pt  78      -5.015498   12.814471   19.879932      10.0000    195.0840
   33   1 Pt  78      -2.225498   12.684471   19.899936      10.0000    195.0840
   34   1 Pt  78       0.734502   12.614471   20.009933      10.0000    195.0840
   35   1 Pt  78       3.434503   12.644472   19.779933      10.0000    195.0840
   36   1 Pt  78       6.324503   12.674470   19.769935      10.0000    195.0840
   37   1 Pt  78       0.884502    1.204470   22.179935      10.0000    195.0840
   38   1 Pt  78       3.634503    1.314471   22.219932      10.0000    195.0840
   39   1 Pt  78       6.414503    1.004471   22.209934      10.0000    195.0840
   40   1 Pt  78       9.184503    1.084471   22.239932      10.0000    195.0840
   41   1 Pt  78      12.104502    1.294470   22.299934      10.0000    195.0840
   42   1 Pt  78      14.924503    1.264470   22.239932      10.0000    195.0840
   43   1 Pt  78       2.274502    3.854471   22.149932      10.0000    195.0840
   44   1 Pt  78       4.954503    3.764471   22.229934      10.0000    195.0840
   45   1 Pt  78       7.684503    3.574471   22.369933      10.0000    195.0840
   46   1 Pt  78      10.534503    3.704471   22.349933      10.0000    195.0840
   47   1 Pt  78      13.404503    3.654471   22.289932      10.0000    195.0840
   48   1 Pt  78      -0.575498    3.764471   22.349933      10.0000    195.0840
   49   1 Pt  78       3.634503    6.254471   22.109935      10.0000    195.0840
   50   1 Pt  78       6.404502    6.124471   22.189933      10.0000    195.0840
   51   1 Pt  78       9.154502    6.104471   22.279933      10.0000    195.0840
   52   1 Pt  78      12.014503    6.104471   22.199935      10.0000    195.0840
   53   1 Pt  78      -2.035498    6.054471   22.159934      10.0000    195.0840
   54   1 Pt  78       0.864502    6.224471   22.219932      10.0000    195.0840
   55   1 Pt  78       5.054502    8.574471   22.149932      10.0000    195.0840
   56   1 Pt  78       7.744502    8.624470   22.209934      10.0000    195.0840
   57   1 Pt  78      10.664503    8.534471   22.129936      10.0000    195.0840
   58   1 Pt  78      -3.465498    8.454470   22.169933      10.0000    195.0840
   59   1 Pt  78      -0.625498    8.554471   22.269935      10.0000    195.0840
   60   1 Pt  78       2.254502    8.594471   22.239932      10.0000    195.0840
   61   1 Pt  78       6.374503   11.124470   22.369933      10.0000    195.0840
   62   1 Pt  78       9.244502   11.014471   22.219932      10.0000    195.0840
   63   1 Pt  78      -4.815498   10.994471   22.199935      10.0000    195.0840
   64   1 Pt  78      -2.075498   10.924471   22.199935      10.0000    195.0840
   65   1 Pt  78       0.794502   10.954471   22.319934      10.0000    195.0840
   66   1 Pt  78       3.654503   11.024471   22.149932      10.0000    195.0840
   67   1 Pt  78       7.844503   13.444471   22.269935      10.0000    195.0840
   68   1 Pt  78      -6.205498   13.444471   22.179935      10.0000    195.0840
   69   1 Pt  78      -3.415498   13.334471   22.199935      10.0000    195.0840
   70   1 Pt  78      -0.645498   13.264471   22.329936      10.0000    195.0840
   71   1 Pt  78       2.334503   13.324471   22.319934      10.0000    195.0840
   72   1 Pt  78       5.144503   13.564472   22.099933      10.0000    195.0840
   73   1 Pt  78      -7.665498   14.254471   24.509937      10.0000    195.0840
   74   1 Pt  78      -4.865498   14.274472   24.489932      10.0000    195.0840
   75   1 Pt  78      -1.985498   14.144471   24.529933      10.0000    195.0840
   76   1 Pt  78       0.714502   14.084471   24.619933      10.0000    195.0840
   77   1 Pt  78       3.554502   14.184471   24.619933      10.0000    195.0840
   78   1 Pt  78       6.314502   14.284470   24.659934      10.0000    195.0840
   79   1 Pt  78       2.174503    2.154470   24.509937      10.0000    195.0840
   80   1 Pt  78       5.024503    2.104471   24.579936      10.0000    195.0840
   81   1 Pt  78       7.784502    2.054471   24.649936      10.0000    195.0840
   82   1 Pt  78      10.564503    1.874471   24.599933      10.0000    195.0840
   83   1 Pt  78      13.424503    1.994471   24.649936      10.0000    195.0840
   84   1 Pt  78      -0.595498    2.054471   24.669933      10.0000    195.0840
   85   1 Pt  78       3.634503    4.544470   24.519935      10.0000    195.0840
   86   1 Pt  78       6.414503    4.504471   24.539935      10.0000    195.0840
   87   1 Pt  78       9.324503    4.424470   24.679935      10.0000    195.0840
   88   1 Pt  78      11.954503    4.434471   24.619933      10.0000    195.0840
   89   1 Pt  78      -2.125498    4.444470   24.559932      10.0000    195.0840
   90   1 Pt  78       0.854502    4.504471   24.569934      10.0000    195.0840
   91   1 Pt  78       4.964503    7.024470   24.549934      10.0000    195.0840
   92   1 Pt  78       7.804503    6.864471   24.539935      10.0000    195.0840
   93   1 Pt  78      10.544503    6.974471   24.489932      10.0000    195.0840
   94   1 Pt  78      -3.525498    6.864471   24.559932      10.0000    195.0840
   95   1 Pt  78      -0.615498    6.894471   24.659934      10.0000    195.0840
   96   1 Pt  78       2.174503    6.904471   24.459934      10.0000    195.0840
   97   1 Pt  78       6.384503    9.354471   24.619933      10.0000    195.0840
   98   1 Pt  78       9.214503    9.354471   24.439933      10.0000    195.0840
   99   1 Pt  78      -4.805498    9.394471   24.449935      10.0000    195.0840
  100   1 Pt  78      -2.015498    9.284470   24.489932      10.0000    195.0840
  101   1 Pt  78       0.924502    9.314471   24.649936      10.0000    195.0840
  102   1 Pt  78       3.594503    9.394471   24.609935      10.0000    195.0840
  103   1 Pt  78       7.754503   11.874471   24.579936      10.0000    195.0840
  104   1 Pt  78      -6.345498   11.844471   24.449935      10.0000    195.0840
  105   1 Pt  78      -3.465498   11.794471   24.569934      10.0000    195.0840
  106   1 Pt  78      -0.615498   11.684471   24.619933      10.0000    195.0840
  107   1 Pt  78       2.134502   11.784470   24.689933      10.0000    195.0840
  108   1 Pt  78       4.914503   11.914471   24.579936      10.0000    195.0840
  109   1 Pt  78       2.174503    0.444470   26.707932      10.0000    195.0840
  110   1 Pt  78       5.014503    0.324470   26.757932      10.0000    195.0840
  111   1 Pt  78       7.804503    0.404470   26.897932      10.0000    195.0840
  112   1 Pt  78      10.584503    0.424470   27.007932      10.0000    195.0840
  113   1 Pt  78      13.404503    0.384470   27.017932      10.0000    195.0840
  114   1 Pt  78      16.134504    0.434470   26.947932      10.0000    195.0840
  115   1 Pt  78       3.544503    2.764471   26.867932      10.0000    195.0840
  116   1 Pt  78       6.294503    2.854471   26.897932      10.0000    195.0840
  117   1 Pt  78       9.114502    2.904470   26.917932      10.0000    195.0840
  118   1 Pt  78      11.924504    2.874471   26.877933      10.0000    195.0840
  119   1 Pt  78      14.744502    2.824471   26.977932      10.0000    195.0840
  120   1 Pt  78       0.734502    2.814470   26.967932      10.0000    195.0840
  121   1 Pt  78       4.944502    5.304471   26.917932      10.0000    195.0840
  122   1 Pt  78       7.794503    5.394471   26.867932      10.0000    195.0840
  123   1 Pt  78      10.524503    5.324471   26.937932      10.0000    195.0840
  124   1 Pt  78      13.304502    5.234471   26.887933      10.0000    195.0840
  125   1 Pt  78      -0.645498    5.274471   26.867932      10.0000    195.0840
  126   1 Pt  78       2.184503    5.204471   26.837932      10.0000    195.0840
  127   1 Pt  78       6.404502    7.734471   26.877933      10.0000    195.0840
  128   1 Pt  78       9.214503    7.774471   26.857933      10.0000    195.0840
  129   1 Pt  78      11.954503    7.734471   26.807932      10.0000    195.0840
  130   1 Pt  78      -2.115498    7.684471   26.857933      10.0000    195.0840
  131   1 Pt  78       0.744502    7.664471   26.957932      10.0000    195.0840
  132   1 Pt  78       3.534502    7.744471   26.927932      10.0000    195.0840
  133   1 Pt  78       7.724503   10.194472   26.827933      10.0000    195.0840
  134   1 Pt  78      10.604503   10.114471   26.707932      10.0000    195.0840
  135   1 Pt  78      -3.375498   10.094471   26.827933      10.0000    195.0840
  136   1 Pt  78      -0.675498   10.054471   26.947932      10.0000    195.0840
  137   1 Pt  78       2.054502   10.194472   27.017932      10.0000    195.0840
  138   1 Pt  78       4.914503   10.144472   26.897932      10.0000    195.0840
  139   1 Pt  78       9.154502   12.634471   26.857933      10.0000    195.0840
  140   1 Pt  78      -4.945498   12.534471   26.647932      10.0000    195.0840
  141   1 Pt  78      -2.085498   12.504471   26.897932      10.0000    195.0840
  142   1 Pt  78       0.624502   12.514472   27.027933      10.0000    195.0840
  143   1 Pt  78       3.394503   12.694472   27.057932      10.0000    195.0840
  144   1 Pt  78       6.304502   12.624470   26.947932      10.0000    195.0840
  145   1 Pt  78       0.724502    1.114470   29.117933      10.0000    195.0840
  146   1 Pt  78       3.574502    1.114470   28.967933      10.0000    195.0840
  147   1 Pt  78       6.254503    1.194470   29.157932      10.0000    195.0840
  148   1 Pt  78       9.034502    1.214470   29.267933      10.0000    195.0840
  149   1 Pt  78      11.904502    1.214470   29.187932      10.0000    195.0840
  150   1 Pt  78      14.804504    1.224471   29.327933      10.0000    195.0840
  151   1 Pt  78       2.174503    3.684471   29.207932      10.0000    195.0840
  152   1 Pt  78       4.894503    3.714470   29.167933      10.0000    195.0840
  153   1 Pt  78       7.734503    3.724471   29.207932      10.0000    195.0840
  154   1 Pt  78      10.584503    3.684471   29.227933      10.0000    195.0840
  155   1 Pt  78      13.244503    3.574471   29.247933      10.0000    195.0840
  156   1 Pt  78      -0.755498    3.724471   29.287933      10.0000    195.0840
  157   1 Pt  78       3.384503    6.114471   29.087933      10.0000    195.0840
  158   1 Pt  78       6.374503    6.184471   29.097933      10.0000    195.0840
  159   1 Pt  78       9.154502    6.194470   29.217933      10.0000    195.0840
  160   1 Pt  78      11.954503    6.094471   29.257932      10.0000    195.0840
  161   1 Pt  78      -2.145498    6.074471   29.127933      10.0000    195.0840
  162   1 Pt  78       0.714502    6.034471   29.347933      10.0000    195.0840
  163   1 Pt  78       4.884503    8.544470   29.217933      10.0000    195.0840
  164   1 Pt  78       7.744502    8.574471   29.207932      10.0000    195.0840
  165   1 Pt  78      10.504503    8.534471   29.207932      10.0000    195.0840
  166   1 Pt  78      -3.635498    8.514471   29.127933      10.0000    195.0840
  167   1 Pt  78      -0.855498    8.564471   29.187932      10.0000    195.0840
  168   1 Pt  78       2.104503    8.614471   29.247933      10.0000    195.0840
  169   1 Pt  78       6.234503   10.984471   29.127933      10.0000    195.0840
  170   1 Pt  78       9.084503   10.954471   29.177932      10.0000    195.0840
  171   1 Pt  78      -4.995498   10.954471   29.017933      10.0000    195.0840
  172   1 Pt  78      -2.205498   10.844471   29.357933      10.0000    195.0840
  173   1 Pt  78       0.564502   10.894471   29.297933      10.0000    195.0840
  174   1 Pt  78       3.514502   11.094471   29.217933      10.0000    195.0840
  175   1 Pt  78       7.714503   13.414471   29.157932      10.0000    195.0840
  176   1 Pt  78      -6.295498   13.334471   28.997933      10.0000    195.0840
  177   1 Pt  78      -3.535498   13.274471   29.167933      10.0000    195.0840
  178   1 Pt  78      -0.875498   13.224471   29.317933      10.0000    195.0840
  179   1 Pt  78       1.994502   13.444471   29.337933      10.0000    195.0840
  180   1 Pt  78       4.774503   13.414471   29.397933      10.0000    195.0840
  181   1 Pt  78      -7.865498   14.284470   31.367933      10.0000    195.0840
  182   1 Pt  78      -5.015498   14.264471   31.407932      10.0000    195.0840
  183   1 Pt  78      -2.275498   14.204472   31.547932      10.0000    195.0840
  184   1 Pt  78       0.474502   14.164471   31.767933      10.0000    195.0840
  185   1 Pt  78       3.314503   14.144471   31.637933      10.0000    195.0840
  186   1 Pt  78       6.224503   14.184471   31.647933      10.0000    195.0840
  187   1 Pt  78       2.034503    2.054471   31.447932      10.0000    195.0840
  188   1 Pt  78       4.844502    2.054471   31.537933      10.0000    195.0840
  189   1 Pt  78       7.634503    2.044471   31.527933      10.0000    195.0840
  190   1 Pt  78      10.374503    2.104471   31.537933      10.0000    195.0840
  191   1 Pt  78      13.114503    1.904470   31.617933      10.0000    195.0840
  192   1 Pt  78      -0.885498    2.094471   31.667933      10.0000    195.0840
  193   1 Pt  78       3.494503    4.524471   31.487933      10.0000    195.0840
  194   1 Pt  78       6.224503    4.454471   31.447932      10.0000    195.0840
  195   1 Pt  78       9.084503    4.514471   31.527933      10.0000    195.0840
  196   1 Pt  78      11.924504    4.454471   31.587932      10.0000    195.0840
  197   1 Pt  78      -2.195498    4.524471   31.437933      10.0000    195.0840
  198   1 Pt  78       0.654502    4.544470   31.777932      10.0000    195.0840
  199   1 Pt  78       4.834503    6.934471   31.467933      10.0000    195.0840
  200   1 Pt  78       7.664503    6.904471   31.607933      10.0000    195.0840
  201   1 Pt  78      10.474503    6.974471   31.507933      10.0000    195.0840
  202   1 Pt  78      -3.625498    6.864471   31.577933      10.0000    195.0840
  203   1 Pt  78      -0.795498    6.864471   31.427933      10.0000    195.0840
  204   1 Pt  78       2.104503    6.984471   31.557933      10.0000    195.0840
  205   1 Pt  78       6.234503    9.374470   31.407932      10.0000    195.0840
  206   1 Pt  78       9.014503    9.374470   31.657933      10.0000    195.0840
  207   1 Pt  78      -4.915498    9.344471   31.457932      10.0000    195.0840
  208   1 Pt  78      -2.155498    9.164471   31.647933      10.0000    195.0840
  209   1 Pt  78       0.514502    9.304471   31.467933      10.0000    195.0840
  210   1 Pt  78       3.374502    9.484471   31.547932      10.0000    195.0840
  211   1 Pt  78       7.584503   11.864471   31.457932      10.0000    195.0840
  212   1 Pt  78      -6.475498   11.754471   31.437933      10.0000    195.0840
  213   1 Pt  78      -3.765498   11.844471   31.417933      10.0000    195.0840
  214   1 Pt  78      -0.885498   11.644471   31.657933      10.0000    195.0840
  215   1 Pt  78       1.984503   11.824471   31.677932      10.0000    195.0840
  216   1 Pt  78       4.834503   11.724472   31.617933      10.0000    195.0840




 SCF PARAMETERS         Density guess:                                   RESTART
                        --------------------------------------------------------
                        max_scf:                                             500
                        max_scf_history:                                       0
                        max_diis:                                              4
                        --------------------------------------------------------
                        eps_scf:                                        1.00E-06
                        eps_scf_history:                                0.00E+00
                        eps_diis:                                       1.00E-01
                        eps_eigval:                                     1.00E-05
                        --------------------------------------------------------
                        level_shift [a.u.]:                             0.000000
                        added MOs                                       500    0
                        --------------------------------------------------------
                        Mixing method:                            BROYDEN_MIXING
                                                charge density mixing in g-space
                        --------------------------------------------------------
                        Smear method:                                FERMI_DIRAC
                        Electronic temperature [K]:                        300.0
                        Electronic temperature [a.u.]:                  9.50E-04
                        Accuracy threshold:                             1.00E-10
                        --------------------------------------------------------
                        No outer SCF

 PW_GRID| Information for grid number                                          1
 PW_GRID| Grid distributed over                                    32 processors
 PW_GRID| Real space group dimensions                                    32    1
 PW_GRID| the grid is blocked:                                                NO
 PW_GRID| Cutoff [a.u.]                                                    200.0
 PW_GRID| spherical cutoff:                                                   NO
 PW_GRID|   Bounds   1           -105     104                Points:         210
 PW_GRID|   Bounds   2           -105     104                Points:         210
 PW_GRID|   Bounds   3           -315     314                Points:         630
 PW_GRID| Volume element (a.u.^3)  0.3081E-02     Volume (a.u.^3)     85609.9578
 PW_GRID| Grid span                                                    FULLSPACE
 PW_GRID|   Distribution                         Average         Max         Min
 PW_GRID|   G-Vectors                           868218.8      868350      868140
 PW_GRID|   G-Rays                                4134.4        4135        4134
 PW_GRID|   Real Space Points                   868218.8      926100      793800

 PW_GRID| Information for grid number                                          2
 PW_GRID| Number of the reference grid                                         1
 PW_GRID| Grid distributed over                                    32 processors
 PW_GRID| Real space group dimensions                                    32    1
 PW_GRID| the grid is blocked:                                                NO
 PW_GRID| Cutoff [a.u.]                                                     66.7
 PW_GRID| spherical cutoff:                                                   NO
 PW_GRID|   Bounds   1            -60      59                Points:         120
 PW_GRID|   Bounds   2            -60      59                Points:         120
 PW_GRID|   Bounds   3           -180     179                Points:         360
 PW_GRID| Volume element (a.u.^3)  0.1651E-01     Volume (a.u.^3)     85609.9578
 PW_GRID| Grid span                                                    FULLSPACE
 PW_GRID|   Distribution                         Average         Max         Min
 PW_GRID|   G-Vectors                           162000.0      162840      161280
 PW_GRID|   G-Rays                                1350.0        1357        1344
 PW_GRID|   Real Space Points                   162000.0      172800      129600

 PW_GRID| Information for grid number                                          3
 PW_GRID| Number of the reference grid                                         1
 PW_GRID| Grid distributed over                                    32 processors
 PW_GRID| Real space group dimensions                                    32    1
 PW_GRID| the grid is blocked:                                                NO
 PW_GRID| Cutoff [a.u.]                                                     22.2
 PW_GRID| spherical cutoff:                                                   NO
 PW_GRID|   Bounds   1            -35      34                Points:          70
 PW_GRID|   Bounds   2            -35      34                Points:          70
 PW_GRID|   Bounds   3           -105     104                Points:         210
 PW_GRID| Volume element (a.u.^3)  0.8320E-01     Volume (a.u.^3)     85609.9578
 PW_GRID| Grid span                                                    FULLSPACE
 PW_GRID|   Distribution                         Average         Max         Min
 PW_GRID|   G-Vectors                            32156.2       32340       31990
 PW_GRID|   G-Rays                                 459.4         462         457
 PW_GRID|   Real Space Points                    32156.2       44100       29400

 PW_GRID| Information for grid number                                          4
 PW_GRID| Number of the reference grid                                         1
 PW_GRID| Grid distributed over                                    32 processors
 PW_GRID| Real space group dimensions                                    32    1
 PW_GRID| the grid is blocked:                                                NO
 PW_GRID| Cutoff [a.u.]                                                      7.4
 PW_GRID| spherical cutoff:                                                   NO
 PW_GRID|   Bounds   1            -20      19                Points:          40
 PW_GRID|   Bounds   2            -20      19                Points:          40
 PW_GRID|   Bounds   3            -60      59                Points:         120
 PW_GRID| Volume element (a.u.^3)  0.4459         Volume (a.u.^3)     85609.9578
 PW_GRID| Grid span                                                    FULLSPACE
 PW_GRID|   Distribution                         Average         Max         Min
 PW_GRID|   G-Vectors                             6000.0        6120        5920
 PW_GRID|   G-Rays                                 150.0         153         148
 PW_GRID|   Real Space Points                     6000.0        9600        4800

 POISSON| Solver                                          IMPLICIT (GENERALIZED)
 POISSON| Boundary Condition                                PERIODIC & DIRICHLET
 POISSON| Maximum number of iterations                                        30
 POISSON| Convergence threshold                                         1.00E-08
 POISSON| Dielectric Constant                                              80.00
 POISSON| Relaxation parameter                                          1.00E+00

 RS_GRID| Information for grid number                                          1
 RS_GRID|   Bounds   1           -105     104                Points:         210
 RS_GRID|   Bounds   2           -105     104                Points:         210
 RS_GRID|   Bounds   3           -315     314                Points:         630
 RS_GRID| Real space distribution over                                 32 groups
 RS_GRID| Real space distribution along direction                              3
 RS_GRID| Border size                                                         54
 RS_GRID|   Distribution                         Average         Max         Min
 RS_GRID|   Planes                                 127.7         128         127

 RS_GRID| Information for grid number                                          2
 RS_GRID|   Bounds   1            -60      59                Points:         120
 RS_GRID|   Bounds   2            -60      59                Points:         120
 RS_GRID|   Bounds   3           -180     179                Points:         360
 RS_GRID| Real space distribution over                                 32 groups
 RS_GRID| Real space distribution along direction                              3
 RS_GRID| Border size                                                         36
 RS_GRID|   Distribution                         Average         Max         Min
 RS_GRID|   Planes                                  83.2          84          83

 RS_GRID| Information for grid number                                          3
 RS_GRID|   Bounds   1            -35      34                Points:          70
 RS_GRID|   Bounds   2            -35      34                Points:          70
 RS_GRID|   Bounds   3           -105     104                Points:         210
 RS_GRID| Real space fully replicated
 RS_GRID| Group size                                                           1

 RS_GRID| Information for grid number                                          4
 RS_GRID|   Bounds   1            -20      19                Points:          40
 RS_GRID|   Bounds   2            -20      19                Points:          40
 RS_GRID|   Bounds   3            -60      59                Points:         120
 RS_GRID| Real space fully replicated
 RS_GRID| Group size                                                           1

 Number of electrons:                                                       2160
 Number of occupied orbitals:                                               1080
 Number of molecular orbitals:                                              1580

 Number of orbital functions:                                               4320
 Number of independent orbital functions:                                   4320

 Extrapolation method: initial_guess


 SCF WAVEFUNCTION OPTIMIZATION

  Step     Update method      Time    Convergence         Total energy    Change
  ------------------------------------------------------------------------------

  POISSON| IMPLICIT (GENERALIZED) SOLVER ---------------------------------------
  POISSON| Preparing Dirichlet regions ...
  POISSON| Dirichlet region    1
  POISSON|     type : axis-aligned planar
  POISSON|     applied potential :   0.0000E+00  [Eh/e]
  POISSON| Dirichlet region    2
  POISSON|     type : axis-aligned planar
  POISSON|     applied potential :   0.0000E+00  [Eh/e]
  POISSON| ... Done. 
  ------------------------------------------------------------------------------

  POISSON|   iter        pres error      nabs error        E_hartree    delta E
  POISSON|      1        0.3234E-05      0.3304E-01    1992.5890876097  0.20E+04
  POISSON|      2        0.4879E-15      0.3234E-05    1992.5890876097  0.23E-10
  POISSON| Poisson solver converged in 2 iterations.
     1 NoMix/Diag. 0.30E+00   11.1     0.22425870     -5670.6675719084 -5.67E+03
  POISSON|   iter        pres error      nabs error        E_hartree    delta E
  POISSON|      1        0.1238E-03      0.3279E-01    1992.4258097569 -0.16E+00
  POISSON|      2        0.8974E-15      0.1238E-03    1992.4258097570  0.23E-10
  POISSON| Poisson solver converged in 2 iterations.
     2 Broy./Diag. 0.30E+00   13.2     0.30123404     -5670.4110834927  2.56E-01
  POISSON|   iter        pres error      nabs error        E_hartree    delta E
  POISSON|      1        0.2074E-03      0.8546E-03    1992.5231585024  0.97E-01
  POISSON|      2        0.2271E-16      0.2074E-03    1992.5231585024  0.11E-11
  POISSON| Poisson solver converged in 2 iterations.
     3 Broy./Diag. 0.30E+00   13.3     0.24613079     -5675.0542945021 -4.64E+00
  POISSON|   iter        pres error      nabs error        E_hartree    delta E
  POISSON|      1        0.1080E-03      0.4627E-03    1992.6270256641  0.10E+00
  POISSON|      2        0.1275E-17      0.1080E-03    1992.6270256641  0.68E-12
  POISSON| Poisson solver converged in 2 iterations.
     4 Broy./Diag. 0.30E+00   13.3     0.16615459     -5673.8397095135  1.21E+00
  POISSON|   iter        pres error      nabs error        E_hartree    delta E
  POISSON|      1        0.2500E-04      0.1157E-03    1992.7425560508  0.12E+00
  POISSON|      2        0.4085E-17      0.2500E-04    1992.7425560508  0.16E-11
  POISSON| Poisson solver converged in 2 iterations.
     5 Broy./Diag. 0.30E+00   13.3     0.06743992     -5673.2466660908  5.93E-01
  POISSON|   iter        pres error      nabs error        E_hartree    delta E
  POISSON|      1        0.7741E-05      0.5162E-04    1992.8262637051  0.84E-01
  POISSON|      2        0.7164E-18      0.7741E-05    1992.8262637051  0.00E+00
  POISSON| Poisson solver converged in 2 iterations.
     6 Broy./Diag. 0.30E+00   13.3     0.04024211     -5672.4750878840  7.72E-01
  POISSON|   iter        pres error      nabs error        E_hartree    delta E
  POISSON|      1        0.2297E-05      0.4763E-04    1992.9712686671  0.15E+00
  POISSON|      2        0.1183E-17      0.2297E-05    1992.9712686671 -0.23E-12
  POISSON| Poisson solver converged in 2 iterations.
     7 Broy./Diag. 0.30E+00   13.4     0.03413275     -5672.3128134979  1.62E-01
  POISSON|   iter        pres error      nabs error        E_hartree    delta E
  POISSON|      1        0.7565E-05      0.3694E-04    1993.0638483834  0.93E-01
  POISSON|      2        0.2909E-18      0.7565E-05    1993.0638483834  0.23E-12
  POISSON| Poisson solver converged in 2 iterations.
     8 Broy./Diag. 0.30E+00   13.3     0.02408101     -5672.3274117639 -1.46E-02
  POISSON|   iter        pres error      nabs error        E_hartree    delta E
  POISSON|      1        0.1386E-05      0.1160E-04    1993.0944818873  0.31E-01
  POISSON|      2        0.2024E-19      0.1386E-05    1993.0944818873  0.00E+00
  POISSON| Poisson solver converged in 2 iterations.
     9 Broy./Diag. 0.30E+00   13.4     0.00978233     -5672.3261713668  1.24E-03
  POISSON|   iter        pres error      nabs error        E_hartree    delta E
  POISSON|      1        0.8513E-06      0.7093E-05    1993.1077835710  0.13E-01
  POISSON|      2        0.1816E-18      0.8513E-06    1993.1077835710 -0.23E-12
  POISSON| Poisson solver converged in 2 iterations.
    10 Broy./Diag. 0.30E+00   13.6     0.00572863     -5672.2302902878  9.59E-02
  POISSON|   iter        pres error      nabs error        E_hartree    delta E
  POISSON|      1        0.3764E-06      0.5900E-05    1993.1187084650  0.11E-01
  POISSON|      2        0.1497E-18      0.3764E-06    1993.1187084650  0.00E+00
  POISSON| Poisson solver converged in 2 iterations.
    11 Broy./Diag. 0.30E+00   13.5     0.00496697     -5672.2269803139  3.31E-03
  POISSON|   iter        pres error      nabs error        E_hartree    delta E
  POISSON|      1        0.6018E-06      0.5498E-05    1993.1301813380  0.11E-01
  POISSON|      2        0.8976E-19      0.6018E-06    1993.1301813380 -0.45E-12
  POISSON| Poisson solver converged in 2 iterations.
    12 Broy./Diag. 0.30E+00   13.5     0.00229581     -5672.2350870198 -8.11E-03
  POISSON|   iter        pres error      nabs error        E_hartree    delta E
  POISSON|      1        0.3049E-06      0.3566E-05    1993.1381495345  0.80E-02
  POISSON|      2        0.5488E-19      0.3049E-06    1993.1381495345 -0.45E-12
  POISSON| Poisson solver converged in 2 iterations.
    13 Broy./Diag. 0.30E+00   13.5     0.00204705     -5672.2326413731  2.45E-03
  POISSON|   iter        pres error      nabs error        E_hartree    delta E
  POISSON|      1        0.3265E-06      0.2588E-05    1993.1398219283  0.17E-02
  POISSON|      2        0.7862E-19      0.3265E-06    1993.1398219283  0.00E+00
  POISSON| Poisson solver converged in 2 iterations.
    14 Broy./Diag. 0.30E+00   13.5     0.00138919     -5672.2108802405  2.18E-02
  POISSON|   iter        pres error      nabs error        E_hartree    delta E
  POISSON|      1        0.2620E-06      0.1632E-05    1993.1399391103  0.12E-03
  POISSON|      2        0.6882E-19      0.2620E-06    1993.1399391103  0.00E+00
  POISSON| Poisson solver converged in 2 iterations.
    15 Broy./Diag. 0.30E+00   13.6     0.00132351     -5672.2235626762 -1.27E-02
  POISSON|   iter        pres error      nabs error        E_hartree    delta E
  POISSON|      1        0.3979E-06      0.2305E-05    1993.1408324380  0.89E-03
  POISSON|      2        0.3640E-19      0.3979E-06    1993.1408324380  0.00E+00
  POISSON| Poisson solver converged in 2 iterations.
    16 Broy./Diag. 0.30E+00   13.6     0.00086787     -5672.2280157549 -4.45E-03
  POISSON|   iter        pres error      nabs error        E_hartree    delta E
  POISSON|      1        0.1837E-06      0.1727E-05    1993.1414140805  0.58E-03
  POISSON|      2        0.6875E-19      0.1837E-06    1993.1414140805  0.00E+00
  POISSON| Poisson solver converged in 2 iterations.
    17 Broy./Diag. 0.30E+00   13.6     0.00080256     -5672.2263682624  1.65E-03
  POISSON|   iter        pres error      nabs error        E_hartree    delta E
  POISSON|      1        0.5862E-08      0.1908E-05    1993.1417305913  0.32E-03
  POISSON| Poisson solver converged in 1 iteration. 
    18 Broy./Diag. 0.30E+00   12.3     0.00037419     -5672.2261891619  1.79E-04
  POISSON|   iter        pres error      nabs error        E_hartree    delta E
  POISSON|      1        0.1437E-06      0.1164E-05    1993.1421801838  0.45E-03
  POISSON|      2        0.3453E-19      0.1437E-06    1993.1421801838 -0.23E-12
  POISSON| Poisson solver converged in 2 iterations.
    19 Broy./Diag. 0.30E+00   13.6     0.00039658     -5672.2330364902 -6.85E-03
  POISSON|   iter        pres error      nabs error        E_hartree    delta E
  POISSON|      1        0.3904E-07      0.8403E-06    1993.1427660174  0.59E-03
  POISSON|      2        0.3891E-19      0.3904E-07    1993.1427660174  0.23E-12
  POISSON| Poisson solver converged in 2 iterations.
    20 Broy./Diag. 0.30E+00   13.7     0.00034750     -5672.2341662341 -1.13E-03
  POISSON|   iter        pres error      nabs error        E_hartree    delta E
  POISSON|      1        0.4393E-07      0.1118E-05    1993.1433975736  0.63E-03
  POISSON|      2        0.5296E-19      0.4393E-07    1993.1433975736  0.00E+00
  POISSON| Poisson solver converged in 2 iterations.
    21 Broy./Diag. 0.30E+00   13.6     0.00019124     -5672.2324042015  1.76E-03
  POISSON|   iter        pres error      nabs error        E_hartree    delta E
  POISSON|      1        0.9559E-08      0.1117E-05    1993.1440320366  0.63E-03
  POISSON| Poisson solver converged in 1 iteration. 
    22 Broy./Diag. 0.30E+00   12.1     0.00015778     -5672.2336650471 -1.26E-03
  POISSON|   iter        pres error      nabs error        E_hartree    delta E
  POISSON|      1        0.3146E-07      0.1084E-05    1993.1447497928  0.72E-03
  POISSON|      2        0.5263E-19      0.3146E-07    1993.1447497928 -0.23E-12
  POISSON| Poisson solver converged in 2 iterations.
    23 Broy./Diag. 0.30E+00   13.6     0.00012682     -5672.2346561757 -9.91E-04
  POISSON|   iter        pres error      nabs error        E_hartree    delta E
  POISSON|      1        0.9588E-08      0.8141E-06    1993.1453212142  0.57E-03
  POISSON| Poisson solver converged in 1 iteration. 
    24 Broy./Diag. 0.30E+00   12.2     0.00013484     -5672.2351280201 -4.72E-04
  POISSON|   iter        pres error      nabs error        E_hartree    delta E
  POISSON|      1        0.4887E-07      0.7022E-06    1993.1456515884  0.33E-03
  POISSON|      2        0.3239E-19      0.4887E-07    1993.1456515884  0.00E+00
  POISSON| Poisson solver converged in 2 iterations.
    25 Broy./Diag. 0.30E+00   13.6     0.00017943     -5672.2340949364  1.03E-03
  POISSON|   iter        pres error      nabs error        E_hartree    delta E
  POISSON|      1        0.5519E-07      0.6987E-06    1993.1459473925  0.30E-03
  POISSON|      2        0.3788E-19      0.5519E-07    1993.1459473925  0.23E-12
  POISSON| Poisson solver converged in 2 iterations.
    26 Broy./Diag. 0.30E+00   13.6     0.00018835     -5672.2348740162 -7.79E-04
  POISSON|   iter        pres error      nabs error        E_hartree    delta E
  POISSON|      1        0.6624E-07      0.6326E-06    1993.1461536892  0.21E-03
  POISSON|      2        0.2565E-19      0.6624E-07    1993.1461536892  0.45E-12
  POISSON| Poisson solver converged in 2 iterations.
    27 Broy./Diag. 0.30E+00   13.6     0.00014730     -5672.2354297919 -5.56E-04
  POISSON|   iter        pres error      nabs error        E_hartree    delta E
  POISSON|      1        0.5571E-08      0.7047E-06    1993.1464647020  0.31E-03
  POISSON| Poisson solver converged in 1 iteration. 
    28 Broy./Diag. 0.30E+00   12.2     0.00009023     -5672.2362078954 -7.78E-04
  POISSON|   iter        pres error      nabs error        E_hartree    delta E
  POISSON|      1        0.1444E-07      0.4444E-06    1993.1465599568  0.95E-04
  POISSON|      2        0.2444E-19      0.1444E-07    1993.1465599568  0.23E-12
  POISSON| Poisson solver converged in 2 iterations.
    29 Broy./Diag. 0.30E+00   13.5     0.00007844     -5672.2355169625  6.91E-04
  POISSON|   iter        pres error      nabs error        E_hartree    delta E
  POISSON|      1        0.2487E-07      0.5161E-06    1993.1466103106  0.50E-04
  POISSON|      2        0.2589E-19      0.2487E-07    1993.1466103106  0.23E-12
  POISSON| Poisson solver converged in 2 iterations.
    30 Broy./Diag. 0.30E+00   13.6     0.00008077     -5672.2358538270 -3.37E-04
  POISSON|   iter        pres error      nabs error        E_hartree    delta E
  POISSON|      1        0.1075E-09      0.5177E-06    1993.1466711391  0.61E-04
  POISSON| Poisson solver converged in 1 iteration. 
    31 Broy./Diag. 0.30E+00   12.1     0.00005462     -5672.2367774678 -9.24E-04
  POISSON|   iter        pres error      nabs error        E_hartree    delta E
  POISSON|      1        0.1076E-07      0.5075E-06    1993.1467134228  0.42E-04
  POISSON|      2        0.2610E-19      0.1076E-07    1993.1467134228  0.23E-12
  POISSON| Poisson solver converged in 2 iterations.
    32 Broy./Diag. 0.30E+00   13.5     0.00004628     -5672.2367279126  4.96E-05
  POISSON|   iter        pres error      nabs error        E_hartree    delta E
  POISSON|      1        0.1043E-08      0.2999E-06    1993.1466970904 -0.16E-04
  POISSON| Poisson solver converged in 1 iteration. 
    33 Broy./Diag. 0.30E+00   12.1     0.00003705     -5672.2369262724 -1.98E-04
  POISSON|   iter        pres error      nabs error        E_hartree    delta E
  POISSON|      1        0.5501E-08      0.2944E-06    1993.1467227291  0.26E-04
  POISSON| Poisson solver converged in 1 iteration. 
    34 Broy./Diag. 0.30E+00   12.1     0.00002974     -5672.2372558637 -3.30E-04
  POISSON|   iter        pres error      nabs error        E_hartree    delta E
  POISSON|      1        0.4413E-08      0.2136E-06    1993.1467702952  0.48E-04
  POISSON| Poisson solver converged in 1 iteration. 
    35 Broy./Diag. 0.30E+00   12.1     0.00004015     -5672.2375255017 -2.70E-04
  POISSON|   iter        pres error      nabs error        E_hartree    delta E
  POISSON|      1        0.1613E-07      0.1758E-06    1993.1467985475  0.28E-04
  POISSON|      2        0.8362E-20      0.1613E-07    1993.1467985475  0.00E+00
  POISSON| Poisson solver converged in 2 iterations.
    36 Broy./Diag. 0.30E+00   13.5     0.00004693     -5672.2373363733  1.89E-04
  POISSON|   iter        pres error      nabs error        E_hartree    delta E
  POISSON|      1        0.1409E-07      0.1888E-06    1993.1468438396  0.45E-04
  POISSON|      2        0.1096E-19      0.1409E-07    1993.1468438396  0.00E+00
  POISSON| Poisson solver converged in 2 iterations.
    37 Broy./Diag. 0.30E+00   13.5     0.00004010     -5672.2373645313 -2.82E-05
  POISSON|   iter        pres error      nabs error        E_hartree    delta E
  POISSON|      1        0.5897E-08      0.1557E-06    1993.1468844689  0.41E-04
  POISSON| Poisson solver converged in 1 iteration. 
    38 Broy./Diag. 0.30E+00   12.1     0.00002627     -5672.2372907713  7.38E-05
  POISSON|   iter        pres error      nabs error        E_hartree    delta E
  POISSON|      1        0.5946E-08      0.1278E-06    1993.1469324815  0.48E-04
  POISSON| Poisson solver converged in 1 iteration. 
    39 Broy./Diag. 0.30E+00   12.1     0.00001961     -5672.2374879789 -1.97E-04
  POISSON|   iter        pres error      nabs error        E_hartree    delta E
  POISSON|      1        0.5470E-08      0.1002E-06    1993.1469740972  0.42E-04
  POISSON| Poisson solver converged in 1 iteration. 
    40 Broy./Diag. 0.30E+00   12.1     0.00002601     -5672.2373892820  9.87E-05
  POISSON|   iter        pres error      nabs error        E_hartree    delta E
  POISSON|      1        0.3707E-08      0.1427E-06    1993.1470147828  0.41E-04
  POISSON| Poisson solver converged in 1 iteration. 
    41 Broy./Diag. 0.30E+00   12.1     0.00001618     -5672.2372072224  1.82E-04
  POISSON|   iter        pres error      nabs error        E_hartree    delta E
  POISSON|      1        0.6494E-10      0.1247E-06    1993.1470496124  0.35E-04
  POISSON| Poisson solver converged in 1 iteration. 
    42 Broy./Diag. 0.30E+00   12.2     0.00001120     -5672.2373341877 -1.27E-04
  POISSON|   iter        pres error      nabs error        E_hartree    delta E
  POISSON|      1        0.2053E-08      0.1009E-06    1993.1470760009  0.26E-04
  POISSON| Poisson solver converged in 1 iteration. 
    43 Broy./Diag. 0.30E+00   12.2     0.00001032     -5672.2373361841 -2.00E-06
  POISSON|   iter        pres error      nabs error        E_hartree    delta E
  POISSON|      1        0.5864E-09      0.8874E-07    1993.1470859103  0.99E-05
  POISSON| Poisson solver converged in 1 iteration. 
    44 Broy./Diag. 0.30E+00   12.3     0.00000962     -5672.2372748591  6.13E-05
  POISSON|   iter        pres error      nabs error        E_hartree    delta E
  POISSON|      1        0.2351E-08      0.9200E-07    1993.1470882232  0.23E-05
  POISSON| Poisson solver converged in 1 iteration. 
    45 Broy./Diag. 0.30E+00   12.1     0.00001120     -5672.2373030646 -2.82E-05
  POISSON|   iter        pres error      nabs error        E_hartree    delta E
  POISSON|      1        0.3215E-08      0.6849E-07    1993.1470901834  0.20E-05
  POISSON| Poisson solver converged in 1 iteration. 
    46 Broy./Diag. 0.30E+00   12.1     0.00001469     -5672.2374069154 -1.04E-04
  POISSON|   iter        pres error      nabs error        E_hartree    delta E
  POISSON|      1        0.5291E-08      0.6658E-07    1993.1470898965 -0.29E-06
  POISSON| Poisson solver converged in 1 iteration. 
    47 Broy./Diag. 0.30E+00   12.1     0.00001253     -5672.2374049352  1.98E-06
  POISSON|   iter        pres error      nabs error        E_hartree    delta E
  POISSON|      1        0.1757E-08      0.6211E-07    1993.1470861629 -0.37E-05
  POISSON| Poisson solver converged in 1 iteration. 
    48 Broy./Diag. 0.30E+00   12.2     0.00001059     -5672.2374187477 -1.38E-05
  POISSON|   iter        pres error      nabs error        E_hartree    delta E
  POISSON|      1        0.3491E-09      0.6937E-07    1993.1470840433 -0.21E-05
  POISSON| Poisson solver converged in 1 iteration. 
    49 Broy./Diag. 0.30E+00   12.1     0.00000599     -5672.2374166406  2.11E-06
  POISSON|   iter        pres error      nabs error        E_hartree    delta E
  POISSON|      1        0.2749E-08      0.5245E-07    1993.1470829328 -0.11E-05
  POISSON| Poisson solver converged in 1 iteration. 
    50 Broy./Diag. 0.30E+00   12.2     0.00000883     -5672.2374856658 -6.90E-05
  POISSON|   iter        pres error      nabs error        E_hartree    delta E
  POISSON|      1        0.8573E-09      0.5404E-07    1993.1470865793  0.36E-05
  POISSON| Poisson solver converged in 1 iteration. 
    51 Broy./Diag. 0.30E+00   12.1     0.00000702     -5672.2375198578 -3.42E-05
  POISSON|   iter        pres error      nabs error        E_hartree    delta E
  POISSON|      1        0.9928E-09      0.5082E-07    1993.1470911427  0.46E-05
  POISSON| Poisson solver converged in 1 iteration. 
    52 Broy./Diag. 0.30E+00   12.1     0.00000383     -5672.2374616073  5.83E-05
  POISSON|   iter        pres error      nabs error        E_hartree    delta E
  POISSON|      1        0.3748E-10      0.4871E-07    1993.1470999898  0.88E-05
  POISSON| Poisson solver converged in 1 iteration. 
    53 Broy./Diag. 0.30E+00   12.1     0.00000297     -5672.2375008272 -3.92E-05
  POISSON|   iter        pres error      nabs error        E_hartree    delta E
  POISSON|      1        0.8377E-09      0.3654E-07    1993.1471103900  0.10E-04
  POISSON| Poisson solver converged in 1 iteration. 
    54 Broy./Diag. 0.30E+00   12.1     0.00000374     -5672.2374996023  1.22E-06
  POISSON|   iter        pres error      nabs error        E_hartree    delta E
  POISSON|      1        0.2162E-09      0.3341E-07    1993.1471218385  0.11E-04
  POISSON| Poisson solver converged in 1 iteration. 
    55 Broy./Diag. 0.30E+00   12.1     0.00000450     -5672.2374900745  9.53E-06
  POISSON|   iter        pres error      nabs error        E_hartree    delta E
  POISSON|      1        0.1264E-08      0.2794E-07    1993.1471291269  0.73E-05
  POISSON| Poisson solver converged in 1 iteration. 
    56 Broy./Diag. 0.30E+00   12.1     0.00000485     -5672.2374686269  2.14E-05
  POISSON|   iter        pres error      nabs error        E_hartree    delta E
  POISSON|      1        0.1271E-08      0.2123E-07    1993.1471357476  0.66E-05
  POISSON| Poisson solver converged in 1 iteration. 
    57 Broy./Diag. 0.30E+00   12.1     0.00000373     -5672.2374868592 -1.82E-05
  POISSON|   iter        pres error      nabs error        E_hartree    delta E
  POISSON|      1        0.1141E-08      0.1772E-07    1993.1471414185  0.57E-05
  POISSON| Poisson solver converged in 1 iteration. 
    58 Broy./Diag. 0.30E+00   12.1     0.00000373     -5672.2374846916  2.17E-06
  POISSON|   iter        pres error      nabs error        E_hartree    delta E
  POISSON|      1        0.2243E-09      0.1768E-07    1993.1471461160  0.47E-05
  POISSON| Poisson solver converged in 1 iteration. 
    59 Broy./Diag. 0.30E+00   12.1     0.00000216     -5672.2374919331 -7.24E-06
  POISSON|   iter        pres error      nabs error        E_hartree    delta E
  POISSON|      1        0.6318E-09      0.1270E-07    1993.1471482824  0.22E-05
  POISSON| Poisson solver converged in 1 iteration. 
    60 Broy./Diag. 0.30E+00   12.1     0.00000246     -5672.2374794995  1.24E-05
  POISSON|   iter        pres error      nabs error        E_hartree    delta E
  POISSON|      1        0.6776E-09      0.1940E-07    1993.1471502169  0.19E-05
  POISSON| Poisson solver converged in 1 iteration. 
    61 Broy./Diag. 0.30E+00   12.1     0.00000249     -5672.2374889888 -9.49E-06
  POISSON|   iter        pres error      nabs error        E_hartree    delta E
  POISSON|      1        0.1599E-09      0.1084E-07    1993.1471511028  0.89E-06
  POISSON| Poisson solver converged in 1 iteration. 
    62 Broy./Diag. 0.30E+00   12.2     0.00000150     -5672.2375126488 -2.37E-05
  POISSON|   iter        pres error      nabs error        E_hartree    delta E
  POISSON|      1        0.2122E-09      0.1326E-07    1993.1471503639 -0.74E-06
  POISSON| Poisson solver converged in 1 iteration. 
    63 Broy./Diag. 0.30E+00   12.2     0.00000100     -5672.2374977307  1.49E-05
  POISSON|   iter        pres error      nabs error        E_hartree    delta E
  POISSON|      1        0.5494E-10      0.1291E-07    1993.1471492493 -0.11E-05
  POISSON| Poisson solver converged in 1 iteration. 
    64 Broy./Diag. 0.30E+00   12.2     0.00000101     -5672.2375130400 -1.53E-05
  POISSON|   iter        pres error      nabs error        E_hartree    delta E
  POISSON|      1        0.2102E-09      0.1024E-07    1993.1471479109 -0.13E-05
  POISSON| Poisson solver converged in 1 iteration. 
    65 Broy./Diag. 0.30E+00   12.1     0.00000144     -5672.2375166446 -3.60E-06
  POISSON|   iter        pres error      nabs error        E_hartree    delta E
  POISSON|      1        0.2217E-09      0.8750E-08    1993.1471472869 -0.62E-06
  POISSON| Poisson solver converged in 1 iteration. 
    66 Broy./Diag. 0.30E+00   12.2     0.00000158     -5672.2375206522 -4.01E-06
  POISSON|   iter        pres error      nabs error        E_hartree    delta E
  POISSON|      1        0.4826E-09      0.7533E-08    1993.1471466961 -0.59E-06
  POISSON| Poisson solver converged in 1 iteration. 
    67 Broy./Diag. 0.30E+00   12.1     0.00000130     -5672.2375182314  2.42E-06
  POISSON|   iter        pres error      nabs error        E_hartree    delta E
  POISSON|      1        0.3385E-09      0.8107E-08    1993.1471465665 -0.13E-06
  POISSON| Poisson solver converged in 1 iteration. 
    68 Broy./Diag. 0.30E+00   12.1     0.00000125     -5672.2375208286 -2.60E-06
  POISSON|   iter        pres error      nabs error        E_hartree    delta E
  POISSON|      1        0.1078E-09      0.7449E-08    1993.1471468815  0.31E-06
  POISSON| Poisson solver converged in 1 iteration. 
    69 Broy./Diag. 0.30E+00   12.3     0.00000095     -5672.2375177036  3.13E-06

  *** SCF run converged in    69 steps ***


  Electronic density on regular grids:      -2159.9999999992        0.0000000008
  Core density on regular grids:             2159.9999999995       -0.0000000005
  Total charge density on r-space grids:        0.0000000003
  Total charge density g-space grids:           0.0000000003

  Overlap energy of the core charge distribution:               0.00003195784548
  Self energy of the core charge distribution:              -9891.63555570741482
  Core Hamiltonian energy:                                   3201.91583982928296
  Hartree energy:                                            1993.14714688149979
  Electric enthalpy:                                         1993.14714688149525
  Exchange-correlation energy:                               -970.94584220272554
  Dispersion energy:                                           -4.68691698420974
  Electronic entropic energy:                                  -0.03222145424133
  Fermi energy:                                                -0.20810241989066

  Total energy:                                             -5672.23751770355284

[...]
    191      1      Pt          0.00936324     0.00547705    -0.00460347
    192      1      Pt          0.00600688     0.00014152    -0.00871970
    193      1      Pt         -0.00992119    -0.00180267     0.00540345
    194      1      Pt          0.00885835     0.01004405     0.00257887
    195      1      Pt         -0.00373708     0.00273339     0.00029158
    196      1      Pt         -0.00988603    -0.00005615    -0.00103821
    197      1      Pt          0.00115385    -0.00991975     0.01526671
    198      1      Pt          0.00150670    -0.01075504    -0.01591074
    199      1      Pt          0.00519558    -0.00107856    -0.00203811
    200      1      Pt         -0.00289961     0.00303950    -0.01194668
    201      1      Pt          0.00002494    -0.00612169     0.01244280
    202      1      Pt          0.00073461     0.00385256    -0.00467962
    203      1      Pt          0.00509639     0.00458719     0.01527458
    204      1      Pt         -0.00442357    -0.00168791    -0.00137672
    205      1      Pt          0.00420667    -0.00067920     0.01402412
    206      1      Pt         -0.00003712    -0.00091707    -0.01170019
    207      1      Pt         -0.00897318     0.00395832     0.00638451
    208      1      Pt         -0.01368176     0.01109084    -0.00367563
    209      1      Pt          0.01480054    -0.00394727     0.01932393
    210      1      Pt          0.00122430    -0.01441729    -0.00330974
    211      1      Pt          0.00960544    -0.01180481     0.00314865
    212      1      Pt          0.00161200     0.00603755    -0.00314459
    213      1      Pt          0.00662364    -0.01348277     0.01740545
    214      1      Pt         -0.00018587     0.01359471     0.00458946
    215      1      Pt         -0.00777203    -0.00669587    -0.00765972
    216      1      Pt         -0.00394882     0.01070293     0.00311591
 SUM OF ATOMIC FORCES          -0.00001971     0.00002372    -0.00005344     0.00006170

 -------------------------------------------------------------------------------
 -                                                                             -
 -                                DBCSR STATISTICS                             -
 -                                                                             -
 -------------------------------------------------------------------------------
 COUNTER                                    TOTAL       BLAS       SMM       ACC
 flops    20 x    12 x    20            447897600       0.0%    100.0%      0.0%
 flops    20 x    32 x    20          58525286400       0.0%    100.0%      0.0%
 flops    20 x    20 x   204         271557619200       0.0%    100.0%      0.0%
 flops    20 x    20 x   224         298180915200       0.0%    100.0%      0.0%
 flops    20 x    20 x   192        1533501849600       0.0%    100.0%      0.0%
 flops inhomo. stacks                           0       0.0%      0.0%      0.0%
 flops total                         2.162214E+12       0.0%    100.0%      0.0%
 flops max/rank                     69.391053E+09       0.0%    100.0%      0.0%
 matmuls inhomo. stacks                         0       0.0%      0.0%      0.0%
 matmuls total                           15644448       0.0%    100.0%      0.0%
 number of processed stacks                 20608       0.0%    100.0%      0.0%
 average stack size                                     0.0     759.1       0.0
 marketing flops                     3.080340E+12
 -------------------------------------------------------------------------------
 # multiplications                             72
 max memory usage/rank               1.824219E+09
 # max total images/rank                        2
 # max 3D layers                                1
 # MPI messages exchanged                   29952
 MPI messages size (bytes):
  total size                        39.978316E+09
  min size                         829.440000E+03
  max size                           4.665600E+06
  average size                       1.334746E+06
 MPI breakdown and total messages size (bytes):
             size <=      128                   0                        0
       128 < size <=     8192                   0                        0
      8192 < size <=    32768                   0                        0
     32768 < size <=   131072                   0                        0
    131072 < size <=  4194304               29728              38933222400
   4194304 < size <= 16777216                 224               1045094400
  16777216 < size                               0                        0
 -------------------------------------------------------------------------------

 *** WARNING in dbcsr_mm.F:290 :: Using a non-square number of MPI ranks ***
 *** might lead to poor performance. Used ranks: 32 Suggested: 36 64     ***

 -------------------------------------------------------------------------------
 -                                                                             -
 -                      DBCSR MESSAGE PASSING PERFORMANCE                      -
 -                                                                             -
 -------------------------------------------------------------------------------
 ROUTINE             CALLS      AVE VOLUME [Bytes]
 MP_Bcast                6                     12.
 MP_Allreduce          527                      9.
 MP_Alltoall          1997                1276264.
 MP_ISend             2304                 577582.
 MP_IRecv             2304                 560569.
 -------------------------------------------------------------------------------

 -------------------------------------------------------------------------------
 -                                                                             -
 -                                DBM STATISTICS                               -
 -                                                                             -
 -------------------------------------------------------------------------------
    M  x    N  x    K                                          COUNT     PERCENT
 -------------------------------------------------------------------------------

 -------------------------------------------------------------------------------
 -                                                                             -
 -                                GRID STATISTICS                              -
 -                                                                             -
 -------------------------------------------------------------------------------
 LP    KERNEL             BACKEND                              COUNT     PERCENT
 4     collocate general  REF                               23812110      49.97%
 4     integrate general  REF                               23471937      49.26%
 5     integrate general  REF                                 340173       0.71%
 0     collocate general  REF                                  13824       0.03%
 0     integrate general  REF                                   6912       0.01%
 1     integrate general  REF                                   6912       0.01%
 -------------------------------------------------------------------------------

 MEMORY| Estimated peak process memory [MiB]                                2188

 -------------------------------------------------------------------------------
 ----                             MULTIGRID INFO                            ----
 -------------------------------------------------------------------------------
 count for grid        1:          17557          cutoff [a.u.]          200.00
 count for grid        2:         177497          cutoff [a.u.]           66.67
 count for grid        3:         109740          cutoff [a.u.]           22.22
 count for grid        4:         155014          cutoff [a.u.]            7.41
 total gridlevel count  :         459808

 -------------------------------------------------------------------------------
 -                                                                             -
 -                         MESSAGE PASSING PERFORMANCE                         -
 -                                                                             -
 -------------------------------------------------------------------------------

 ROUTINE             CALLS      AVE VOLUME [Bytes]
 MP_Group                4
 MP_Bcast             1782                 163420.
 MP_Allreduce         1718                   1474.
 MP_Sync                75
 MP_Alltoall          3399               49340699.
 MP_SendRecv           124                  14940.
 MP_ISendRecv         8680                 214800.
 MP_Wait             21028
 MP_comm_split           1
 MP_ISend            11072                 714376.
 MP_IRecv            11072                 714376.
 MP_Recv               192                1105920.
 MP_Write_All            3                4213860.
 -------------------------------------------------------------------------------


 -------------------------------------------------------------------------------
 -                                                                             -
 -                           R E F E R E N C E S                               -
 -                                                                             -
 -------------------------------------------------------------------------------
 
 CP2K version 2022.1, the CP2K developers group (2022).
 CP2K is freely available from https://www.cp2k.org/ .

 Kuehne,Thomas D.; Iannuzzi,Marcella; Del Ben,Mauro;
 Rybkin,Vladimir V.; Seewald,Patrick; Stein,Frederick; Laino,Teodoro;
 Khaliullin,Rustam Z.; Schuett,Ole; Schiffmann,Florian; Golze,Dorothea;
 Wilhelm,Jan; Chulkov,Sergey; Bani-Hashemian,Mohammad Hossein;
 Weber,Valery; Borstnik,Urban; Taillefumier,Mathieu;
 Jakobovits,Alice Shoshana; Lazzaro,Alfio; Pabst,Hans; Mueller,Tiziano;
 Schade,Robert; Guidon,Manuel; Andermatt,Samuel; Holmberg,Nico;
 Schenter,Gregory K.; Hehn,Anna; Bussy,Augustin; Belleflamme,Fabian;
 Tabacchi,Gloria; Gloess,Andreas; Lass,Michael; Bethune,Iain;
 Mundy,Christopher J.; Plessl,Christian; Watkins,Matt;
 VandeVondele,Joost; Krack,Matthias; Hutter,Juerg. 
 The Journal of Chemical Physics, 152 (19), (2020). 
 CP2K: An electronic structure and molecular dynamics software package -
 Quickstep: Efficient and accurate electronic structure calculations.
 https://doi.org/10.1063/5.0007045

 Goerigk, Lars; Hansen, Andreas; Bauer, Christoph; Ehrlich, Stephan;
 Najibi, Asim; Grimme, Stefan. , 19 (48), (2017). 
 A look at the density functional theory zoo with the advanced GMTKN55 database
 for general main group thermochemistry, kinetics and noncovalent interactions.
 https://doi.org/10.1039/C7CP04913G

 Bani-Hashemian, MH; Bruck, S; Luisier, M; VandeVondele, J. 
 JOURNAL OF CHEMICAL PHYSICS, 144 (4), 044113 (2016). 
 A generalized Poisson solver for first-principles device simulations.
 https://doi.org/10.1063/1.4940796

 Schuett, Ole; Messmer, Peter; Hutter, Juerg; VandeVondele, Joost. 
 Electronic Structure Calculations on Graphics Processing Units, John
 Wiley & Sons, Ltd, 173-190 (2016). 
 GPU-Accelerated Sparse Matrix-Matrix Multiplication for
 Linear Scaling Density Functional Theory.
 https://doi.org/10.1002/9781118670712.ch8

 Heinecke, A; Henry, G; Hutchinson, M; Pabst, H. 
 Proceedings of Intl. Supercomputing Conference, 981-991 (2016). 
 LIBXSMM: Accelerating Small Matrix Multiplications
 by Runtime Code Generation.
 https://doi.org/10.1109/SC.2016.83

 Borstnik, U; VandeVondele, J; Weber, V; Hutter, J. 
 PARALLEL COMPUTING, 40 (5-6), 47-58 (2014). 
 Sparse matrix multiplication: The distributed block-compressed sparse
 row library.
 https://doi.org/10.1016/j.parco.2014.03.012

 Hutter, J; Iannuzzi, M; Schiffmann, F; VandeVondele, J. 
 WIREs Comput Mol Sci., 4 (1), 15-25 (2014). 
 CP2K: atomistic simulations of condensed matter systems.
 https://doi.org/10.1002/wcms.1159

 Marek, A; Blum, V; Johanni, R; Havu, V; Lang, B; Auckenthaler, T;
 Heinecke, A; Bungartz, H; Lederer, H. 
 Journal of Physics: Condensed Matter, 26 (21), (2014). 
 The ELPA library: scalable parallel eigenvalue solutions for
 electronic structure
 theory and computational science.
 https://doi.org/10.1088/0953-8984/26/21/213201

 Grimme, S; Ehrlich, S; Goerigk, L. 
 JOURNAL OF COMPUTATIONAL CHEMISTRY, 32, 1456 (2011). 
 Effect of the damping function in dispersion corrected density functional theory.
 https://doi.org/10.1002/jcc.21759

 Grimme, S; Antony, J; Ehrlich, S; Krieg, H. 
 JOURNAL OF CHEMICAL PHYSICS, 132 (15), 154104 (2010). 
 A consistent and accurate ab initio parametrization of density
 functional dispersion correction (DFT-D) for the 94 elements H-Pu.
 https://doi.org/10.1063/1.3382344

 VandeVondele, J; Hutter, J. 
 JOURNAL OF CHEMICAL PHYSICS, 127 (11), 114105 (2007). 
 Gaussian basis sets for accurate calculations on molecular systems in
 gas and condensed phases.
 https://doi.org/10.1063/1.2770708

 Krack, M. 
 THEORETICAL CHEMISTRY ACCOUNTS, 114 (1-3), 145-152 (2005). 
 Pseudopotentials for H to Kr optimized for gradient-corrected
 exchange-correlation functionals.
 https://doi.org/10.1007/s00214-005-0655-y

 VandeVondele, J; Krack, M; Mohamed, F; Parrinello, M; Chassaing, T;
 Hutter, J. COMPUTER PHYSICS COMMUNICATIONS, 167 (2), 103-128 (2005). 
 QUICKSTEP: Fast and accurate density functional calculations using a
 mixed Gaussian and plane waves approach.
 https://doi.org/10.1016/j.cpc.2004.12.014

 Frigo, M; Johnson, SG. 
 PROCEEDINGS OF THE IEEE, 93 (2), 216-231 (2005). 
 The design and implementation of FFTW3.
 https://doi.org/10.1109/JPROC.2004.840301

 Hartwigsen, C; Goedecker, S; Hutter, J. 
 PHYSICAL REVIEW B, 58 (7), 3641-3662 (1998). 
 Relativistic separable dual-space Gaussian pseudopotentials from H to Rn.
 https://doi.org/10.1103/PhysRevB.58.3641

 Lippert, G; Hutter, J; Parrinello, M. 
 MOLECULAR PHYSICS, 92 (3), 477-487 (1997). 
 A hybrid Gaussian and plane wave density functional scheme.
 https://doi.org/10.1080/002689797170220

 Perdew, JP; Burke, K; Ernzerhof, M. 
 PHYSICAL REVIEW LETTERS, 77 (18), 3865-3868 (1996). 
 Generalized gradient approximation made simple.
 https://doi.org/10.1103/PhysRevLett.77.3865

 Goedecker, S; Teter, M; Hutter, J. 
 PHYSICAL REVIEW B, 54 (3), 1703-1710 (1996). 
 Separable dual-space Gaussian pseudopotentials.
 https://doi.org/10.1103/PhysRevB.54.1703


 -------------------------------------------------------------------------------
 -                                                                             -
 -                                T I M I N G                                  -
 -                                                                             -
 -------------------------------------------------------------------------------
 SUBROUTINE                       CALLS  ASD         SELF TIME        TOTAL TIME
                                MAXIMUM       AVERAGE  MAXIMUM  AVERAGE  MAXIMUM
 CP2K                                 1  1.0    0.021    0.043  900.712  900.714
 qs_forces                            1  2.0    0.001    0.001  900.295  900.298
 qs_energies                          1  3.0    0.000    0.000  886.042  886.045
 scf_env_do_scf                       1  4.0    0.000    0.000  877.791  877.878
 scf_env_do_scf_inner_loop           69  5.0    0.003    0.006  877.788  877.875
 rebuild_ks_matrix                   70  7.0    0.000    0.000  557.986  558.028
 qs_ks_build_kohn_sham_matrix        70  8.0    0.010    0.011  557.985  558.028
 qs_ks_update_qs_env                 69  6.0    0.001    0.001  548.245  548.288
 pw_transfer                       3244 12.1    0.248    0.313  312.955  315.543
 fft_wrap_pw1pw2                   3244 13.1    0.035    0.041  312.707  315.289
 fft_wrap_pw1pw2_200               2824 14.4   26.423   29.718  309.563  312.114
 pw_poisson_solve                    70  9.0    0.020    0.028  266.893  266.973
 implicit_poisson_solver_mixed_      70 10.0    7.128    7.716  250.928  251.093
 fft3d_ps                          3244 15.1  133.099  143.149  233.240  236.725
 qs_rho_update_rho_low               70  6.0    0.001    0.001  211.471  211.490
 calculate_rho_elec                  70  7.0    0.382    0.411  211.471  211.489
 sum_up_and_integrate                70  9.0    1.090    1.182  199.048  199.098
 integrate_v_rspace                  70 10.0    0.002    0.002  197.957  198.088
 grid_collocate_task_list            70  8.0   93.804  182.410   93.804  182.410
 derive_fft                         340 12.2    0.024    0.028  176.205  177.667
 grid_integrate_task_list            70 11.0   86.949  169.846   86.949  169.846
 rs_pw_transfer                     564 10.5    0.007    0.007  116.516  145.809
 density_rs2pw                       70  8.0    0.005    0.005  115.609  145.149
 apply_P_operator                   270 11.2    2.523    2.880  142.490  143.494
 mp_waitany                       11072 12.4   97.010  125.912   97.010  125.912
 rs_pw_transfer_RS2PW_200            72 10.0    4.043    4.746   95.332  124.584
 mp_alltoall_d11v                   996 10.3   85.267  112.735   85.267  112.735
 rs_gather_matrices                  70 11.0    0.263    0.309   84.001  111.403
 qs_scf_new_mos                      69  6.0    0.007    0.015   87.308   87.407
 qs_vxc_create                       70  9.0    0.002    0.003   82.775   83.787
 xc_vxc_pw_create                    70 10.0    1.887    2.398   82.772   83.785
 eigensolver                         69  7.0    0.006    0.009   78.741   78.823
 x_to_yz                           2031 16.3   44.450   51.776   68.603   72.725
 mp_alltoall_z22v                  3244 17.1   43.152   65.554   43.152   65.554
 xc_pw_derive                       420 12.0    0.007    0.009   55.803   58.966
 apply_poisson_operator_fft          70 11.0    0.001    0.001   53.167   53.448
 cp_fm_diag_elpa                     70  8.0    0.001    0.001   49.931   50.070
 cp_fm_diag_elpa_base                70  9.0   48.889   49.003   49.821   49.889
 yz_to_x                           1213 15.8   12.463   13.431   31.462   44.775
 xc_rho_set_and_dset_create          70 11.0    0.797    0.975   43.140   44.129
 apply_inv_laplace_operator_fft     172 11.6    1.425    1.559   38.231   39.403
 xc_pw_divergence                    70 11.0    0.004    0.004   36.619   38.716
 pw_scatter_p                      2031 15.3   34.478   38.008   34.478   38.008
 ps_implicit_compute_veps            70 11.0    0.844    0.991   37.087   37.926
 gspace_mixing                       68  6.0    0.372    0.399   33.280   33.280
 pw_derive                         1440 13.1   27.392   28.739   27.392   28.739
 cp_fm_triangular_multiply          207  8.0   27.948   28.145   27.948   28.145
 potential_pw2rs                     70 11.0    0.056    0.063   26.993   27.107
 ps_implicit_compute_error_fft      100 10.9    1.847    1.979   24.911   26.712
 broyden_mixing                      68  7.0   24.259   24.731   24.983   25.069
 pw_gather_p                       1213 14.8   18.215   19.088   18.215   19.088
 -------------------------------------------------------------------------------

 The number of warnings for this run is : 1
 
 -------------------------------------------------------------------------------
  **** **** ******  **  PROGRAM ENDED AT                 2023-12-03 00:41:59.164
 ***** ** ***  *** **   PROGRAM RAN ON                                     cu042
 **    ****   ******    PROGRAM RAN BY                                     jxzhu
 ***** **    ** ** **   PROGRAM PROCESS ID                                 49104
  **** **  *******  **  PROGRAM STOPPED IN /public/home/jxzhu/tmp_calc/04c0855f9
                                           8753fac23fde4df51ba20f3741a9e9a/calc/
                                           task.001.000027
