 DBCSR| CPU Multiplication driver                                           XSMM
 DBCSR| Multrec recursion limit                                              512
 DBCSR| Multiplication stack size                                           1000
 DBCSR| Maximum elements for images                                    UNLIMITED
 DBCSR| Multiplicative factor virtual images                                   1
 DBCSR| Use multiplication densification                                       T
 DBCSR| Multiplication size stacks                                             3
 DBCSR| Use memory pool for CPU allocation                                     F
 DBCSR| Number of 3D layers                                               SINGLE
 DBCSR| Use MPI memory allocation                                              F
 DBCSR| Use RMA algorithm                                                      F
 DBCSR| Use Communication thread                                               T
 DBCSR| Communication thread load                                             87
 DBCSR| MPI: My node id                                                        0
 DBCSR| MPI: Number of nodes                                                 128
 DBCSR| OMP: Current number of threads                                         1
 DBCSR| OMP: Max number of threads                                             1
 DBCSR| Split modifier for TAS multiplication algorithm                  1.0E+00


  **** **** ******  **  PROGRAM STARTED AT               2023-12-03 07:52:08.491
 ***** ** ***  *** **   PROGRAM STARTED ON                                 cu001
 **    ****   ******    PROGRAM STARTED BY                                 jxzhu
 ***** **    ** ** **   PROGRAM PROCESS ID                                 65131
  **** **  *******  **  PROGRAM STARTED IN /public/home/jxzhu/tmp_calc/75fba3f00
                                           5f5048ac0b736df82c102bdd099fa72/calc/
                                           003000.000/search_hi.000000

 CP2K| version string:                                       CP2K version 2022.1
 CP2K| source code revision number:                                  git:2caeb6f
 CP2K| cp2kflags: omp libint fftw3 libxc elpa parallel mpi3 scalapack cosma xsmm
 CP2K|             plumed2 spglib mkl sirius libvori libbqb
 CP2K| is freely available from                            https://www.cp2k.org/
 CP2K| Program compiled at                           Mon Jul 3 17:37:06 CST 2023
 CP2K| Program compiled on                                                 mu003
 CP2K| Program compiled for                                                local
 CP2K| Data directory path                             /public/home/jxzhu/basis/
 CP2K| Input file name                                                 input.inp
 
 GLOBAL| Force Environment number                                              1
 GLOBAL| Basis set file name                                        BASIS_MOLOPT
 GLOBAL| Potential file name                                      GTH_POTENTIALS
 GLOBAL| MM Potential file name                                     MM_POTENTIAL
 GLOBAL| Coordinate file name                                          coord.xyz
 GLOBAL| Method name                                                        CP2K
 GLOBAL| Project name                                                       cp2k
 GLOBAL| Run type                                                   ENERGY_FORCE
 GLOBAL| FFT library                                                       FFTW3
 GLOBAL| Diagonalization library                                            ELPA
 GLOBAL| Minimum number of eigenvectors for ELPA usage                        16
 GLOBAL| Orthonormality check for eigenvectors                          DISABLED
 GLOBAL| Matrix multiplication library                                     COSMA
 GLOBAL| All-to-all communication in single precision                          F
 GLOBAL| FFTs using library dependent lengths                                  T
 GLOBAL| Grid backend                                                       AUTO
 GLOBAL| Global print level                                               MEDIUM
 GLOBAL| MPI I/O enabled                                                       T
 GLOBAL| Total number of message passing processes                           128
 GLOBAL| Number of threads for this process                                    1
 GLOBAL| This output is from process                                           0
 GLOBAL| Stack size for threads created by OpenMP (OMP_STACKSIZE)        default
 GLOBAL| CPU model name                 Intel(R) Xeon(R) Gold 6338 CPU @ 2.00GHz
 GLOBAL| CPUID                                                              1003

 MEMORY| system memory details [Kb]
 MEMORY|                        rank 0           min           max       average
 MEMORY| MemTotal            263619172     263619172     263619172     263619172
 MEMORY| MemFree             218266596     215635440     218269468     216951460
 MEMORY| Buffers                    20            20            36            28
 MEMORY| Cached                1735980        710712       1735980       1223346
 MEMORY| Slab                  1444312       1430360       1444312       1437336
 MEMORY| SReclaimable           245072        231280        245072        238176
 MEMORY| MemLikelyFree       220247668     216577468     220250540     218413010


 *** Fundamental physical constants (SI units) ***

 *** Literature: B. J. Mohr and B. N. Taylor,
 ***             CODATA recommended values of the fundamental physical
 ***             constants: 2006, Web Version 5.1
 ***             http://physics.nist.gov/constants

 Speed of light in vacuum [m/s]                             2.99792458000000E+08
 Magnetic constant or permeability of vacuum [N/A**2]       1.25663706143592E-06
 Electric constant or permittivity of vacuum [F/m]          8.85418781762039E-12
 Planck constant (h) [J*s]                                  6.62606896000000E-34
 Planck constant (h-bar) [J*s]                              1.05457162825177E-34
 Elementary charge [C]                                      1.60217648700000E-19
 Electron mass [kg]                                         9.10938215000000E-31
 Electron g factor [ ]                                     -2.00231930436220E+00
 Proton mass [kg]                                           1.67262163700000E-27
 Fine-structure constant                                    7.29735253760000E-03
 Rydberg constant [1/m]                                     1.09737315685270E+07
 Avogadro constant [1/mol]                                  6.02214179000000E+23
 Boltzmann constant [J/K]                                   1.38065040000000E-23
 Atomic mass unit [kg]                                      1.66053878200000E-27
 Bohr radius [m]                                            5.29177208590000E-11

 *** Conversion factors ***

 [u] -> [a.u.]                                              1.82288848426455E+03
 [Angstrom] -> [Bohr] = [a.u.]                              1.88972613288564E+00
 [a.u.] = [Bohr] -> [Angstrom]                              5.29177208590000E-01
 [a.u.] -> [s]                                              2.41888432650478E-17
 [a.u.] -> [fs]                                             2.41888432650478E-02
 [a.u.] -> [J]                                              4.35974393937059E-18
 [a.u.] -> [N]                                              8.23872205491840E-08
 [a.u.] -> [K]                                              3.15774647902944E+05
 [a.u.] -> [kJ/mol]                                         2.62549961709828E+03
 [a.u.] -> [kcal/mol]                                       6.27509468713739E+02
 [a.u.] -> [Pa]                                             2.94210107994716E+13
 [a.u.] -> [bar]                                            2.94210107994716E+08
 [a.u.] -> [atm]                                            2.90362800883016E+08
 [a.u.] -> [eV]                                             2.72113838565563E+01
 [a.u.] -> [Hz]                                             6.57968392072181E+15
 [a.u.] -> [1/cm] (wave numbers)                            2.19474631370540E+05
 [a.u./Bohr**2] -> [1/cm]                                   5.14048714338585E+03
 

 CELL_TOP| Volume [angstrom^3]:                                     17614.982639
 CELL_TOP| Vector a [angstrom    16.869     0.000     0.000   |a| =    16.869000
 CELL_TOP| Vector b [angstrom    -8.434    14.609     0.000   |b| =    16.869015
 CELL_TOP| Vector c [angstrom     0.000     0.000    71.478   |c| =    71.478000
 CELL_TOP| Angle (b,c), alpha [degree]:                                90.000000
 CELL_TOP| Angle (a,c), beta  [degree]:                                90.000000
 CELL_TOP| Angle (a,b), gamma [degree]:                               119.999970
 CELL_TOP| Numerically orthorhombic:                                          NO
 
 GENERATE|  Preliminary Number of Bonds generated:                             0
 GENERATE|  Achieved consistency in connectivity generation.

 CELL| Volume [angstrom^3]:                                         17614.982639
 CELL| Vector a [angstrom]:      16.869     0.000     0.000   |a| =    16.869000
 CELL| Vector b [angstrom]:      -8.434    14.609     0.000   |b| =    16.869015
 CELL| Vector c [angstrom]:       0.000     0.000    71.478   |c| =    71.478000
 CELL| Angle (b,c), alpha [degree]:                                    90.000000
 CELL| Angle (a,c), beta  [degree]:                                    90.000000
 CELL| Angle (a,b), gamma [degree]:                                   119.999970
 CELL| Numerically orthorhombic:                                              NO

 CELL_REF| Volume [angstrom^3]:                                     17614.982639
 CELL_REF| Vector a [angstrom    16.869     0.000     0.000   |a| =    16.869000
 CELL_REF| Vector b [angstrom    -8.434    14.609     0.000   |b| =    16.869015
 CELL_REF| Vector c [angstrom     0.000     0.000    71.478   |c| =    71.478000
 CELL_REF| Angle (b,c), alpha [degree]:                                90.000000
 CELL_REF| Angle (a,c), beta  [degree]:                                90.000000
 CELL_REF| Angle (a,b), gamma [degree]:                               119.999970
 CELL_REF| Numerically orthorhombic:                                          NO

 *******************************************************************************
 *******************************************************************************
 **                                                                           **
 **     #####                         ##              ##                      **
 **    ##   ##            ##          ##              ##                      **
 **   ##     ##                       ##            ######                    **
 **   ##     ##  ##   ##  ##   #####  ##  ##   ####   ##    #####    #####    **
 **   ##     ##  ##   ##  ##  ##      ## ##   ##      ##   ##   ##  ##   ##   **
 **   ##  ## ##  ##   ##  ##  ##      ####     ###    ##   ######   ######    **
 **    ##  ###   ##   ##  ##  ##      ## ##      ##   ##   ##       ##        **
 **     #######   #####   ##   #####  ##  ##  ####    ##    #####   ##        **
 **           ##                                                    ##        **
 **                                                                           **
 **                                                ... make the atoms dance   **
 **                                                                           **
 **            Copyright (C) by CP2K developers group (2000-2022)             **
 **                      J. Chem. Phys. 152, 194103 (2020)                    **
 **                                                                           **
 *******************************************************************************

 DFT| Spin restricted Kohn-Sham (RKS) calculation                            RKS
 DFT| Multiplicity                                                             1
 DFT| Number of spin states                                                    1
 DFT| Charge                                                                   0
 DFT| Self-interaction correction (SIC)                                       NO
 DFT| Cutoffs: density                                              1.000000E-10
 DFT|          gradient                                             1.000000E-10
 DFT|          tau                                                  1.000000E-10
 DFT|          cutoff_smoothing_range                               0.000000E+00
 DFT| XC density smoothing                                                  NONE
 DFT| XC derivatives                                                          PW

 FUNCTIONAL| PBE:
 FUNCTIONAL| J.P.Perdew, K.Burke, M.Ernzerhof, Phys. Rev. Letter, vol. 77, n 18,
 FUNCTIONAL|  pp. 3865-3868, (1996){spin unpolarized}                           

 vdW POTENTIAL|                                                   Pair Potential
 vdW POTENTIAL|          DFT-D3 (Version 3.1)
 vdW POTENTIAL|          Potential Form: S. Grimme et al, JCP 132: 154104 (2010)
 vdW POTENTIAL|          Zero Damping
 vdW POTENTIAL|          Cutoff Radius [Bohr]:                             20.00
 vdW POTENTIAL|          s6 Scaling Factor:                               1.0000
 vdW POTENTIAL|          sr6 Scaling Factor:                              1.2170
 vdW POTENTIAL|          s8 Scaling Factor:                               0.7220
 vdW POTENTIAL|          Cutoff for CN calculation:                   0.1000E-05

 QS| Method:                                                                 GPW
 QS| Density plane wave grid type                        NON-SPHERICAL FULLSPACE
 QS| Number of grid levels:                                                    4
 QS| Density cutoff [a.u.]:                                                200.0
 QS| Multi grid cutoff [a.u.]: 1) grid level                               200.0
 QS|                           2) grid level                                66.7
 QS|                           3) grid level                                22.2
 QS|                           4) grid level                                 7.4
 QS| Grid level progression factor:                                          3.0
 QS| Relative density cutoff [a.u.]:                                        20.0
 QS| Interaction thresholds: eps_pgf_orb:                                3.2E-07
 QS|                         eps_filter_matrix:                          0.0E+00
 QS|                         eps_core_charge:                            1.0E-15
 QS|                         eps_rho_gspace:                             1.0E-13
 QS|                         eps_rho_rspace:                             1.0E-13
 QS|                         eps_gvg_rspace:                             3.2E-07
 QS|                         eps_ppl:                                    1.0E-02
 QS|                         eps_ppnl:                                   3.2E-09


 ATOMIC KIND INFORMATION

  1. Atomic kind: O                                     Number of atoms:     100

     Orbital Basis Set                                        DZVP-MOLOPT-SR-GTH

       Number of orbital shell sets:                                           1
       Number of orbital shells:                                               5
       Number of primitive Cartesian functions:                                5
       Number of Cartesian basis functions:                                   14
       Number of spherical basis functions:                                   13
       Norm type:                                                              2

       Normalised Cartesian orbitals:

                        Set   Shell   Orbital            Exponent    Coefficient

                          1       1    2s               10.389228       0.396646
                                                         3.849621       0.208811
                                                         1.388401      -0.301641
                                                         0.496955      -0.274061
                                                         0.162492      -0.033677

                          1       2    3s               10.389228       0.303673
                                                         3.849621       0.240943
                                                         1.388401      -0.313066
                                                         0.496955      -0.043055
                                                         0.162492       0.213991

                          1       3    3px              10.389228      -1.530415
                                                         3.849621      -1.371928
                                                         1.388401      -0.761951
                                                         0.496955      -0.253695
                                                         0.162492      -0.035541
                          1       3    3py              10.389228      -1.530415
                                                         3.849621      -1.371928
                                                         1.388401      -0.761951
                                                         0.496955      -0.253695
                                                         0.162492      -0.035541
                          1       3    3pz              10.389228      -1.530415
                                                         3.849621      -1.371928
                                                         1.388401      -0.761951
                                                         0.496955      -0.253695
                                                         0.162492      -0.035541

                          1       4    4px              10.389228      -0.565392
                                                         3.849621      -0.038231
                                                         1.388401      -0.382373
                                                         0.496955       0.179070
                                                         0.162492       0.122714
                          1       4    4py              10.389228      -0.565392
                                                         3.849621      -0.038231
                                                         1.388401      -0.382373
                                                         0.496955       0.179070
                                                         0.162492       0.122714
                          1       4    4pz              10.389228      -0.565392
                                                         3.849621      -0.038231
                                                         1.388401      -0.382373
                                                         0.496955       0.179070
                                                         0.162492       0.122714

                          1       5    4dx2             10.389228       1.867377
                                                         3.849621       0.670994
                                                         1.388401       1.353441
                                                         0.496955       0.273538
                                                         0.162492       0.006620
                          1       5    4dxy             10.389228       3.234392
                                                         3.849621       1.162195
                                                         1.388401       2.344229
                                                         0.496955       0.473781
                                                         0.162492       0.011466
                          1       5    4dxz             10.389228       3.234392
                                                         3.849621       1.162195
                                                         1.388401       2.344229
                                                         0.496955       0.473781
                                                         0.162492       0.011466
                          1       5    4dy2             10.389228       1.867377
                                                         3.849621       0.670994
                                                         1.388401       1.353441
                                                         0.496955       0.273538
                                                         0.162492       0.006620
                          1       5    4dyz             10.389228       3.234392
                                                         3.849621       1.162195
                                                         1.388401       2.344229
                                                         0.496955       0.473781
                                                         0.162492       0.011466
                          1       5    4dz2             10.389228       1.867377
                                                         3.849621       0.670994
                                                         1.388401       1.353441
                                                         0.496955       0.273538
                                                         0.162492       0.006620

       Atomic covalent radius [Angstrom]:                                  0.730

       Atomic van der Waals radius [Angstrom]:                             1.520

     GTH Potential information for                                    GTH-PBE-q6

       Description:                       Goedecker-Teter-Hutter pseudopotential
                                           Goedecker et al., PRB 54, 1703 (1996)
                                          Hartwigsen et al., PRB 58, 3641 (1998)
                                                      Krack, TCA 114, 145 (2005)

       Gaussian exponent of the core charge distribution:               8.360253
       Electronic configuration (s p d ...):                               2   4

       Parameters of the local part of the GTH pseudopotential:

                          rloc        C1          C2          C3          C4
                        0.244554  -16.667215    2.487311

       Parameters of the non-local part of the GTH pseudopotential:

                   l      r(l)      h(i,j,l)

                   0    0.220956   18.337458
                   1    0.211332

  2. Atomic kind: H                                     Number of atoms:     200

     Orbital Basis Set                                        DZVP-MOLOPT-SR-GTH

       Number of orbital shell sets:                                           1
       Number of orbital shells:                                               3
       Number of primitive Cartesian functions:                                5
       Number of Cartesian basis functions:                                    5
       Number of spherical basis functions:                                    5
       Norm type:                                                              2

       Normalised Cartesian orbitals:

                        Set   Shell   Orbital            Exponent    Coefficient

                          1       1    2s               10.068468      -0.133023
                                                         2.680223      -0.177618
                                                         0.791502      -0.258419
                                                         0.239116      -0.107525
                                                         0.082193      -0.014019

                          1       2    3s               10.068468       0.344673
                                                         2.680223       1.819821
                                                         0.791502      -0.999069
                                                         0.239116       0.017430
                                                         0.082193       0.082660

                          1       3    3px              10.068468       0.155326
                                                         2.680223       0.367157
                                                         0.791502       0.311480
                                                         0.239116       0.080105
                                                         0.082193       0.033440
                          1       3    3py              10.068468       0.155326
                                                         2.680223       0.367157
                                                         0.791502       0.311480
                                                         0.239116       0.080105
                                                         0.082193       0.033440
                          1       3    3pz              10.068468       0.155326
                                                         2.680223       0.367157
                                                         0.791502       0.311480
                                                         0.239116       0.080105
                                                         0.082193       0.033440

       Atomic covalent radius [Angstrom]:                                  0.320

       Atomic van der Waals radius [Angstrom]:                             1.090

     GTH Potential information for                                    GTH-PBE-q1

       Description:                       Goedecker-Teter-Hutter pseudopotential
                                           Goedecker et al., PRB 54, 1703 (1996)
                                          Hartwigsen et al., PRB 58, 3641 (1998)
                                                      Krack, TCA 114, 145 (2005)

       Gaussian exponent of the core charge distribution:              12.500000
       Electronic configuration (s p d ...):                                   1

       Parameters of the local part of the GTH pseudopotential:

                          rloc        C1          C2          C3          C4
                        0.200000   -4.178900    0.724463

  3. Atomic kind: Pt                                    Number of atoms:     216

     Orbital Basis Set                      DZVP-A5-Q10-323-MOL-T1-DERIVED_SET-1

       Number of orbital shell sets:                                           1
       Number of orbital shells:                                               6
       Number of primitive Cartesian functions:                                5
       Number of Cartesian basis functions:                                   23
       Number of spherical basis functions:                                   20
       Norm type:                                                              2

       Normalised Cartesian orbitals:

                        Set   Shell   Orbital            Exponent    Coefficient

                          1       1    2s                2.521825       0.177473
                                                         1.453920      -0.063399
                                                         0.614053      -0.407089
                                                         0.232656       0.262254
                                                         0.074788       0.047371

                          1       2    3s                2.521825      -0.049056
                                                         1.453920       0.044904
                                                         0.614053      -0.009756
                                                         0.232656      -0.144709
                                                         0.074788       0.144085

                          1       3    3px               2.521825      -0.317572
                                                         1.453920       0.534826
                                                         0.614053      -0.489458
                                                         0.232656       0.245631
                                                         0.074788       0.018221
                          1       3    3py               2.521825      -0.317572
                                                         1.453920       0.534826
                                                         0.614053      -0.489458
                                                         0.232656       0.245631
                                                         0.074788       0.018221
                          1       3    3pz               2.521825      -0.317572
                                                         1.453920       0.534826
                                                         0.614053      -0.489458
                                                         0.232656       0.245631
                                                         0.074788       0.018221

                          1       4    4dx2              2.521825       3.008522
                                                         1.453920      -1.224251
                                                         0.614053       0.225691
                                                         0.232656       0.125144
                                                         0.074788      -0.015348
                          1       4    4dxy              2.521825       5.210912
                                                         1.453920      -2.120465
                                                         0.614053       0.390909
                                                         0.232656       0.216756
                                                         0.074788      -0.026584
                          1       4    4dxz              2.521825       5.210912
                                                         1.453920      -2.120465
                                                         0.614053       0.390909
                                                         0.232656       0.216756
                                                         0.074788      -0.026584
                          1       4    4dy2              2.521825       3.008522
                                                         1.453920      -1.224251
                                                         0.614053       0.225691
                                                         0.232656       0.125144
                                                         0.074788      -0.015348
                          1       4    4dyz              2.521825       5.210912
                                                         1.453920      -2.120465
                                                         0.614053       0.390909
                                                         0.232656       0.216756
                                                         0.074788      -0.026584
                          1       4    4dz2              2.521825       3.008522
                                                         1.453920      -1.224251
                                                         0.614053       0.225691
                                                         0.232656       0.125144
                                                         0.074788      -0.015348

                          1       5    5dx2              2.521825       0.698026
                                                         1.453920      -1.511486
                                                         0.614053      -0.335394
                                                         0.232656      -0.025564
                                                         0.074788      -0.002699
                          1       5    5dxy              2.521825       1.209017
                                                         1.453920      -2.617970
                                                         0.614053      -0.580920
                                                         0.232656      -0.044277
                                                         0.074788      -0.004674
                          1       5    5dxz              2.521825       1.209017
                                                         1.453920      -2.617970
                                                         0.614053      -0.580920
                                                         0.232656      -0.044277
                                                         0.074788      -0.004674
                          1       5    5dy2              2.521825       0.698026
                                                         1.453920      -1.511486
                                                         0.614053      -0.335394
                                                         0.232656      -0.025564
                                                         0.074788      -0.002699
                          1       5    5dyz              2.521825       1.209017
                                                         1.453920      -2.617970
                                                         0.614053      -0.580920
                                                         0.232656      -0.044277
                                                         0.074788      -0.004674
                          1       5    5dz2              2.521825       0.698026
                                                         1.453920      -1.511486
                                                         0.614053      -0.335394
                                                         0.232656      -0.025564
                                                         0.074788      -0.002699

                          1       6    6dx2              2.521825       0.831079
                                                         1.453920      -0.709226
                                                         0.614053      -0.137351
                                                         0.232656       0.068642
                                                         0.074788       0.011745
                          1       6    6dxy              2.521825       1.439472
                                                         1.453920      -1.228415
                                                         0.614053      -0.237899
                                                         0.232656       0.118891
                                                         0.074788       0.020343
                          1       6    6dxz              2.521825       1.439472
                                                         1.453920      -1.228415
                                                         0.614053      -0.237899
                                                         0.232656       0.118891
                                                         0.074788       0.020343
                          1       6    6dy2              2.521825       0.831079
                                                         1.453920      -0.709226
                                                         0.614053      -0.137351
                                                         0.232656       0.068642
                                                         0.074788       0.011745
                          1       6    6dyz              2.521825       1.439472
                                                         1.453920      -1.228415
                                                         0.614053      -0.237899
                                                         0.232656       0.118891
                                                         0.074788       0.020343
                          1       6    6dz2              2.521825       0.831079
                                                         1.453920      -0.709226
                                                         0.614053      -0.137351
                                                         0.232656       0.068642
                                                         0.074788       0.011745

       Atomic covalent radius [Angstrom]:                                  1.300

       Atomic van der Waals radius [Angstrom]:                             1.750

     GTH Potential information for                                   GTH-PBE-q10

       Description:                       Goedecker-Teter-Hutter pseudopotential
                                           Goedecker et al., PRB 54, 1703 (1996)
                                          Hartwigsen et al., PRB 58, 3641 (1998)
                                                      Krack, TCA 114, 145 (2005)

       Gaussian exponent of the core charge distribution:               1.317676
       Electronic configuration (s p d ...):                           1   0   9

       Parameters of the local part of the GTH pseudopotential:

                          rloc        C1          C2          C3          C4
                        0.616000   11.313635

       Parameters of the non-local part of the GTH pseudopotential:

                   l      r(l)      h(i,j,l)

                   0    0.550904    4.733491   -1.784594
                                   -1.784594    2.303901
                   1    0.674138    2.534798   -1.778066
                                   -1.778066    2.103836
                   2    0.457392   -7.264011    2.558665
                                    2.558665   -2.901253


 MOLECULE KIND INFORMATION


 All atoms are their own molecule, skipping detailed information


 TOTAL NUMBERS AND MAXIMUM NUMBERS

  Total number of            - Atomic kinds:                                   3
                             - Atoms:                                        516
                             - Shell sets:                                   516
                             - Shells:                                      2396
                             - Primitive Cartesian functions:               2580
                             - Cartesian basis functions:                   7368
                             - Spherical basis functions:                   6620

  Maximum angular momentum of- Orbital basis functions:                        2
                             - Local part of the GTH pseudopotential:          2
                             - Non-local part of the GTH pseudopotential:      4


 MODULE QUICKSTEP:  ATOMIC COORDINATES IN angstrom

 Atom  Kind  Element       X           Y           Z          Z(eff)       Mass
    1   1 O    8      12.600001   26.770000   39.737999       6.0000     15.9994
    2   2 H    1      12.240001   25.940001   39.487999       1.0000      1.0079
    3   2 H    1      13.100000   26.780003   40.607998       1.0000      1.0079
    4   1 O    8     -16.800001    4.500000   35.477999       6.0000     15.9994
    5   2 H    1     -16.430000    5.000000   36.227999       1.0000      1.0079
    6   2 H    1     -17.140001    5.170000   34.747999       1.0000      1.0079
    7   1 O    8     -38.500000  -17.450001   36.697998       6.0000     15.9994
    8   2 H    1     -38.240002  -16.550001   36.378001       1.0000      1.0079
    9   2 H    1     -37.970001  -17.470001   37.547999       1.0000      1.0079
   10   1 O    8      32.000000   19.490002   36.478001       6.0000     15.9994
   11   2 H    1      32.510002   18.900002   35.867998       1.0000      1.0079
   12   2 H    1      31.040001   19.410002   36.258000       1.0000      1.0079
   13   1 O    8      -6.430000  -14.360001   35.217999       6.0000     15.9994
   14   2 H    1      -5.630000  -14.860001   35.228001       1.0000      1.0079
   15   2 H    1      -7.260000  -14.820002   35.347998       1.0000      1.0079
   16   1 O    8     -10.090000  -20.420000   29.877999       6.0000     15.9994
   17   2 H    1      -9.910001  -19.920002   29.057999       1.0000      1.0079
   18   2 H    1      -9.360001  -20.850000   30.278000       1.0000      1.0079
   19   1 O    8      11.310000   15.410002   30.247998       6.0000     15.9994
   20   2 H    1      11.180000   15.480001   31.227999       1.0000      1.0079
   21   2 H    1      10.540000   14.780001   30.037999       1.0000      1.0079
   22   1 O    8     -20.200001   25.320000   33.618000       6.0000     15.9994
   23   2 H    1     -19.580000   26.060001   33.577998       1.0000      1.0079
   24   2 H    1     -21.040001   25.750000   33.207999       1.0000      1.0079
   25   1 O    8     -18.460001   27.430000   33.717999       6.0000     15.9994
   26   2 H    1     -17.550001   27.130001   33.897999       1.0000      1.0079
   27   2 H    1     -18.920000   27.480001   34.567997       1.0000      1.0079
   28   1 O    8      -5.690000   -7.160000   35.168000       6.0000     15.9994
   29   2 H    1      -5.810000   -7.970000   35.717999       1.0000      1.0079
   30   2 H    1      -5.660000   -7.300000   34.227999       1.0000      1.0079
   31   1 O    8     -16.830002   47.440002   35.067999       6.0000     15.9994
   32   2 H    1     -16.020000   47.460003   35.607998       1.0000      1.0079
   33   2 H    1       0.300000   47.600002   34.118000       1.0000      1.0079
   34   1 O    8      11.480000    4.410000   39.838000       6.0000     15.9994
   35   2 H    1       2.400000   18.480000   39.317999       1.0000      1.0079
   36   2 H    1      12.300000    4.180000   39.397999       1.0000      1.0079
   37   1 O    8       5.570001    3.540000   29.267998       6.0000     15.9994
   38   2 H    1       5.750000    4.530000   29.348000       1.0000      1.0079
   39   2 H    1       4.670000    3.410000   29.437996       1.0000      1.0079
   40   1 O    8     -15.500001    1.180000   32.577999       6.0000     15.9994
   41   2 H    1     -16.440001    0.800000   32.567999       1.0000      1.0079
   42   2 H    1     -15.180001    0.950000   33.487999       1.0000      1.0079
   43   1 O    8       4.860000    9.230001   35.817997       6.0000     15.9994
   44   2 H    1       4.850000    9.820001   35.037999       1.0000      1.0079
   45   2 H    1       4.200000    8.490001   35.668000       1.0000      1.0079
   46   1 O    8      -5.130000   12.820001   32.857998       6.0000     15.9994
   47   2 H    1      -5.020000   12.200001   32.138001       1.0000      1.0079
   48   2 H    1      -4.300000   12.870001   33.247998       1.0000      1.0079
   49   1 O    8     -42.690002   11.700001   30.537999       6.0000     15.9994
   50   2 H    1     -42.320004   11.090001   31.227999       1.0000      1.0079
   51   2 H    1     -43.660004   11.780001   30.627999       1.0000      1.0079
   52   1 O    8     -11.380000   -2.710000   38.907997       6.0000     15.9994
   53   2 H    1     -11.600000   -1.920000   39.438000       1.0000      1.0079
   54   2 H    1     -10.760001   -3.320000   39.327999       1.0000      1.0079
   55   1 O    8     -27.080002    5.110001   39.137997       6.0000     15.9994
   56   2 H    1     -27.870003    4.640000   39.517998       1.0000      1.0079
   57   2 H    1     -27.050001    4.790000   38.188000       1.0000      1.0079
   58   1 O    8     -15.710001   12.580000   38.817999       6.0000     15.9994
   59   2 H    1     -16.500000   12.490001   38.207999       1.0000      1.0079
   60   2 H    1     -15.560001   11.680001   39.137997       1.0000      1.0079
   61   1 O    8     -46.350002  -13.850001   29.437996       6.0000     15.9994
   62   2 H    1     -28.530003  -13.410001   29.418000       1.0000      1.0079
   63   2 H    1     -30.090000  -13.070001   29.637997       1.0000      1.0079
   64   1 O    8      -7.800000   22.070000   32.117998       6.0000     15.9994
   65   2 H    1      -7.580000   22.980001   32.418000       1.0000      1.0079
   66   2 H    1      -6.830000   21.780003   31.887999       1.0000      1.0079
   67   1 O    8       4.690000   -6.690001   30.168000       6.0000     15.9994
   68   2 H    1       4.820000   -6.370000   29.258000       1.0000      1.0079
   69   2 H    1       5.640000   -6.840000   30.357998       1.0000      1.0079
   70   1 O    8      17.990002    3.660000   31.807999       6.0000     15.9994
   71   2 H    1      18.200001    2.690000   32.167998       1.0000      1.0079
   72   2 H    1      18.890001    4.120000   31.807999       1.0000      1.0079
   73   1 O    8      31.780003    2.610000   36.307999       6.0000     15.9994
   74   2 H    1      31.180000    2.760000   35.547999       1.0000      1.0079
   75   2 H    1      32.590000    3.090000   36.018000       1.0000      1.0079
   76   1 O    8      36.760002    3.200000   29.267998       6.0000     15.9994
   77   2 H    1      36.410004    2.300000   29.567997       1.0000      1.0079
   78   2 H    1      36.100002    3.700000   29.737999       1.0000      1.0079
   79   1 O    8     -24.080002   39.440002   29.287999       6.0000     15.9994
   80   2 H    1     -23.310001   39.950001   29.557999       1.0000      1.0079
   81   2 H    1     -24.890001   39.950001   29.478001       1.0000      1.0079
   82   1 O    8      15.460001    1.050000   29.797997       6.0000     15.9994
   83   2 H    1      16.270000    0.620000   29.487999       1.0000      1.0079
   84   2 H    1      15.690001    2.040000   29.797997       1.0000      1.0079
   85   1 O    8      -5.380001   35.630001   36.297999       6.0000     15.9994
   86   2 H    1      -5.970000   36.330002   36.727999       1.0000      1.0079
   87   2 H    1      -4.560000   36.060001   36.018000       1.0000      1.0079
   88   1 O    8      13.170000    4.860000   30.027996       6.0000     15.9994
   89   2 H    1      12.840000    5.640000   29.487999       1.0000      1.0079
   90   2 H    1      14.000001    4.510000   29.637997       1.0000      1.0079
   91   1 O    8      -5.950000   -2.150000   36.497998       6.0000     15.9994
   92   2 H    1      -6.210001   -1.970000   37.418000       1.0000      1.0079
   93   2 H    1      -6.240000   -3.040000   36.267998       1.0000      1.0079
   94   1 O    8      10.220001   -0.770000   34.247999       6.0000     15.9994
   95   2 H    1      10.380001   -1.200000   35.098000       1.0000      1.0079
   96   2 H    1       9.390000   -0.180000   34.367998       1.0000      1.0079
   97   1 O    8      -5.810000   -2.850000   32.777998       6.0000     15.9994
   98   2 H    1      -6.210001   -2.020000   33.337998       1.0000      1.0079
   99   2 H    1      -5.700001   -2.370000   31.887999       1.0000      1.0079
  100   1 O    8      43.300003  -18.550001   36.478001       6.0000     15.9994
  101   2 H    1      42.410004  -18.160002   36.797999       1.0000      1.0079
  102   2 H    1      44.160004  -18.150002   36.838000       1.0000      1.0079
  103   1 O    8     -18.050001   42.200005   37.138001       6.0000     15.9994
  104   2 H    1      -1.930000   41.910000   37.737999       1.0000      1.0079
  105   2 H    1     -18.360001   41.730003   36.357998       1.0000      1.0079
  106   1 O    8       5.300000   21.170002   39.027998       6.0000     15.9994
  107   2 H    1       4.970000   21.049999   39.947998       1.0000      1.0079
  108   2 H    1       4.640000   21.049999   38.358000       1.0000      1.0079
  109   1 O    8      24.050003   -8.400001   33.787999       6.0000     15.9994
  110   2 H    1      23.290001   -8.660001   33.217999       1.0000      1.0079
  111   2 H    1      24.790001   -7.930000   33.317997       1.0000      1.0079
  112   1 O    8       4.960000    8.450001   31.797999       6.0000     15.9994
  113   2 H    1       5.810000    8.280001   31.418000       1.0000      1.0079
  114   2 H    1       5.120000    9.270000   32.377999       1.0000      1.0079
  115   1 O    8       7.450001    7.400000   35.928000       6.0000     15.9994
  116   2 H    1       6.750000    7.980001   36.297999       1.0000      1.0079
  117   2 H    1       7.210000    6.430000   36.177998       1.0000      1.0079
  118   1 O    8     -13.830000   13.370000   30.567999       6.0000     15.9994
  119   2 H    1     -14.660001   13.790001   30.187996       1.0000      1.0079
  120   2 H    1     -13.210001   14.060000   30.177998       1.0000      1.0079
  121   1 O    8       3.700000   -5.060000   32.197998       6.0000     15.9994
  122   2 H    1       4.140000   -5.660000   31.527998       1.0000      1.0079
  123   2 H    1       3.850000   -5.320000   33.117998       1.0000      1.0079
  124   1 O    8     -22.930002    3.810000   36.448000       6.0000     15.9994
  125   2 H    1     -22.260000    3.600000   35.817997       1.0000      1.0079
  126   2 H    1     -22.670002    4.720000   36.708001       1.0000      1.0079
  127   1 O    8       3.690000   -5.020000   39.747999       6.0000     15.9994
  128   2 H    1       4.460000   -4.500000   39.427998       1.0000      1.0079
  129   2 H    1       3.760000   -5.950000   39.397999       1.0000      1.0079
  130   1 O    8     -21.630001   47.950001   32.698000       6.0000     15.9994
  131   2 H    1     -20.770000   47.520004   32.827999       1.0000      1.0079
  132   2 H    1     -22.280003   47.640003   33.377999       1.0000      1.0079
  133   1 O    8      11.570001   21.380001   32.598000       6.0000     15.9994
  134   2 H    1      20.700001    7.430000   32.487999       1.0000      1.0079
  135   2 H    1      -4.960000   20.430000   32.577999       1.0000      1.0079
  136   1 O    8       3.520000  -14.460001   39.727997       6.0000     15.9994
  137   2 H    1       4.440001  -14.120001   39.807999       1.0000      1.0079
  138   2 H    1       3.630000  -15.500001   39.627999       1.0000      1.0079
  139   1 O    8       0.650000   14.410001   30.157997       6.0000     15.9994
  140   2 H    1       0.200000   14.230001   29.258000       1.0000      1.0079
  141   2 H    1       0.090000   15.010000   30.697998       1.0000      1.0079
  142   1 O    8       2.820000   17.510000   30.057999       6.0000     15.9994
  143   2 H    1       2.410000   17.480000   30.958001       1.0000      1.0079
  144   2 H    1       3.390000   18.350000   30.097996       1.0000      1.0079
  145   1 O    8      -1.190000   68.410004   39.538000       6.0000     15.9994
  146   2 H    1      -1.290000   67.870003   38.677998       1.0000      1.0079
  147   2 H    1      -1.520000   67.710007   40.217999       1.0000      1.0079
  148   1 O    8     -18.200001    0.540000   32.517998       6.0000     15.9994
  149   2 H    1     -18.470001    0.430000   31.588000       1.0000      1.0079
  150   2 H    1     -18.470001   -0.340000   33.017998       1.0000      1.0079
  151   1 O    8      -9.680000    1.380000   31.418000       6.0000     15.9994
  152   2 H    1     -10.320001    0.720000   30.997999       1.0000      1.0079
  153   2 H    1      -9.730001    2.080000   30.727999       1.0000      1.0079
  154   1 O    8       1.040000   -7.200000   30.227997       6.0000     15.9994
  155   2 H    1       1.120000   -7.860000   29.478001       1.0000      1.0079
  156   2 H    1       1.150000   -6.370000   29.677998       1.0000      1.0079
  157   1 O    8      -6.820001   46.450005   38.957999       6.0000     15.9994
  158   2 H    1      -6.860001   46.370003   39.967999       1.0000      1.0079
  159   2 H    1      -7.000000   47.390003   38.787999       1.0000      1.0079
  160   1 O    8       1.340000   22.780001   37.307999       6.0000     15.9994
  161   2 H    1       1.310000   23.750000   36.907999       1.0000      1.0079
  162   2 H    1       0.550000   22.310001   36.857998       1.0000      1.0079
  163   1 O    8      17.050001   47.980003   29.677998       6.0000     15.9994
  164   2 H    1      16.610001   47.660004   28.847996       1.0000      1.0079
  165   2 H    1      17.900002   47.430000   29.787999       1.0000      1.0079
  166   1 O    8     -36.940002   -1.750000   36.118000       6.0000     15.9994
  167   2 H    1     -36.700001   -0.940000   36.537999       1.0000      1.0079
  168   2 H    1     -37.870003   -1.900000   36.317999       1.0000      1.0079
  169   1 O    8     -12.240001    9.410001   38.537999       6.0000     15.9994
  170   2 H    1     -12.050000    9.530001   37.587998       1.0000      1.0079
  171   2 H    1     -11.420001    9.020000   38.878001       1.0000      1.0079
  172   1 O    8     -19.700001    3.600000   38.647999       6.0000     15.9994
  173   2 H    1     -19.130001    4.270000   38.918000       1.0000      1.0079
  174   2 H    1     -10.890001  -11.250000   37.747998       1.0000      1.0079
  175   1 O    8     -19.400002   -8.490001   29.627999       6.0000     15.9994
  176   2 H    1     -18.990000   -8.630000   30.498001       1.0000      1.0079
  177   2 H    1     -18.850000   -8.020000   28.997998       1.0000      1.0079
  178   1 O    8     -10.840001   31.940002   33.537999       6.0000     15.9994
  179   2 H    1     -10.520000   31.310001   32.827999       1.0000      1.0079
  180   2 H    1     -11.300000   31.430000   34.247999       1.0000      1.0079
  181   1 O    8      21.720001   24.050003   34.487999       6.0000     15.9994
  182   2 H    1      21.330002   24.690001   35.168000       1.0000      1.0079
  183   2 H    1      30.420000    8.630000   34.947998       1.0000      1.0079
  184   1 O    8      -0.840000    7.880001   29.897999       6.0000     15.9994
  185   2 H    1      -0.390000    7.740001   28.997998       1.0000      1.0079
  186   2 H    1      -0.300000    7.550001   30.617998       1.0000      1.0079
  187   1 O    8       2.270000    3.210000   35.117998       6.0000     15.9994
  188   2 H    1       2.030000    2.250000   35.137999       1.0000      1.0079
  189   2 H    1       1.390000    3.710000   35.198000       1.0000      1.0079
  190   1 O    8      21.410000   -0.420000   35.717999       6.0000     15.9994
  191   2 H    1      21.820002    0.210000   36.387999       1.0000      1.0079
  192   2 H    1      22.120001   -0.410000   34.977999       1.0000      1.0079
  193   1 O    8       1.780000  -12.570001   38.618000       6.0000     15.9994
  194   2 H    1       2.450000  -13.290001   38.857998       1.0000      1.0079
  195   2 H    1       2.100000  -11.970000   37.838000       1.0000      1.0079
  196   1 O    8     -31.440001   34.790001   37.427998       6.0000     15.9994
  197   2 H    1     -31.110001   35.330002   38.217999       1.0000      1.0079
  198   2 H    1     -30.760002   34.080002   37.338000       1.0000      1.0079
  199   1 O    8       9.500000   12.040001   33.897999       6.0000     15.9994
  200   2 H    1      10.370001   12.420001   33.607998       1.0000      1.0079
  201   2 H    1       9.700001   11.490001   34.697998       1.0000      1.0079
  202   1 O    8       8.290001    0.830000   34.577999       6.0000     15.9994
  203   2 H    1      -0.250000   15.320001   35.537999       1.0000      1.0079
  204   2 H    1       8.560000    1.830000   34.617998       1.0000      1.0079
  205   1 O    8      22.750000   -0.360000   29.797997       6.0000     15.9994
  206   2 H    1      21.890001    0.020000   29.517998       1.0000      1.0079
  207   2 H    1      23.300001   -0.410000   28.997998       1.0000      1.0079
  208   1 O    8      22.610001   26.200001   30.677998       6.0000     15.9994
  209   2 H    1      23.210001   25.800001   29.967999       1.0000      1.0079
  210   2 H    1      22.610001   27.170002   30.397999       1.0000      1.0079
  211   1 O    8     -36.950001   26.020002   30.168000       6.0000     15.9994
  212   2 H    1     -36.780003   25.670002   29.248001       1.0000      1.0079
  213   2 H    1     -37.670002   26.600000   29.918000       1.0000      1.0079
  214   1 O    8      -9.180000   -8.690001   38.307999       6.0000     15.9994
  215   2 H    1      -8.610001   -9.120001   38.978001       1.0000      1.0079
  216   2 H    1     -10.050000   -8.410000   38.697998       1.0000      1.0079
  217   1 O    8       1.550000   10.720000   29.487999       6.0000     15.9994
  218   2 H    1       2.300000   10.110001   29.677998       1.0000      1.0079
  219   2 H    1       1.680000   11.680001   29.557999       1.0000      1.0079
  220   1 O    8     -25.250000   14.820002   39.097998       6.0000     15.9994
  221   2 H    1     -24.600000   14.140000   39.317999       1.0000      1.0079
  222   2 H    1     -24.770002   15.690001   39.137997       1.0000      1.0079
  223   1 O    8      24.700001  -14.560001   36.287999       6.0000     15.9994
  224   2 H    1      25.020000  -14.380001   37.268000       1.0000      1.0079
  225   2 H    1      24.120003  -13.750001   36.327999       1.0000      1.0079
  226   1 O    8      16.040001  -25.340002   30.037999       6.0000     15.9994
  227   2 H    1      16.670000  -25.280001   30.817997       1.0000      1.0079
  228   2 H    1      16.550001  -25.150002   29.258000       1.0000      1.0079
  229   1 O    8     -15.690001   39.110001   35.888001       6.0000     15.9994
  230   2 H    1     -15.950001   39.420002   34.947998       1.0000      1.0079
  231   2 H    1     -15.040001   38.380005   35.677998       1.0000      1.0079
  232   1 O    8      11.710000   23.350000   29.807999       6.0000     15.9994
  233   2 H    1      12.250000   23.270000   28.987999       1.0000      1.0079
  234   2 H    1      12.280001   23.600002   30.647999       1.0000      1.0079
  235   1 O    8      17.550001   -0.650000   29.677998       6.0000     15.9994
  236   2 H    1      17.660000   -1.080000   28.787999       1.0000      1.0079
  237   2 H    1      17.190001   -1.310000   30.337998       1.0000      1.0079
  238   1 O    8      41.270004   11.730001   37.537999       6.0000     15.9994
  239   2 H    1      40.280003   11.810001   37.418000       1.0000      1.0079
  240   2 H    1      41.420002   11.700001   38.548001       1.0000      1.0079
  241   1 O    8       2.920000  -21.580000   39.357998       6.0000     15.9994
  242   2 H    1       2.210000  -20.970001   39.617998       1.0000      1.0079
  243   2 H    1       3.610000  -20.960003   38.978001       1.0000      1.0079
  244   1 O    8       7.220001    5.250000   31.827999       6.0000     15.9994
  245   2 H    1       7.820001    5.930000   32.217999       1.0000      1.0079
  246   2 H    1       7.730001    4.890000   31.067999       1.0000      1.0079
  247   1 O    8     -17.530001    8.480000   37.247999       6.0000     15.9994
  248   2 H    1     -17.050001    7.630000   37.508000       1.0000      1.0079
  249   2 H    1     -17.040001    8.980000   36.518000       1.0000      1.0079
  250   1 O    8      -2.040000   13.530001   33.978001       6.0000     15.9994
  251   2 H    1      -9.740001   28.750002   33.668000       1.0000      1.0079
  252   2 H    1      -1.880000   12.620001   33.528000       1.0000      1.0079
  253   1 O    8     -29.130001   17.720001   34.567997       6.0000     15.9994
  254   2 H    1     -29.350002   16.910002   34.118000       1.0000      1.0079
  255   2 H    1     -28.910000   18.390001   33.867998       1.0000      1.0079
  256   1 O    8     -21.760002    1.190000   33.087998       6.0000     15.9994
  257   2 H    1     -22.330000    0.380000   33.307999       1.0000      1.0079
  258   2 H    1     -21.280001    0.990000   32.278000       1.0000      1.0079
  259   1 O    8      21.080000  -25.470001   36.877999       6.0000     15.9994
  260   2 H    1      20.430000  -25.840000   36.227999       1.0000      1.0079
  261   2 H    1      21.440001  -26.270000   37.348000       1.0000      1.0079
  262   1 O    8     -18.650002   11.080000   33.017998       6.0000     15.9994
  263   2 H    1     -19.200001   10.980000   32.157997       1.0000      1.0079
  264   2 H    1     -19.190002   10.570001   33.598000       1.0000      1.0079
  265   1 O    8       0.780000   10.040001   33.197998       6.0000     15.9994
  266   2 H    1      -0.130000   10.430001   32.947998       1.0000      1.0079
  267   2 H    1       1.450000   10.660001   32.787999       1.0000      1.0079
  268   1 O    8     -11.360001   21.980001   35.847998       6.0000     15.9994
  269   2 H    1     -10.700001   22.340002   36.507998       1.0000      1.0079
  270   2 H    1     -10.790000   21.430000   35.277998       1.0000      1.0079
  271   1 O    8      16.380001   15.450001   37.237999       6.0000     15.9994
  272   2 H    1      24.600000   -0.040000   37.598000       1.0000      1.0079
  273   2 H    1      17.060001   15.790001   37.868000       1.0000      1.0079
  274   1 O    8      16.880001   22.090000   33.327999       6.0000     15.9994
  275   2 H    1      17.270000   22.900002   32.897999       1.0000      1.0079
  276   2 H    1      16.740000   22.310001   34.258000       1.0000      1.0079
  277   1 O    8      -6.750000    3.260000   32.617998       6.0000     15.9994
  278   2 H    1      -6.140000    2.550000   32.928000       1.0000      1.0079
  279   2 H    1      -6.370000    4.140000   32.887997       1.0000      1.0079
  280   1 O    8       9.370001   39.040001   32.167998       6.0000     15.9994
  281   2 H    1      10.320001   38.790001   31.977999       1.0000      1.0079
  282   2 H    1       9.380000   39.920002   32.747998       1.0000      1.0079
  283   1 O    8       5.270000   30.500002   37.847998       6.0000     15.9994
  284   2 H    1       5.010000   30.070002   38.677998       1.0000      1.0079
  285   2 H    1       6.240000   30.580002   37.757998       1.0000      1.0079
  286   1 O    8      -6.390000   20.210001   29.977997       6.0000     15.9994
  287   2 H    1      -6.740000   20.650002   29.248001       1.0000      1.0079
  288   2 H    1      -5.590000   20.780001   30.168000       1.0000      1.0079
  289   1 O    8       3.220000   -2.800000   30.017998       6.0000     15.9994
  290   2 H    1     -12.710000   -3.120000   30.247998       1.0000      1.0079
  291   2 H    1       3.290000   -2.180000   29.287999       1.0000      1.0079
  292   1 O    8      -3.640000   34.420002   32.798001       6.0000     15.9994
  293   2 H    1      -3.660000   34.210003   31.817999       1.0000      1.0079
  294   2 H    1      -4.470000   34.840004   33.037999       1.0000      1.0079
  295   1 O    8      27.750000  -23.280001   33.688000       6.0000     15.9994
  296   2 H    1      27.090000  -22.610001   33.518000       1.0000      1.0079
  297   2 H    1      27.810001  -23.410000   34.657997       1.0000      1.0079
  298   1 O    8      -1.000000   10.380001   29.318001       6.0000     15.9994
  299   2 H    1       0.020000   10.530001   29.307999       1.0000      1.0079
  300   2 H    1      -1.120000    9.360001   29.577999       1.0000      1.0079
  301   3 Pt  78       1.470000    0.680000   26.927998      10.0000    195.0840
  302   3 Pt  78       4.390000    0.780000   26.818001      10.0000    195.0840
  303   3 Pt  78       7.130001    0.790000   26.717999      10.0000    195.0840
  304   3 Pt  78      10.080000    0.740000   26.807999      10.0000    195.0840
  305   3 Pt  78      12.760000    0.670000   26.807999      10.0000    195.0840
  306   3 Pt  78      15.510001    0.760000   26.867997      10.0000    195.0840
  307   3 Pt  78       2.850000    3.030000   26.918000      10.0000    195.0840
  308   3 Pt  78       5.660000    3.160000   26.958001      10.0000    195.0840
  309   3 Pt  78       8.490001    3.130000   26.867997      10.0000    195.0840
  310   3 Pt  78      11.310000    3.210000   26.897999      10.0000    195.0840
  311   3 Pt  78      14.210001    3.090000   26.767998      10.0000    195.0840
  312   3 Pt  78       0.110000    3.010000   26.767998      10.0000    195.0840
  313   3 Pt  78       4.310000    5.600000   26.787999      10.0000    195.0840
  314   3 Pt  78       7.070000    5.500000   26.637997      10.0000    195.0840
  315   3 Pt  78       9.990001    5.490000   26.857998      10.0000    195.0840
  316   3 Pt  78      12.850000    5.600000   26.668000      10.0000    195.0840
  317   3 Pt  78      -1.300000    5.580000   26.827999      10.0000    195.0840
  318   3 Pt  78       1.540000    5.600000   26.717999      10.0000    195.0840
  319   3 Pt  78       5.720000    7.990000   26.827999      10.0000    195.0840
  320   3 Pt  78       8.640000    8.020000   26.837998      10.0000    195.0840
  321   3 Pt  78      11.310000    8.000000   26.947998      10.0000    195.0840
  322   3 Pt  78      -2.700000    8.110001   26.897999      10.0000    195.0840
  323   3 Pt  78       0.080000    8.150001   26.877999      10.0000    195.0840
  324   3 Pt  78       2.960000    8.080000   26.837998      10.0000    195.0840
  325   3 Pt  78       7.160000   10.530001   26.937996      10.0000    195.0840
  326   3 Pt  78       9.930000   10.430001   27.028000      10.0000    195.0840
  327   3 Pt  78      -4.140000   10.559999   26.947998      10.0000    195.0840
  328   3 Pt  78      -1.380000   10.480001   27.087998      10.0000    195.0840
  329   3 Pt  78       1.560000   10.430001   26.877999      10.0000    195.0840
  330   3 Pt  78       4.410000   10.450001   26.777996      10.0000    195.0840
  331   3 Pt  78       8.530001   12.880001   26.787999      10.0000    195.0840
  332   3 Pt  78      -5.440001   13.070001   26.837998      10.0000    195.0840
  333   3 Pt  78      -2.650000   12.920000   26.848000      10.0000    195.0840
  334   3 Pt  78       0.200000   13.000001   26.787999      10.0000    195.0840
  335   3 Pt  78       3.040000   12.860001   26.897999      10.0000    195.0840
  336   3 Pt  78       5.800000   12.920000   26.857998      10.0000    195.0840
  337   3 Pt  78       0.080000    1.540000   24.357998      10.0000    195.0840
  338   3 Pt  78       3.010000    1.500000   24.478001      10.0000    195.0840
  339   3 Pt  78       5.850000    1.630000   24.507996      10.0000    195.0840
  340   3 Pt  78       8.600000    1.430000   24.407997      10.0000    195.0840
  341   3 Pt  78      11.540001    1.510000   24.467999      10.0000    195.0840
  342   3 Pt  78      14.280001    1.440000   24.447998      10.0000    195.0840
  343   3 Pt  78       1.640000    4.000000   24.517998      10.0000    195.0840
  344   3 Pt  78       4.530000    3.860000   24.587998      10.0000    195.0840
  345   3 Pt  78       7.370000    3.900000   24.348000      10.0000    195.0840
  346   3 Pt  78      10.130000    3.880000   24.427998      10.0000    195.0840
  347   3 Pt  78      12.860001    3.880000   24.348000      10.0000    195.0840
  348   3 Pt  78      -1.190000    4.030000   24.437996      10.0000    195.0840
  349   3 Pt  78       2.970000    6.420000   24.577999      10.0000    195.0840
  350   3 Pt  78       5.720000    6.430000   24.437996      10.0000    195.0840
  351   3 Pt  78       8.620001    6.240000   24.478001      10.0000    195.0840
  352   3 Pt  78      11.390000    6.380000   24.537999      10.0000    195.0840
  353   3 Pt  78      -2.570000    6.510000   24.427998      10.0000    195.0840
  354   3 Pt  78       0.190000    6.470000   24.528000      10.0000    195.0840
  355   3 Pt  78       4.360000    8.900001   24.458001      10.0000    195.0840
  356   3 Pt  78       7.200000    8.830000   24.507996      10.0000    195.0840
  357   3 Pt  78      10.030001    8.740000   24.587998      10.0000    195.0840
  358   3 Pt  78      -4.070000    8.830000   24.497998      10.0000    195.0840
  359   3 Pt  78      -1.160000    8.880001   24.587998      10.0000    195.0840
  360   3 Pt  78       1.610000    8.920000   24.487999      10.0000    195.0840
  361   3 Pt  78       5.740000   11.320001   24.458001      10.0000    195.0840
  362   3 Pt  78       8.610001   11.250000   24.557999      10.0000    195.0840
  363   3 Pt  78      -5.480001   11.240001   24.618000      10.0000    195.0840
  364   3 Pt  78      -2.620000   11.240001   24.577999      10.0000    195.0840
  365   3 Pt  78       0.200000   11.430000   24.537999      10.0000    195.0840
  366   3 Pt  78       2.920000   11.400002   24.487999      10.0000    195.0840
  367   3 Pt  78       7.180000   13.600000   24.487999      10.0000    195.0840
  368   3 Pt  78      -6.890000   13.690001   24.458001      10.0000    195.0840
  369   3 Pt  78      -4.160000   13.770000   24.497998      10.0000    195.0840
  370   3 Pt  78      -1.320000   13.740001   24.487999      10.0000    195.0840
  371   3 Pt  78       1.570000   13.780001   24.467999      10.0000    195.0840
  372   3 Pt  78       4.420000   13.700001   24.467999      10.0000    195.0840
  373   3 Pt  78      -8.290001   14.480001   22.237999      10.0000    195.0840
  374   3 Pt  78      -5.460000   14.510001   22.287999      10.0000    195.0840
  375   3 Pt  78      -2.550000   14.440001   22.227997      10.0000    195.0840
  376   3 Pt  78       0.110000   14.410001   22.087998      10.0000    195.0840
  377   3 Pt  78       2.970000   14.460001   22.147999      10.0000    195.0840
  378   3 Pt  78       5.830000   14.520000   22.037999      10.0000    195.0840
  379   3 Pt  78       1.630000    2.420000   22.217999      10.0000    195.0840
  380   3 Pt  78       4.440001    2.400000   22.177998      10.0000    195.0840
  381   3 Pt  78       7.210000    2.330000   22.057995      10.0000    195.0840
  382   3 Pt  78       9.980000    2.150000   22.147999      10.0000    195.0840
  383   3 Pt  78      12.870001    2.250000   22.117997      10.0000    195.0840
  384   3 Pt  78      -1.200000    2.330000   22.177998      10.0000    195.0840
  385   3 Pt  78       3.090000    4.840000   22.247998      10.0000    195.0840
  386   3 Pt  78       5.880000    4.830000   22.187996      10.0000    195.0840
  387   3 Pt  78       8.740000    4.770000   22.127999      10.0000    195.0840
  388   3 Pt  78      11.430000    4.730000   22.107998      10.0000    195.0840
  389   3 Pt  78      -2.690000    4.780000   22.147999      10.0000    195.0840
  390   3 Pt  78       0.250000    4.830000   22.177998      10.0000    195.0840
  391   3 Pt  78       4.440001    7.240000   22.168000      10.0000    195.0840
  392   3 Pt  78       7.200000    7.220001   22.257996      10.0000    195.0840
  393   3 Pt  78       9.970000    7.330000   22.247998      10.0000    195.0840
  394   3 Pt  78      -4.120000    7.220001   22.168000      10.0000    195.0840
  395   3 Pt  78      -1.140000    7.190001   22.107998      10.0000    195.0840
  396   3 Pt  78       1.680000    7.260000   22.187996      10.0000    195.0840
  397   3 Pt  78       5.810000    9.670001   22.227997      10.0000    195.0840
  398   3 Pt  78       8.580000    9.680000   22.297997      10.0000    195.0840
  399   3 Pt  78      -5.390000    9.670001   22.307999      10.0000    195.0840
  400   3 Pt  78      -2.600000    9.570000   22.327999      10.0000    195.0840
  401   3 Pt  78       0.250000    9.530001   22.187996      10.0000    195.0840
  402   3 Pt  78       3.000000    9.670001   22.107998      10.0000    195.0840
  403   3 Pt  78       7.220001   12.060001   22.147999      10.0000    195.0840
  404   3 Pt  78      -6.900001   12.090001   22.278000      10.0000    195.0840
  405   3 Pt  78      -4.030000   12.040001   22.227997      10.0000    195.0840
  406   3 Pt  78      -1.230000   11.970000   22.227997      10.0000    195.0840
  407   3 Pt  78       1.500000   12.090001   22.057995      10.0000    195.0840
  408   3 Pt  78       4.350000   12.190001   22.147999      10.0000    195.0840
  409   3 Pt  78       1.600000    0.670000   19.990000      10.0000    195.0840
  410   3 Pt  78       4.420000    0.660000   20.030000      10.0000    195.0840
  411   3 Pt  78       7.190001    0.700000   19.830000      10.0000    195.0840
  412   3 Pt  78       9.900001    0.710000   19.800000      10.0000    195.0840
  413   3 Pt  78      12.760000    0.680000   19.830000      10.0000    195.0840
  414   3 Pt  78      15.540000    0.740000   19.860000      10.0000    195.0840
  415   3 Pt  78       2.960000    3.060000   19.840000      10.0000    195.0840
  416   3 Pt  78       5.730000    3.150000   19.830000      10.0000    195.0840
  417   3 Pt  78       8.560000    3.240000   19.830000      10.0000    195.0840
  418   3 Pt  78      11.360001    3.090000   19.820000      10.0000    195.0840
  419   3 Pt  78      14.210001    3.110000   19.780000      10.0000    195.0840
  420   3 Pt  78       0.210000    3.070000   19.890000      10.0000    195.0840
  421   3 Pt  78       4.330000    5.650000   19.880000      10.0000    195.0840
  422   3 Pt  78       7.120000    5.660000   19.910000      10.0000    195.0840
  423   3 Pt  78       9.930000    5.580000   19.870000      10.0000    195.0840
  424   3 Pt  78      12.720001    5.470000   19.890000      10.0000    195.0840
  425   3 Pt  78      -1.220000    5.490000   19.870000      10.0000    195.0840
  426   3 Pt  78       1.650000    5.440001   19.990000      10.0000    195.0840
  427   3 Pt  78       5.810000    8.070001   19.840000      10.0000    195.0840
  428   3 Pt  78       8.570001    8.070001   19.900000      10.0000    195.0840
  429   3 Pt  78      11.380000    7.970000   19.820000      10.0000    195.0840
  430   3 Pt  78      -2.670000    7.950000   19.850000      10.0000    195.0840
  431   3 Pt  78       0.210000    7.970000   19.880000      10.0000    195.0840
  432   3 Pt  78       3.020000    8.000000   19.860000      10.0000    195.0840
  433   3 Pt  78       7.260000   10.559999   19.940000      10.0000    195.0840
  434   3 Pt  78      10.000000   10.440001   19.990000      10.0000    195.0840
  435   3 Pt  78      -4.000000   10.430001   19.950000      10.0000    195.0840
  436   3 Pt  78      -1.220000   10.380001   19.850000      10.0000    195.0840
  437   3 Pt  78       1.510000   10.440001   19.750000      10.0000    195.0840
  438   3 Pt  78       4.400000   10.500001   19.870000      10.0000    195.0840
  439   3 Pt  78       8.570001   12.930001   19.870000      10.0000    195.0840
  440   3 Pt  78      -5.480001   12.780001   20.090000      10.0000    195.0840
  441   3 Pt  78      -2.660000   12.830001   19.840000      10.0000    195.0840
  442   3 Pt  78       0.100000   12.800001   19.790000      10.0000    195.0840
  443   3 Pt  78       2.860000   12.880001   19.700000      10.0000    195.0840
  444   3 Pt  78       5.710001   12.850000   19.760000      10.0000    195.0840
  445   3 Pt  78       0.180000    1.410000   17.490000      10.0000    195.0840
  446   3 Pt  78       2.900000    1.550000   17.660000      10.0000    195.0840
  447   3 Pt  78       5.670000    1.600000   17.460000      10.0000    195.0840
  448   3 Pt  78       8.350000    1.610000   17.530000      10.0000    195.0840
  449   3 Pt  78      11.290001    1.570000   17.550000      10.0000    195.0840
  450   3 Pt  78      14.220000    1.500000   17.380000      10.0000    195.0840
  451   3 Pt  78       1.460000    3.880000   17.600000      10.0000    195.0840
  452   3 Pt  78       4.330000    4.070000   17.650000      10.0000    195.0840
  453   3 Pt  78       7.060000    4.020000   17.610000      10.0000    195.0840
  454   3 Pt  78       9.840000    3.930000   17.530000      10.0000    195.0840
  455   3 Pt  78      12.780001    3.910000   17.490000      10.0000    195.0840
  456   3 Pt  78      -1.300000    3.930000   17.570000      10.0000    195.0840
  457   3 Pt  78       2.940000    6.410000   17.570000      10.0000    195.0840
  458   3 Pt  78       5.750000    6.560000   17.520000      10.0000    195.0840
  459   3 Pt  78       8.520000    6.500000   17.580000      10.0000    195.0840
  460   3 Pt  78      11.370001    6.230001   17.620000      10.0000    195.0840
  461   3 Pt  78      -2.780000    6.380000   17.660000      10.0000    195.0840
  462   3 Pt  78       0.170000    6.330000   17.580000      10.0000    195.0840
  463   3 Pt  78       4.340000    8.940001   17.580000      10.0000    195.0840
  464   3 Pt  78       7.260000    8.990001   17.590000      10.0000    195.0840
  465   3 Pt  78      10.110001    8.910000   17.520000      10.0000    195.0840
  466   3 Pt  78      -4.030000    8.930000   17.510000      10.0000    195.0840
  467   3 Pt  78      -1.200000    8.890000   17.640000      10.0000    195.0840
  468   3 Pt  78       1.540000    8.900001   17.580000      10.0000    195.0840
  469   3 Pt  78       5.680000   11.350001   17.480000      10.0000    195.0840
  470   3 Pt  78       8.590000   11.410000   17.620000      10.0000    195.0840
  471   3 Pt  78      -5.500000   11.330000   17.650000      10.0000    195.0840
  472   3 Pt  78      -2.710000   11.350001   17.570000      10.0000    195.0840
  473   3 Pt  78       0.070000   11.320001   17.420000      10.0000    195.0840
  474   3 Pt  78       2.970000   11.270000   17.460000      10.0000    195.0840
  475   3 Pt  78       7.140000   13.730000   17.500000      10.0000    195.0840
  476   3 Pt  78      -6.850000   13.750001   17.700000      10.0000    195.0840
  477   3 Pt  78      -4.080000   13.770000   17.690000      10.0000    195.0840
  478   3 Pt  78      -1.360000   13.670001   17.500000      10.0000    195.0840
  479   3 Pt  78       1.410000   13.680000   17.530000      10.0000    195.0840
  480   3 Pt  78       4.300000   13.780001   17.450000      10.0000    195.0840
  481   3 Pt  78      -8.430000   14.530001   15.170000      10.0000    195.0840
  482   3 Pt  78      -5.620000   14.570000   15.310000      10.0000    195.0840
  483   3 Pt  78      -2.800000   14.600000   15.240000      10.0000    195.0840
  484   3 Pt  78      -0.110000   14.570000   15.240000      10.0000    195.0840
  485   3 Pt  78       2.770000   14.460001   15.200000      10.0000    195.0840
  486   3 Pt  78       5.410000   14.510001   15.090000      10.0000    195.0840
  487   3 Pt  78       1.410000    2.360000   15.140000      10.0000    195.0840
  488   3 Pt  78       4.090000    2.400000   15.280000      10.0000    195.0840
  489   3 Pt  78       7.030000    2.440000   15.190000      10.0000    195.0840
  490   3 Pt  78       9.900001    2.240000   15.290000      10.0000    195.0840
  491   3 Pt  78      12.670001    2.370000   15.130000      10.0000    195.0840
  492   3 Pt  78      -1.310000    2.460000   15.210000      10.0000    195.0840
  493   3 Pt  78       2.810000    4.770000   15.180000      10.0000    195.0840
  494   3 Pt  78       5.630000    4.700000   15.300000      10.0000    195.0840
  495   3 Pt  78       8.440001    4.750000   15.250000      10.0000    195.0840
  496   3 Pt  78      11.180000    4.780000   15.280000      10.0000    195.0840
  497   3 Pt  78      -2.830000    4.890000   15.200000      10.0000    195.0840
  498   3 Pt  78       0.080000    4.870000   15.180000      10.0000    195.0840
  499   3 Pt  78       4.090000    7.270000   15.260000      10.0000    195.0840
  500   3 Pt  78       7.100000    7.130001   15.349999      10.0000    195.0840
  501   3 Pt  78       9.820001    7.190001   15.410000      10.0000    195.0840
  502   3 Pt  78      -4.290000    7.160000   15.250000      10.0000    195.0840
  503   3 Pt  78      -1.430000    7.230001   15.340000      10.0000    195.0840
  504   3 Pt  78       1.320000    7.300000   15.160000      10.0000    195.0840
  505   3 Pt  78       5.600000    9.680000   15.190000      10.0000    195.0840
[...]
 flops    13 x    32 x    13           5894438784       0.0%    100.0%      0.0%
 flops    13 x    13 x   124           6815394144       0.0%    100.0%      0.0%
 flops     5 x     5 x    96           6944832000       0.0%    100.0%      0.0%
 flops    13 x    32 x    20           8468478720       0.0%    100.0%      0.0%
 flops    20 x    32 x    13           8468478720       0.0%    100.0%      0.0%
 flops    13 x     5 x    96           8802293760       0.0%    100.0%      0.0%
 flops     5 x    13 x    96           8809482240       0.0%    100.0%      0.0%
 flops     5 x    32 x    20           9056499200       0.0%    100.0%      0.0%
 flops    20 x    32 x     5           9056499200       0.0%    100.0%      0.0%
 flops    13 x    20 x   124           9647239680       0.0%    100.0%      0.0%
 flops    20 x    13 x   124           9719199360       0.0%    100.0%      0.0%
 flops     5 x    20 x   124          10337731200       0.0%    100.0%      0.0%
 flops    20 x     5 x   124          10373443200       0.0%    100.0%      0.0%
 flops    13 x    13 x    96          10552868352       0.0%    100.0%      0.0%
 flops    13 x    20 x    96          14937661440       0.0%    100.0%      0.0%
 flops    20 x    13 x    96          15049082880       0.0%    100.0%      0.0%
 flops     5 x    20 x    96          16006809600       0.0%    100.0%      0.0%
 flops    20 x     5 x    96          16062105600       0.0%    100.0%      0.0%
 flops     5 x     5 x   128          60188544000       0.0%    100.0%      0.0%
 flops    20 x    32 x    20          72858009600       0.0%    100.0%      0.0%
 flops    13 x     5 x   128          76286545920       0.0%    100.0%      0.0%
 flops     5 x    13 x   128          76348846080       0.0%    100.0%      0.0%
 flops    20 x    20 x   124          83694643200       0.0%    100.0%      0.0%
 flops    13 x    13 x   128          91458192384       0.0%    100.0%      0.0%
 flops    13 x    20 x   128         129459732480       0.0%    100.0%      0.0%
 flops    20 x    20 x    96         129591705600       0.0%    100.0%      0.0%
 flops    20 x    13 x   128         130425384960       0.0%    100.0%      0.0%
 flops     5 x    20 x   128         138725683200       0.0%    100.0%      0.0%
 flops    20 x     5 x   128         139204915200       0.0%    100.0%      0.0%
 flops    20 x    20 x   128        1123128115200       0.0%    100.0%      0.0%
 flops inhomo. stacks                           0       0.0%      0.0%      0.0%
 flops total                         2.467914E+12       0.0%    100.0%      0.0%
 flops max/rank                     24.026804E+09       0.0%    100.0%      0.0%
 matmuls inhomo. stacks                         0       0.0%      0.0%      0.0%
 matmuls total                           69400308       0.0%    100.0%      0.0%
 number of processed stacks                682001       0.0%    100.0%      0.0%
 average stack size                                     0.0     101.8       0.0
 marketing flops                     5.034373E+12
 -------------------------------------------------------------------------------
 # multiplications                             37
 max memory usage/rank               1.612616E+09
 # max total images/rank                        2
 # max 3D layers                                1
 # MPI messages exchanged                  137344
 MPI messages size (bytes):
  total size                        87.707533E+09
  min size                         276.480000E+03
  max size                           2.252096E+06
  average size                     638.597500E+03
 MPI breakdown and total messages size (bytes):
             size <=      128                   0                        0
       128 < size <=     8192                   0                        0
      8192 < size <=    32768                   0                        0
     32768 < size <=   131072                   0                        0
    131072 < size <=  4194304              137344              87707533920
   4194304 < size <= 16777216                   0                        0
  16777216 < size                               0                        0
 -------------------------------------------------------------------------------

 *** WARNING in dbcsr_mm.F:290 :: Using a non-square number of MPI ranks ***
 *** might lead to poor performance. Used ranks: 128 Suggested: 121 256  ***

 -------------------------------------------------------------------------------
 -                                                                             -
 -                      DBCSR MESSAGE PASSING PERFORMANCE                      -
 -                                                                             -
 -------------------------------------------------------------------------------
 ROUTINE             CALLS      AVE VOLUME [Bytes]
 MP_Bcast               46                     12.
 MP_Allreduce          362                     13.
 MP_Alltoall          1029                 577972.
 MP_ISend             2368                 302318.
 MP_IRecv             2368                 295921.
 -------------------------------------------------------------------------------

 -------------------------------------------------------------------------------
 -                                                                             -
 -                                DBM STATISTICS                               -
 -                                                                             -
 -------------------------------------------------------------------------------
    M  x    N  x    K                                          COUNT     PERCENT
 -------------------------------------------------------------------------------

 -------------------------------------------------------------------------------
 -                                                                             -
 -                                GRID STATISTICS                              -
 -                                                                             -
 -------------------------------------------------------------------------------
 LP    KERNEL             BACKEND                              COUNT     PERCENT
 4     collocate general  REF                               14205800      22.13%
 4     integrate general  REF                               14082749      21.94%
 3     collocate general  REF                                9899015      15.42%
 3     integrate general  REF                                9840831      15.33%
 2     collocate general  REF                                7862575      12.25%
 2     integrate general  REF                                7637930      11.90%
 5     integrate general  REF                                 405880       0.63%
 0     collocate general  REF                                 132096       0.21%
 0     integrate general  REF                                  66048       0.10%
 1     integrate general  REF                                  66048       0.10%
 -------------------------------------------------------------------------------

 MEMORY| Estimated peak process memory [MiB]                                1808

 -------------------------------------------------------------------------------
 ----                             MULTIGRID INFO                            ----
 -------------------------------------------------------------------------------
 count for grid        1:        1096383          cutoff [a.u.]          200.00
 count for grid        2:        1091817          cutoff [a.u.]           66.67
 count for grid        3:         715745          cutoff [a.u.]           22.22
 count for grid        4:         554750          cutoff [a.u.]            7.41
 total gridlevel count  :        3458695

 -------------------------------------------------------------------------------
 -                                                                             -
 -                         MESSAGE PASSING PERFORMANCE                         -
 -                                                                             -
 -------------------------------------------------------------------------------

 ROUTINE             CALLS      AVE VOLUME [Bytes]
 MP_Group                4
 MP_Bcast             2197                 307333.
 MP_Allreduce         3324                  32635.
 MP_Sync                76
 MP_Alltoall          2122               16769977.
 MP_SendRecv           508                   5862.
 MP_ISendRecv        17780                  61740.
 MP_Wait             31574
 MP_comm_split          36
 MP_ISend            13004                 256441.
 MP_IRecv            13004                 256441.
 MP_Recv               122                1694720.
 MP_Write_All            3                1797408.
 -------------------------------------------------------------------------------


 -------------------------------------------------------------------------------
 -                                                                             -
 -                           R E F E R E N C E S                               -
 -                                                                             -
 -------------------------------------------------------------------------------
 
 CP2K version 2022.1, the CP2K developers group (2022).
 CP2K is freely available from https://www.cp2k.org/ .

 Kuehne,Thomas D.; Iannuzzi,Marcella; Del Ben,Mauro;
 Rybkin,Vladimir V.; Seewald,Patrick; Stein,Frederick; Laino,Teodoro;
 Khaliullin,Rustam Z.; Schuett,Ole; Schiffmann,Florian; Golze,Dorothea;
 Wilhelm,Jan; Chulkov,Sergey; Bani-Hashemian,Mohammad Hossein;
 Weber,Valery; Borstnik,Urban; Taillefumier,Mathieu;
 Jakobovits,Alice Shoshana; Lazzaro,Alfio; Pabst,Hans; Mueller,Tiziano;
 Schade,Robert; Guidon,Manuel; Andermatt,Samuel; Holmberg,Nico;
 Schenter,Gregory K.; Hehn,Anna; Bussy,Augustin; Belleflamme,Fabian;
 Tabacchi,Gloria; Gloess,Andreas; Lass,Michael; Bethune,Iain;
 Mundy,Christopher J.; Plessl,Christian; Watkins,Matt;
 VandeVondele,Joost; Krack,Matthias; Hutter,Juerg. 
 The Journal of Chemical Physics, 152 (19), (2020). 
 CP2K: An electronic structure and molecular dynamics software package -
 Quickstep: Efficient and accurate electronic structure calculations.
 https://doi.org/10.1063/5.0007045

 Goerigk, Lars; Hansen, Andreas; Bauer, Christoph; Ehrlich, Stephan;
 Najibi, Asim; Grimme, Stefan. , 19 (48), (2017). 
 A look at the density functional theory zoo with the advanced GMTKN55 database
 for general main group thermochemistry, kinetics and noncovalent interactions.
 https://doi.org/10.1039/C7CP04913G

 Bani-Hashemian, MH; Bruck, S; Luisier, M; VandeVondele, J. 
 JOURNAL OF CHEMICAL PHYSICS, 144 (4), 044113 (2016). 
 A generalized Poisson solver for first-principles device simulations.
 https://doi.org/10.1063/1.4940796

 Schuett, Ole; Messmer, Peter; Hutter, Juerg; VandeVondele, Joost. 
 Electronic Structure Calculations on Graphics Processing Units, John
 Wiley & Sons, Ltd, 173-190 (2016). 
 GPU-Accelerated Sparse Matrix-Matrix Multiplication for
 Linear Scaling Density Functional Theory.
 https://doi.org/10.1002/9781118670712.ch8

 Heinecke, A; Henry, G; Hutchinson, M; Pabst, H. 
 Proceedings of Intl. Supercomputing Conference, 981-991 (2016). 
 LIBXSMM: Accelerating Small Matrix Multiplications
 by Runtime Code Generation.
 https://doi.org/10.1109/SC.2016.83

 Borstnik, U; VandeVondele, J; Weber, V; Hutter, J. 
 PARALLEL COMPUTING, 40 (5-6), 47-58 (2014). 
 Sparse matrix multiplication: The distributed block-compressed sparse
 row library.
 https://doi.org/10.1016/j.parco.2014.03.012

 Hutter, J; Iannuzzi, M; Schiffmann, F; VandeVondele, J. 
 WIREs Comput Mol Sci., 4 (1), 15-25 (2014). 
 CP2K: atomistic simulations of condensed matter systems.
 https://doi.org/10.1002/wcms.1159

 Marek, A; Blum, V; Johanni, R; Havu, V; Lang, B; Auckenthaler, T;
 Heinecke, A; Bungartz, H; Lederer, H. 
 Journal of Physics: Condensed Matter, 26 (21), (2014). 
 The ELPA library: scalable parallel eigenvalue solutions for
 electronic structure
 theory and computational science.
 https://doi.org/10.1088/0953-8984/26/21/213201

 Grimme, S; Ehrlich, S; Goerigk, L. 
 JOURNAL OF COMPUTATIONAL CHEMISTRY, 32, 1456 (2011). 
 Effect of the damping function in dispersion corrected density functional theory.
 https://doi.org/10.1002/jcc.21759

 Grimme, S; Antony, J; Ehrlich, S; Krieg, H. 
 JOURNAL OF CHEMICAL PHYSICS, 132 (15), 154104 (2010). 
 A consistent and accurate ab initio parametrization of density
 functional dispersion correction (DFT-D) for the 94 elements H-Pu.
 https://doi.org/10.1063/1.3382344

 VandeVondele, J; Hutter, J. 
 JOURNAL OF CHEMICAL PHYSICS, 127 (11), 114105 (2007). 
 Gaussian basis sets for accurate calculations on molecular systems in
 gas and condensed phases.
 https://doi.org/10.1063/1.2770708

 Krack, M. 
 THEORETICAL CHEMISTRY ACCOUNTS, 114 (1-3), 145-152 (2005). 
 Pseudopotentials for H to Kr optimized for gradient-corrected
 exchange-correlation functionals.
 https://doi.org/10.1007/s00214-005-0655-y

 VandeVondele, J; Krack, M; Mohamed, F; Parrinello, M; Chassaing, T;
 Hutter, J. COMPUTER PHYSICS COMMUNICATIONS, 167 (2), 103-128 (2005). 
 QUICKSTEP: Fast and accurate density functional calculations using a
 mixed Gaussian and plane waves approach.
 https://doi.org/10.1016/j.cpc.2004.12.014

 Frigo, M; Johnson, SG. 
 PROCEEDINGS OF THE IEEE, 93 (2), 216-231 (2005). 
 The design and implementation of FFTW3.
 https://doi.org/10.1109/JPROC.2004.840301

 Hartwigsen, C; Goedecker, S; Hutter, J. 
 PHYSICAL REVIEW B, 58 (7), 3641-3662 (1998). 
 Relativistic separable dual-space Gaussian pseudopotentials from H to Rn.
 https://doi.org/10.1103/PhysRevB.58.3641

 Lippert, G; Hutter, J; Parrinello, M. 
 MOLECULAR PHYSICS, 92 (3), 477-487 (1997). 
 A hybrid Gaussian and plane wave density functional scheme.
 https://doi.org/10.1080/002689797170220

 Perdew, JP; Burke, K; Ernzerhof, M. 
 PHYSICAL REVIEW LETTERS, 77 (18), 3865-3868 (1996). 
 Generalized gradient approximation made simple.
 https://doi.org/10.1103/PhysRevLett.77.3865

 Goedecker, S; Teter, M; Hutter, J. 
 PHYSICAL REVIEW B, 54 (3), 1703-1710 (1996). 
 Separable dual-space Gaussian pseudopotentials.
 https://doi.org/10.1103/PhysRevB.54.1703


 -------------------------------------------------------------------------------
 -                                                                             -
 -                                T I M I N G                                  -
 -                                                                             -
 -------------------------------------------------------------------------------
 SUBROUTINE                       CALLS  ASD         SELF TIME        TOTAL TIME
                                MAXIMUM       AVERAGE  MAXIMUM  AVERAGE  MAXIMUM
 CP2K                                 1  1.0    0.027    0.037  247.008  247.009
 qs_forces                            1  2.0    0.002    0.007  246.661  246.662
 qs_energies                          1  3.0    0.000    0.001  240.502  240.506
 scf_env_do_scf                       1  4.0    0.000    0.000  231.426  231.564
 scf_env_do_scf_inner_loop           34  5.0    0.002    0.004  231.422  231.560
 rebuild_ks_matrix                   35  6.9    0.000    0.000  125.444  125.475
 qs_ks_build_kohn_sham_matrix        35  7.9    0.006    0.006  125.444  125.475
 qs_ks_update_qs_env                 34  6.0    0.000    0.000  121.391  121.421
 pw_transfer                       1824 12.2    0.133    0.187   79.679   81.193
 fft_wrap_pw1pw2                   1824 13.2    0.017    0.023   79.546   81.006
 fft_wrap_pw1pw2_200               1614 14.4    5.384    6.386   78.552   79.927
 pw_poisson_solve                    35  8.9    0.003    0.008   68.250   68.295
 qs_scf_new_mos                      34  6.0    0.002    0.005   66.764   66.861
 fft3d_ps                          1824 15.2   22.931   25.765   63.936   66.262
 implicit_poisson_solver_mixed_      35  9.9    1.441    1.762   64.534   64.580
 eigensolver                         34  7.0    0.003    0.004   63.009   63.185
 derive_fft                         210 12.1    0.013    0.022   45.217   45.349
 cp_fm_diag_elpa                     36  8.1    0.000    0.001   44.708   44.829
 cp_fm_redistribute_end              36  9.1    5.925   44.307    5.996   44.347
 cp_fm_diag_elpa_base                36  9.0   37.771   43.351   38.135   43.733
 mp_alltoall_z22v                  1824 17.2   34.388   42.371   34.388   42.371
 apply_P_operator                   175 11.1    0.933    1.031   38.632   38.758
 qs_rho_update_rho_low               35  6.0    0.000    0.000   38.574   38.583
 calculate_rho_elec                  35  7.0    0.068    0.083   38.574   38.583
 sum_up_and_integrate                35  8.9    0.190    0.233   37.756   37.785
 integrate_v_rspace                  35  9.9    0.001    0.002   37.567   37.651
 grid_collocate_task_list            35  8.0   25.431   29.998   25.431   29.998
 grid_integrate_task_list            35 10.9   23.643   27.316   23.643   27.316
 x_to_yz                           1051 16.4    4.461    5.726   26.099   27.290
 cp_fm_triangular_multiply          102  8.0   19.779   19.984   19.779   19.984
 rs_pw_transfer                     284 10.4    0.003    0.004   16.616   19.581
 yz_to_x                            563 16.4    1.543    1.834   14.162   19.422
 qs_vxc_create                       35  8.9    0.001    0.001   17.391   17.604
 xc_vxc_pw_create                    35  9.9    0.299    0.367   17.390   17.603
 density_rs2pw                       35  8.0    0.002    0.003   12.290   15.378
 xc_pw_derive                       210 11.9    0.003    0.005   12.234   13.545
 apply_poisson_operator_fft          35 10.9    0.000    0.001   11.324   11.509
 apply_inv_laplace_operator_fft     107 11.6    0.263    0.296   10.523   10.892
 mp_waitany                       13004 12.3    6.940   10.035    6.940   10.035
 rs_pw_transfer_RS2PW_200            37  9.9    2.423    2.694    6.977    9.967
 potential_pw2rs                     35 10.9    0.010    0.011    9.856    9.931
 xc_pw_divergence                    35 10.9    0.002    0.002    8.268    9.278
 xc_rho_set_and_dset_create          35 10.9    0.174    0.203    8.496    9.002
 ps_implicit_compute_error_fft       70 10.9    0.440    0.537    7.600    8.123
 ps_implicit_compute_veps            35 10.9    0.203    0.242    7.723    7.849
 mp_alltoall_d11v                   512 10.3    5.170    7.758    5.170    7.758
 pw_scatter_p                      1156 15.4    6.511    7.554    6.511    7.554
 rs_gather_matrices                  35 10.9    0.043    0.054    4.056    6.576
 rs_pw_transfer_PW2RS_200            37 12.7    2.800    2.968    5.814    5.975
 scf_post_calculation_gpw             1  4.0    0.000    0.001    5.722    5.733
 write_available_results              1  5.0    0.000    0.000    5.722    5.733
 pw_derive                          840 13.0    5.312    5.645    5.312    5.645
 gspace_mixing                       33  6.0    0.063    0.077    5.597    5.599
 -------------------------------------------------------------------------------

 The number of warnings for this run is : 1
 
 -------------------------------------------------------------------------------
  **** **** ******  **  PROGRAM ENDED AT                 2023-12-03 07:56:19.954
 ***** ** ***  *** **   PROGRAM RAN ON                                     cu001
 **    ****   ******    PROGRAM RAN BY                                     jxzhu
 ***** **    ** ** **   PROGRAM PROCESS ID                                 65131
  **** **  *******  **  PROGRAM STOPPED IN /public/home/jxzhu/tmp_calc/75fba3f00
                                           5f5048ac0b736df82c102bdd099fa72/calc/
                                           003000.000/search_hi.000000
