 DBCSR| CPU Multiplication driver                                           XSMM
 DBCSR| Multrec recursion limit                                              512
 DBCSR| Multiplication stack size                                           1000
 DBCSR| Maximum elements for images                                    UNLIMITED
 DBCSR| Multiplicative factor virtual images                                   1
 DBCSR| Use multiplication densification                                       T
 DBCSR| Multiplication size stacks                                             3
 DBCSR| Number of 3D layers                                               SINGLE
 DBCSR| Use MPI memory allocation                                              T
 DBCSR| Use RMA algorithm                                                      F
 DBCSR| Use Communication thread                                               T
 DBCSR| Communication thread load                                             87


  **** **** ******  **  PROGRAM STARTED AT               2024-11-01 23:21:12.095
 ***** ** ***  *** **   PROGRAM STARTED ON                               c53-012
 **    ****   ******    PROGRAM STARTED BY                                 jxzhu
 ***** **    ** ** **   PROGRAM PROCESS ID                                264131
  **** **  *******  **  PROGRAM STARTED IN /data/jxzhu/nnp/dp_workdir/d1f764b96e
                                           9a01b62c3e35b0c4f5198f3ba3ed59/calc.0
                                           00/task.003.000001

 CP2K| version string:                                          CP2K version 7.1
 CP2K| source code revision number:                                  git:e635599
 CP2K| cp2kflags: libint fftw3 libxc elpa parallel mpi3 scalapack xsmm spglib   
 CP2K| is freely available from                            https://www.cp2k.org/
 CP2K| Program compiled at                           Mon Mar 8 20:53:19 CST 2021
 CP2K| Program compiled on                                                 mgt01
 CP2K| Program compiled for                                                local
 CP2K| Data directory path                                    /data/jxzhu/basis/
 CP2K| Input file name                                                 input.inp

 GLOBAL| Force Environment number                                              1
 GLOBAL| Basis set file name                                        BASIS_MOLOPT
 GLOBAL| Potential file name                                      GTH_POTENTIALS
 GLOBAL| MM Potential file name                                     MM_POTENTIAL
 GLOBAL| Coordinate file name                                          coord.xyz
 GLOBAL| Method name                                                        CP2K
 GLOBAL| Project name                                                       cp2k
 GLOBAL| Preferred FFT library                                             FFTW3
 GLOBAL| Preferred diagonalization lib.                                     ELPA
 GLOBAL| Run type                                                   ENERGY_FORCE
 GLOBAL| All-to-all communication in single precision                          F
 GLOBAL| FFTs using library dependent lengths                                  F
 GLOBAL| Global print level                                               MEDIUM
 GLOBAL| MPI I/O enabled                                                       T
 GLOBAL| Total number of message passing processes                            32
 GLOBAL| Number of threads for this process                                    1
 GLOBAL| This output is from process                                           0
 GLOBAL| CPU model name                Intel(R) Xeon(R) Gold 6226R CPU @ 2.90GHz
 GLOBAL| CPUID                                                              1003
 GLOBAL| Compiled for CPUID                                                 1002
 HINT in environment.F:814 The compiler target flags (x86_avx2) used to build
   this binary cannot exploit all extensions of this CPU model (x86_avx512).
   Consider compiler target flags as part of FCFLAGS and CFLAGS (ARCH file).

 MEMORY| system memory details [Kb]
 MEMORY|                        rank 0           min           max       average
 MEMORY| MemTotal            196472820     196472820     196472820     196472820
 MEMORY| MemFree             182936108     182936108     182936108     182936108
 MEMORY| Buffers                  2196          2196          2196          2196
 MEMORY| Cached                 797448        797448        797448        797448
 MEMORY| Slab                   433964        433964        433964        433964
 MEMORY| SReclaimable           136296        136296        136296        136296
 MEMORY| MemLikelyFree       183872048     183872048     183872048     183872048


 *** Fundamental physical constants (SI units) ***

 *** Literature: B. J. Mohr and B. N. Taylor,
 ***             CODATA recommended values of the fundamental physical
 ***             constants: 2006, Web Version 5.1
 ***             http://physics.nist.gov/constants

 Speed of light in vacuum [m/s]                             2.99792458000000E+08
 Magnetic constant or permeability of vacuum [N/A**2]       1.25663706143592E-06
 Electric constant or permittivity of vacuum [F/m]          8.85418781762039E-12
 Planck constant (h) [J*s]                                  6.62606896000000E-34
 Planck constant (h-bar) [J*s]                              1.05457162825177E-34
 Elementary charge [C]                                      1.60217648700000E-19
 Electron mass [kg]                                         9.10938215000000E-31
 Electron g factor [ ]                                     -2.00231930436220E+00
 Proton mass [kg]                                           1.67262163700000E-27
 Fine-structure constant                                    7.29735253760000E-03
 Rydberg constant [1/m]                                     1.09737315685270E+07
 Avogadro constant [1/mol]                                  6.02214179000000E+23
 Boltzmann constant [J/K]                                   1.38065040000000E-23
 Atomic mass unit [kg]                                      1.66053878200000E-27
 Bohr radius [m]                                            5.29177208590000E-11

 *** Conversion factors ***

 [u] -> [a.u.]                                              1.82288848426455E+03
 [Angstrom] -> [Bohr] = [a.u.]                              1.88972613288564E+00
 [a.u.] = [Bohr] -> [Angstrom]                              5.29177208590000E-01
 [a.u.] -> [s]                                              2.41888432650478E-17
 [a.u.] -> [fs]                                             2.41888432650478E-02
 [a.u.] -> [J]                                              4.35974393937059E-18
 [a.u.] -> [N]                                              8.23872205491840E-08
 [a.u.] -> [K]                                              3.15774647902944E+05
 [a.u.] -> [kJ/mol]                                         2.62549961709828E+03
 [a.u.] -> [kcal/mol]                                       6.27509468713739E+02
 [a.u.] -> [Pa]                                             2.94210107994716E+13
 [a.u.] -> [bar]                                            2.94210107994716E+08
 [a.u.] -> [atm]                                            2.90362800883016E+08
 [a.u.] -> [eV]                                             2.72113838565563E+01
 [a.u.] -> [Hz]                                             6.57968392072181E+15
 [a.u.] -> [1/cm] (wave numbers)                            2.19474631370540E+05
 [a.u./Bohr**2] -> [1/cm]                                   5.14048714338585E+03
 

 CELL_TOP| Volume [angstrom^3]:                                         4542.849
 CELL_TOP| Vector a [angstrom    11.246     0.000     0.000    |a| =      11.246
 CELL_TOP| Vector b [angstrom     0.000     9.739     0.000    |b| =       9.739
 CELL_TOP| Vector c [angstrom     0.000     0.000    41.478    |c| =      41.478
 CELL_TOP| Angle (b,c), alpha [degree]:                                   90.000
 CELL_TOP| Angle (a,c), beta  [degree]:                                   90.000
 CELL_TOP| Angle (a,b), gamma [degree]:                                   90.000
 CELL_TOP| Numerically orthorhombic:                                         YES

 GENERATE|  Preliminary Number of Bonds generated:                             0
 GENERATE|  Achieved consistency in connectivity generation.

 CELL| Volume [angstrom^3]:                                             4542.849
 CELL| Vector a [angstrom]:      11.246     0.000     0.000    |a| =      11.246
 CELL| Vector b [angstrom]:       0.000     9.739     0.000    |b| =       9.739
 CELL| Vector c [angstrom]:       0.000     0.000    41.478    |c| =      41.478
 CELL| Angle (b,c), alpha [degree]:                                       90.000
 CELL| Angle (a,c), beta  [degree]:                                       90.000
 CELL| Angle (a,b), gamma [degree]:                                       90.000
 CELL| Numerically orthorhombic:                                             YES

 CELL_REF| Volume [angstrom^3]:                                         4542.849
 CELL_REF| Vector a [angstrom    11.246     0.000     0.000    |a| =      11.246
 CELL_REF| Vector b [angstrom     0.000     9.739     0.000    |b| =       9.739
 CELL_REF| Vector c [angstrom     0.000     0.000    41.478    |c| =      41.478
 CELL_REF| Angle (b,c), alpha [degree]:                                   90.000
 CELL_REF| Angle (a,c), beta  [degree]:                                   90.000
 CELL_REF| Angle (a,b), gamma [degree]:                                   90.000
 CELL_REF| Numerically orthorhombic:                                         YES

 *******************************************************************************
 *******************************************************************************
 **                                                                           **
 **     #####                         ##              ##                      **
 **    ##   ##            ##          ##              ##                      **
 **   ##     ##                       ##            ######                    **
 **   ##     ##  ##   ##  ##   #####  ##  ##   ####   ##    #####    #####    **
 **   ##     ##  ##   ##  ##  ##      ## ##   ##      ##   ##   ##  ##   ##   **
 **   ##  ## ##  ##   ##  ##  ##      ####     ###    ##   ######   ######    **
 **    ##  ###   ##   ##  ##  ##      ## ##      ##   ##   ##       ##        **
 **     #######   #####   ##   #####  ##  ##  ####    ##    #####   ##        **
 **           ##                                                    ##        **
 **                                                                           **
 **                                                ... make the atoms dance   **
 **                                                                           **
 **            Copyright (C) by CP2K developers group (2000 - 2019)           **
 **                                                                           **
 *******************************************************************************

 DFT| Spin restricted Kohn-Sham (RKS) calculation                            RKS
 DFT| Multiplicity                                                             1
 DFT| Number of spin states                                                    1
 DFT| Charge                                                                   0
 DFT| Self-interaction correction (SIC)                                       NO
 DFT| Cutoffs: density                                              1.000000E-10
 DFT|          gradient                                             1.000000E-10
 DFT|          tau                                                  1.000000E-10
 DFT|          cutoff_smoothing_range                               0.000000E+00
 DFT| XC density smoothing                                                  NONE
 DFT| XC derivatives                                                          PW
 FUNCTIONAL| ROUTINE=NEW
 FUNCTIONAL| PBE:
 FUNCTIONAL| J.P.Perdew, K.Burke, M.Ernzerhof, Phys. Rev. Letter, vol. 77, n 18,
 FUNCTIONAL|  pp. 3865-3868, (1996){spin unpolarized}                           
 vdW POTENTIAL|                                                   Pair Potential
 vdW POTENTIAL|          DFT-D3 (Version 3.1)
 vdW POTENTIAL|          Potential Form: S. Grimme et al, JCP 132: 154104 (2010)
 vdW POTENTIAL|          Zero Damping
 vdW POTENTIAL|          Cutoff Radius [Bohr]:                             20.00
 vdW POTENTIAL|          s6 Scaling Factor:                               1.0000
 vdW POTENTIAL|          sr6 Scaling Factor:                              1.2170
 vdW POTENTIAL|          s8 Scaling Factor:                               0.7220
 vdW POTENTIAL|          Cutoff for CN calculation:                   0.1000E-05

 QS| Method:                                                                 GPW
 QS| Density plane wave grid type                        NON-SPHERICAL FULLSPACE
 QS| Number of grid levels:                                                    4
 QS| Density cutoff [a.u.]:                                                200.0
 QS| Multi grid cutoff [a.u.]: 1) grid level                               200.0
 QS|                           2) grid level                                66.7
 QS|                           3) grid level                                22.2
 QS|                           4) grid level                                 7.4
 QS| Grid level progression factor:                                          3.0
 QS| Relative density cutoff [a.u.]:                                        20.0
 QS| Consistent realspace mapping and integration 
 QS| Interaction thresholds: eps_pgf_orb:                                3.2E-07
 QS|                         eps_filter_matrix:                          0.0E+00
 QS|                         eps_core_charge:                            1.0E-15
 QS|                         eps_rho_gspace:                             1.0E-13
 QS|                         eps_rho_rspace:                             1.0E-13
 QS|                         eps_gvg_rspace:                             3.2E-07
 QS|                         eps_ppl:                                    1.0E-02
 QS|                         eps_ppnl:                                   3.2E-09


 ATOMIC KIND INFORMATION

  1. Atomic kind: Pt                                    Number of atoms:      96

     Orbital Basis Set                      DZVP-A5-Q10-323-MOL-T1-DERIVED_SET-1

       Number of orbital shell sets:                                           1
       Number of orbital shells:                                               6
       Number of primitive Cartesian functions:                                5
       Number of Cartesian basis functions:                                   23
       Number of spherical basis functions:                                   20
       Norm type:                                                              2

       Normalised Cartesian orbitals:

                        Set   Shell   Orbital            Exponent    Coefficient

                          1       1    2s                2.521825       0.177473
                                                         1.453920      -0.063399
                                                         0.614053      -0.407089
                                                         0.232656       0.262254
                                                         0.074788       0.047371

                          1       2    3s                2.521825      -0.049056
                                                         1.453920       0.044904
                                                         0.614053      -0.009756
                                                         0.232656      -0.144709
                                                         0.074788       0.144085

                          1       3    3px               2.521825      -0.317572
                                                         1.453920       0.534826
                                                         0.614053      -0.489458
                                                         0.232656       0.245631
                                                         0.074788       0.018221
                          1       3    3py               2.521825      -0.317572
                                                         1.453920       0.534826
                                                         0.614053      -0.489458
                                                         0.232656       0.245631
                                                         0.074788       0.018221
                          1       3    3pz               2.521825      -0.317572
                                                         1.453920       0.534826
                                                         0.614053      -0.489458
                                                         0.232656       0.245631
                                                         0.074788       0.018221

                          1       4    4dx2              2.521825       3.008522
                                                         1.453920      -1.224251
                                                         0.614053       0.225691
                                                         0.232656       0.125144
                                                         0.074788      -0.015348
                          1       4    4dxy              2.521825       5.210912
                                                         1.453920      -2.120465
                                                         0.614053       0.390909
                                                         0.232656       0.216756
                                                         0.074788      -0.026584
                          1       4    4dxz              2.521825       5.210912
                                                         1.453920      -2.120465
                                                         0.614053       0.390909
                                                         0.232656       0.216756
                                                         0.074788      -0.026584
                          1       4    4dy2              2.521825       3.008522
                                                         1.453920      -1.224251
                                                         0.614053       0.225691
                                                         0.232656       0.125144
                                                         0.074788      -0.015348
                          1       4    4dyz              2.521825       5.210912
                                                         1.453920      -2.120465
                                                         0.614053       0.390909
                                                         0.232656       0.216756
                                                         0.074788      -0.026584
                          1       4    4dz2              2.521825       3.008522
                                                         1.453920      -1.224251
                                                         0.614053       0.225691
                                                         0.232656       0.125144
                                                         0.074788      -0.015348

                          1       5    5dx2              2.521825       0.698026
                                                         1.453920      -1.511486
                                                         0.614053      -0.335394
                                                         0.232656      -0.025564
                                                         0.074788      -0.002699
                          1       5    5dxy              2.521825       1.209017
                                                         1.453920      -2.617970
                                                         0.614053      -0.580920
                                                         0.232656      -0.044277
                                                         0.074788      -0.004674
                          1       5    5dxz              2.521825       1.209017
                                                         1.453920      -2.617970
                                                         0.614053      -0.580920
                                                         0.232656      -0.044277
                                                         0.074788      -0.004674
                          1       5    5dy2              2.521825       0.698026
                                                         1.453920      -1.511486
                                                         0.614053      -0.335394
                                                         0.232656      -0.025564
                                                         0.074788      -0.002699
                          1       5    5dyz              2.521825       1.209017
                                                         1.453920      -2.617970
                                                         0.614053      -0.580920
                                                         0.232656      -0.044277
                                                         0.074788      -0.004674
                          1       5    5dz2              2.521825       0.698026
                                                         1.453920      -1.511486
                                                         0.614053      -0.335394
                                                         0.232656      -0.025564
                                                         0.074788      -0.002699

                          1       6    6dx2              2.521825       0.831079
                                                         1.453920      -0.709226
                                                         0.614053      -0.137351
                                                         0.232656       0.068642
                                                         0.074788       0.011745
                          1       6    6dxy              2.521825       1.439472
                                                         1.453920      -1.228415
                                                         0.614053      -0.237899
                                                         0.232656       0.118891
                                                         0.074788       0.020343
                          1       6    6dxz              2.521825       1.439472
                                                         1.453920      -1.228415
                                                         0.614053      -0.237899
                                                         0.232656       0.118891
                                                         0.074788       0.020343
                          1       6    6dy2              2.521825       0.831079
                                                         1.453920      -0.709226
                                                         0.614053      -0.137351
                                                         0.232656       0.068642
                                                         0.074788       0.011745
                          1       6    6dyz              2.521825       1.439472
                                                         1.453920      -1.228415
                                                         0.614053      -0.237899
                                                         0.232656       0.118891
                                                         0.074788       0.020343
                          1       6    6dz2              2.521825       0.831079
                                                         1.453920      -0.709226
                                                         0.614053      -0.137351
                                                         0.232656       0.068642
                                                         0.074788       0.011745

     GTH Potential information for                                   GTH-PBE-q10

       Description:                       Goedecker-Teter-Hutter pseudopotential
                                           Goedecker et al., PRB 54, 1703 (1996)
                                          Hartwigsen et al., PRB 58, 3641 (1998)
                                                      Krack, TCA 114, 145 (2005)

       Gaussian exponent of the core charge distribution:               1.317676
       Electronic configuration (s p d ...):                           1   0   9

       Parameters of the local part of the GTH pseudopotential:

                          rloc        C1          C2          C3          C4
                        0.616000   11.313635

       Parameters of the non-local part of the GTH pseudopotential:

                   l      r(l)      h(i,j,l)

                   0    0.550904    4.733491   -1.784594
                                   -1.784594    2.303901
                   1    0.674138    2.534798   -1.778066
                                   -1.778066    2.103836
                   2    0.457392   -7.264011    2.558665
                                    2.558665   -2.901253

  2. Atomic kind: O                                     Number of atoms:       1

     Orbital Basis Set                                        DZVP-MOLOPT-SR-GTH

       Number of orbital shell sets:                                           1
       Number of orbital shells:                                               5
       Number of primitive Cartesian functions:                                5
       Number of Cartesian basis functions:                                   14
       Number of spherical basis functions:                                   13
       Norm type:                                                              2

       Normalised Cartesian orbitals:

                        Set   Shell   Orbital            Exponent    Coefficient

                          1       1    2s               10.389228       0.396646
                                                         3.849621       0.208811
                                                         1.388401      -0.301641
                                                         0.496955      -0.274061
                                                         0.162492      -0.033677

                          1       2    3s               10.389228       0.303673
                                                         3.849621       0.240943
                                                         1.388401      -0.313066
                                                         0.496955      -0.043055
                                                         0.162492       0.213991

                          1       3    3px              10.389228      -1.530415
                                                         3.849621      -1.371928
                                                         1.388401      -0.761951
                                                         0.496955      -0.253695
                                                         0.162492      -0.035541
                          1       3    3py              10.389228      -1.530415
                                                         3.849621      -1.371928
                                                         1.388401      -0.761951
                                                         0.496955      -0.253695
                                                         0.162492      -0.035541
                          1       3    3pz              10.389228      -1.530415
                                                         3.849621      -1.371928
                                                         1.388401      -0.761951
                                                         0.496955      -0.253695
                                                         0.162492      -0.035541

                          1       4    4px              10.389228      -0.565392
                                                         3.849621      -0.038231
                                                         1.388401      -0.382373
                                                         0.496955       0.179070
                                                         0.162492       0.122714
                          1       4    4py              10.389228      -0.565392
                                                         3.849621      -0.038231
                                                         1.388401      -0.382373
                                                         0.496955       0.179070
                                                         0.162492       0.122714
                          1       4    4pz              10.389228      -0.565392
                                                         3.849621      -0.038231
                                                         1.388401      -0.382373
                                                         0.496955       0.179070
                                                         0.162492       0.122714

                          1       5    4dx2             10.389228       1.867377
                                                         3.849621       0.670994
                                                         1.388401       1.353441
                                                         0.496955       0.273538
                                                         0.162492       0.006620
                          1       5    4dxy             10.389228       3.234392
                                                         3.849621       1.162195
                                                         1.388401       2.344229
                                                         0.496955       0.473781
                                                         0.162492       0.011466
                          1       5    4dxz             10.389228       3.234392
                                                         3.849621       1.162195
                                                         1.388401       2.344229
                                                         0.496955       0.473781
                                                         0.162492       0.011466
                          1       5    4dy2             10.389228       1.867377
                                                         3.849621       0.670994
                                                         1.388401       1.353441
                                                         0.496955       0.273538
                                                         0.162492       0.006620
                          1       5    4dyz             10.389228       3.234392
                                                         3.849621       1.162195
                                                         1.388401       2.344229
                                                         0.496955       0.473781
                                                         0.162492       0.011466
                          1       5    4dz2             10.389228       1.867377
                                                         3.849621       0.670994
                                                         1.388401       1.353441
                                                         0.496955       0.273538
                                                         0.162492       0.006620

     GTH Potential information for                                    GTH-PBE-q6

       Description:                       Goedecker-Teter-Hutter pseudopotential
                                           Goedecker et al., PRB 54, 1703 (1996)
                                          Hartwigsen et al., PRB 58, 3641 (1998)
                                                      Krack, TCA 114, 145 (2005)

       Gaussian exponent of the core charge distribution:               8.360253
       Electronic configuration (s p d ...):                               2   4

       Parameters of the local part of the GTH pseudopotential:

                          rloc        C1          C2          C3          C4
                        0.244554  -16.667215    2.487311

       Parameters of the non-local part of the GTH pseudopotential:

                   l      r(l)      h(i,j,l)

                   0    0.220956   18.337458
                   1    0.211332

  3. Atomic kind: H                                     Number of atoms:       2

     Orbital Basis Set                                        DZVP-MOLOPT-SR-GTH

       Number of orbital shell sets:                                           1
       Number of orbital shells:                                               3
       Number of primitive Cartesian functions:                                5
       Number of Cartesian basis functions:                                    5
       Number of spherical basis functions:                                    5
       Norm type:                                                              2

       Normalised Cartesian orbitals:

                        Set   Shell   Orbital            Exponent    Coefficient

                          1       1    2s               10.068468      -0.133023
                                                         2.680223      -0.177618
                                                         0.791502      -0.258419
                                                         0.239116      -0.107525
                                                         0.082193      -0.014019

                          1       2    3s               10.068468       0.344673
                                                         2.680223       1.819821
                                                         0.791502      -0.999069
                                                         0.239116       0.017430
                                                         0.082193       0.082660

                          1       3    3px              10.068468       0.155326
                                                         2.680223       0.367157
                                                         0.791502       0.311480
                                                         0.239116       0.080105
                                                         0.082193       0.033440
                          1       3    3py              10.068468       0.155326
                                                         2.680223       0.367157
                                                         0.791502       0.311480
                                                         0.239116       0.080105
                                                         0.082193       0.033440
                          1       3    3pz              10.068468       0.155326
                                                         2.680223       0.367157
                                                         0.791502       0.311480
                                                         0.239116       0.080105
                                                         0.082193       0.033440

     GTH Potential information for                                    GTH-PBE-q1

       Description:                       Goedecker-Teter-Hutter pseudopotential
                                           Goedecker et al., PRB 54, 1703 (1996)
                                          Hartwigsen et al., PRB 58, 3641 (1998)
                                                      Krack, TCA 114, 145 (2005)

       Gaussian exponent of the core charge distribution:              12.500000
       Electronic configuration (s p d ...):                                   1

       Parameters of the local part of the GTH pseudopotential:

                          rloc        C1          C2          C3          C4
                        0.200000   -4.178900    0.724463


 MOLECULE KIND INFORMATION


 All atoms are their own molecule, skipping detailed information


 TOTAL NUMBERS AND MAXIMUM NUMBERS

  Total number of            - Atomic kinds:                                   3
                             - Atoms:                                         99
                             - Shell sets:                                    99
                             - Shells:                                       587
                             - Primitive Cartesian functions:                495
                             - Cartesian basis functions:                   2232
                             - Spherical basis functions:                   1943

  Maximum angular momentum of- Orbital basis functions:                        2
                             - Local part of the GTH pseudopotential:          2
                             - Non-local part of the GTH pseudopotential:      4


 MODULE QUICKSTEP:  ATOMIC COORDINATES IN angstrom

  Atom  Kind  Element       X           Y           Z          Z(eff)       Mass

       1     1 Pt  78    1.405728    0.811598   15.000000     10.00     195.0840
       2     1 Pt  78    4.217185    0.811598   15.000000     10.00     195.0840
       3     1 Pt  78    7.028641    0.811598   15.000000     10.00     195.0840
       4     1 Pt  78    9.840098    0.811598   15.000000     10.00     195.0840
       5     1 Pt  78    0.000000    3.246390   15.000000     10.00     195.0840
       6     1 Pt  78    2.811457    3.246390   15.000000     10.00     195.0840
       7     1 Pt  78    5.622913    3.246390   15.000000     10.00     195.0840
       8     1 Pt  78    8.434370    3.246390   15.000000     10.00     195.0840
       9     1 Pt  78    1.405728    5.681183   15.000000     10.00     195.0840
      10     1 Pt  78    4.217185    5.681183   15.000000     10.00     195.0840
      11     1 Pt  78    7.028641    5.681183   15.000000     10.00     195.0840
      12     1 Pt  78    9.840098    5.681183   15.000000     10.00     195.0840
      13     1 Pt  78    0.000000    8.115976   15.000000     10.00     195.0840
      14     1 Pt  78    2.811457    8.115976   15.000000     10.00     195.0840
      15     1 Pt  78    5.622913    8.115976   15.000000     10.00     195.0840
      16     1 Pt  78    8.434370    8.115976   15.000000     10.00     195.0840
      17     1 Pt  78    0.000000    1.623195   17.295545     10.00     195.0840
      18     1 Pt  78    2.811457    1.623195   17.295545     10.00     195.0840
      19     1 Pt  78    5.622913    1.623195   17.295545     10.00     195.0840
      20     1 Pt  78    8.434370    1.623195   17.295545     10.00     195.0840
      21     1 Pt  78    1.405728    4.057988   17.295545     10.00     195.0840
      22     1 Pt  78    4.217185    4.057988   17.295545     10.00     195.0840
      23     1 Pt  78    7.028641    4.057988   17.295545     10.00     195.0840
      24     1 Pt  78    9.840098    4.057988   17.295545     10.00     195.0840
      25     1 Pt  78    0.000000    6.492781   17.295545     10.00     195.0840
      26     1 Pt  78    2.811457    6.492781   17.295545     10.00     195.0840
      27     1 Pt  78    5.622913    6.492781   17.295545     10.00     195.0840
      28     1 Pt  78    8.434370    6.492781   17.295545     10.00     195.0840
      29     1 Pt  78    1.405728    8.927574   17.295545     10.00     195.0840
      30     1 Pt  78    4.217185    8.927574   17.295545     10.00     195.0840
      31     1 Pt  78    7.028641    8.927574   17.295545     10.00     195.0840
      32     1 Pt  78    9.840098    8.927574   17.295545     10.00     195.0840
      33     1 Pt  78    0.000000    0.000000   19.591089     10.00     195.0840
      34     1 Pt  78    2.811457    0.000000   19.591089     10.00     195.0840
      35     1 Pt  78    5.622913    0.000000   19.591089     10.00     195.0840
      36     1 Pt  78    8.434370    0.000000   19.591089     10.00     195.0840
      37     1 Pt  78    1.405728    2.434793   19.591089     10.00     195.0840
      38     1 Pt  78    4.217185    2.434793   19.591089     10.00     195.0840
      39     1 Pt  78    7.028641    2.434793   19.591089     10.00     195.0840
      40     1 Pt  78    9.840098    2.434793   19.591089     10.00     195.0840
      41     1 Pt  78    0.000000    4.869586   19.591089     10.00     195.0840
      42     1 Pt  78    2.811457    4.869586   19.591089     10.00     195.0840
      43     1 Pt  78    5.622913    4.869586   19.591089     10.00     195.0840
      44     1 Pt  78    8.434370    4.869586   19.591089     10.00     195.0840
      45     1 Pt  78    1.405728    7.304378   19.591089     10.00     195.0840
      46     1 Pt  78    4.217185    7.304378   19.591089     10.00     195.0840
      47     1 Pt  78    7.028641    7.304378   19.591089     10.00     195.0840
      48     1 Pt  78    9.840098    7.304378   19.591089     10.00     195.0840
      49     1 Pt  78    1.405728    0.811598   21.886634     10.00     195.0840
      50     1 Pt  78    4.217185    0.811598   21.886634     10.00     195.0840
      51     1 Pt  78    7.028641    0.811598   21.886634     10.00     195.0840
      52     1 Pt  78    9.840098    0.811598   21.886634     10.00     195.0840
      53     1 Pt  78    0.000000    3.246390   21.886634     10.00     195.0840
      54     1 Pt  78    2.811457    3.246390   21.886634     10.00     195.0840
      55     1 Pt  78    5.622913    3.246390   21.886634     10.00     195.0840
      56     1 Pt  78    8.434370    3.246390   21.886634     10.00     195.0840
      57     1 Pt  78    1.405728    5.681183   21.886634     10.00     195.0840
      58     1 Pt  78    4.217185    5.681183   21.886634     10.00     195.0840
      59     1 Pt  78    7.028641    5.681183   21.886634     10.00     195.0840
      60     1 Pt  78    9.840098    5.681183   21.886634     10.00     195.0840
      61     1 Pt  78    0.000000    8.115976   21.886634     10.00     195.0840
      62     1 Pt  78    2.811457    8.115976   21.886634     10.00     195.0840
      63     1 Pt  78    5.622913    8.115976   21.886634     10.00     195.0840
      64     1 Pt  78    8.434370    8.115976   21.886634     10.00     195.0840
      65     1 Pt  78    0.000000    1.623195   24.182179     10.00     195.0840
      66     1 Pt  78    2.811457    1.623195   24.182179     10.00     195.0840
      67     1 Pt  78    5.622913    1.623195   24.182179     10.00     195.0840
      68     1 Pt  78    8.434370    1.623195   24.182179     10.00     195.0840
      69     1 Pt  78    1.405728    4.057988   24.182179     10.00     195.0840
      70     1 Pt  78    4.217185    4.057988   24.182179     10.00     195.0840
      71     1 Pt  78    7.028641    4.057988   24.182179     10.00     195.0840
      72     1 Pt  78    9.840098    4.057988   24.182179     10.00     195.0840
      73     1 Pt  78    0.000000    6.492781   24.182179     10.00     195.0840
      74     1 Pt  78    2.811457    6.492781   24.182179     10.00     195.0840
      75     1 Pt  78    5.622913    6.492781   24.182179     10.00     195.0840
      76     1 Pt  78    8.434370    6.492781   24.182179     10.00     195.0840
      77     1 Pt  78    1.405728    8.927574   24.182179     10.00     195.0840
      78     1 Pt  78    4.217185    8.927574   24.182179     10.00     195.0840
      79     1 Pt  78    7.028641    8.927574   24.182179     10.00     195.0840
      80     1 Pt  78    9.840098    8.927574   24.182179     10.00     195.0840
      81     1 Pt  78    0.000000    0.000000   26.477723     10.00     195.0840
      82     1 Pt  78    2.811457    0.000000   26.477723     10.00     195.0840
      83     1 Pt  78    5.622913    0.000000   26.477723     10.00     195.0840
      84     1 Pt  78    8.434370    0.000000   26.477723     10.00     195.0840
      85     1 Pt  78    1.405728    2.434793   26.477723     10.00     195.0840
      86     1 Pt  78    4.217185    2.434793   26.477723     10.00     195.0840
      87     1 Pt  78    7.028641    2.434793   26.477723     10.00     195.0840
      88     1 Pt  78    9.840098    2.434793   26.477723     10.00     195.0840
      89     1 Pt  78    0.000000    4.869586   26.477723     10.00     195.0840
      90     1 Pt  78    2.811457    4.869586   26.477723     10.00     195.0840
      91     1 Pt  78    5.622913    4.869586   26.477723     10.00     195.0840
      92     1 Pt  78    8.434370    4.869586   26.477723     10.00     195.0840
      93     1 Pt  78    1.405728    7.304378   26.477723     10.00     195.0840
      94     1 Pt  78    4.217185    7.304378   26.477723     10.00     195.0840
      95     1 Pt  78    7.028641    7.304378   26.477723     10.00     195.0840
      96     1 Pt  78    9.840098    7.304378   26.477723     10.00     195.0840
      97     2 O    8    5.622913    4.869586   30.977723      6.00      15.9994
      98     3 H    1    5.062566    5.632825   31.181673      1.00       1.0079
      99     3 H    1    5.062566    4.106347   31.181673      1.00       1.0079




 SCF PARAMETERS         Density guess:                                   RESTART
                        --------------------------------------------------------
                        max_scf:                                             500
                        max_scf_history:                                       0
                        max_diis:                                              4
                        --------------------------------------------------------
                        eps_scf:                                        1.00E-06
                        eps_scf_history:                                0.00E+00
                        eps_diis:                                       1.00E-01
                        eps_eigval:                                     1.00E-05
                        --------------------------------------------------------
                        level_shift [a.u.]:                                 0.00
                        added MOs                                       500    0
                        --------------------------------------------------------
                        Mixing method:                            BROYDEN_MIXING
                                                charge density mixing in g-space
                        --------------------------------------------------------
                        Smear method:                                FERMI_DIRAC
                        Electronic temperature [K]:                        300.0
                        Electronic temperature [a.u.]:                  9.50E-04
                        Accuracy threshold:                             1.00E-10
                        --------------------------------------------------------
                        No outer SCF

 PW_GRID| Information for grid number                                          1
 PW_GRID| Grid distributed over                                    32 processors
 PW_GRID| Real space group dimensions                                    32    1
 PW_GRID| the grid is blocked:                                                NO
 PW_GRID| Cutoff [a.u.]                                                    200.0
 PW_GRID| spherical cutoff:                                                   NO
 PW_GRID|   Bounds   1            -67      67                Points:         135
 PW_GRID|   Bounds   2            -60      59                Points:         120
 PW_GRID|   Bounds   3           -250     249                Points:         500
 PW_GRID| Volume element (a.u.^3)  0.3785E-02     Volume (a.u.^3)     30656.6653
 PW_GRID| Grid span                                                    FULLSPACE
 PW_GRID|   Distribution                         Average         Max         Min
 PW_GRID|   G-Vectors                           253125.0      253125      253125
 PW_GRID|   G-Rays                                1875.0        1875        1875
 PW_GRID|   Real Space Points                   253125.0      300000      240000

 PW_GRID| Information for grid number                                          2
 PW_GRID| Number of the reference grid                                         1
 PW_GRID| Grid distributed over                                    32 processors
 PW_GRID| Real space group dimensions                                    32    1
 PW_GRID| the grid is blocked:                                                NO
 PW_GRID| Cutoff [a.u.]                                                     66.7
 PW_GRID| spherical cutoff:                                                   NO
 PW_GRID|   Bounds   1            -40      39                Points:          80
 PW_GRID|   Bounds   2            -36      35                Points:          72
 PW_GRID|   Bounds   3           -150     149                Points:         300
 PW_GRID| Volume element (a.u.^3)  0.1774E-01     Volume (a.u.^3)     30656.6653
 PW_GRID| Grid span                                                    FULLSPACE
 PW_GRID|   Distribution                         Average         Max         Min
 PW_GRID|   G-Vectors                            54000.0       54640       53520
 PW_GRID|   G-Rays                                 675.0         683         669
 PW_GRID|   Real Space Points                    54000.0       64800       43200

 PW_GRID| Information for grid number                                          3
 PW_GRID| Number of the reference grid                                         1
 PW_GRID| Grid distributed over                                    32 processors
 PW_GRID| Real space group dimensions                                    32    1
 PW_GRID| the grid is blocked:                                                NO
 PW_GRID| Cutoff [a.u.]                                                     22.2
 PW_GRID| spherical cutoff:                                                   NO
 PW_GRID|   Bounds   1            -22      22                Points:          45
 PW_GRID|   Bounds   2            -20      19                Points:          40
 PW_GRID|   Bounds   3            -90      89                Points:         180
 PW_GRID| Volume element (a.u.^3)  0.9462E-01     Volume (a.u.^3)     30656.6653
 PW_GRID| Grid span                                                    FULLSPACE
 PW_GRID|   Distribution                         Average         Max         Min
 PW_GRID|   G-Vectors                            10125.0       10260       10035
 PW_GRID|   G-Rays                                 225.0         228         223
 PW_GRID|   Real Space Points                    10125.0       14400        7200

 PW_GRID| Information for grid number                                          4
 PW_GRID| Number of the reference grid                                         1
 PW_GRID| Grid distributed over                                    32 processors
 PW_GRID| Real space group dimensions                                     4    8
 PW_GRID| the grid is blocked:                                                NO
 PW_GRID| Cutoff [a.u.]                                                      7.4
 PW_GRID| spherical cutoff:                                                   NO
 PW_GRID|   Bounds   1            -13      13                Points:          27
 PW_GRID|   Bounds   2            -12      11                Points:          24
 PW_GRID|   Bounds   3            -50      49                Points:         100
 PW_GRID| Volume element (a.u.^3)  0.4731         Volume (a.u.^3)     30656.6653
 PW_GRID| Grid span                                                    FULLSPACE
 PW_GRID|   Distribution                         Average         Max         Min
 PW_GRID|   G-Vectors                             2025.0        2133        1890
 PW_GRID|   G-Rays                                  75.0          79          70
 PW_GRID|   Real Space Points                     2025.0        2100        1800

 POISSON| Solver                                          IMPLICIT (GENERALIZED)
 POISSON| Boundary Condition                                PERIODIC & DIRICHLET
 POISSON| Maximum number of iterations                                        30
 POISSON| Convergence threshold                                         1.00E-08
 POISSON| Dielectric Constant                                              80.00
 POISSON| Relaxation parameter                                          1.00E+00

 RS_GRID| Information for grid number                                          1
 RS_GRID|   Bounds   1            -67      67                Points:         135
 RS_GRID|   Bounds   2            -60      59                Points:         120
 RS_GRID|   Bounds   3           -250     249                Points:         500
 RS_GRID| Real space distribution over                                 32 groups
 RS_GRID| Real space distribution along direction                              3
 RS_GRID| Border size                                                         34
 RS_GRID|   Distribution                         Average         Max         Min
 RS_GRID|   Planes                                  83.6          84          83

 RS_GRID| Information for grid number                                          2
 RS_GRID|   Bounds   1            -40      39                Points:          80
 RS_GRID|   Bounds   2            -36      35                Points:          72
 RS_GRID|   Bounds   3           -150     149                Points:         300
 RS_GRID| Real space distribution over                                 32 groups
 RS_GRID| Real space distribution along direction                              3
 RS_GRID| Border size                                                         24
 RS_GRID|   Distribution                         Average         Max         Min
 RS_GRID|   Planes                                  57.4          58          57

 RS_GRID| Information for grid number                                          3
 RS_GRID|   Bounds   1            -22      22                Points:          45
 RS_GRID|   Bounds   2            -20      19                Points:          40
 RS_GRID|   Bounds   3            -90      89                Points:         180
 RS_GRID| Real space fully replicated
 RS_GRID| Group size                                                           1

 RS_GRID| Information for grid number                                          4
 RS_GRID|   Bounds   1            -13      13                Points:          27
 RS_GRID|   Bounds   2            -12      11                Points:          24
 RS_GRID|   Bounds   3            -50      49                Points:         100
 RS_GRID| Real space fully replicated
 RS_GRID| Group size                                                           1

 Number of electrons:                                                        968
 Number of occupied orbitals:                                                484
 Number of molecular orbitals:                                               984

 Number of orbital functions:                                               1943
 Number of independent orbital functions:                                   1943

 Extrapolation method: initial_guess


 SCF WAVEFUNCTION OPTIMIZATION

  Step     Update method      Time    Convergence         Total energy    Change
  ------------------------------------------------------------------------------

  POISSON| IMPLICIT (GENERALIZED) SOLVER ---------------------------------------
  POISSON| Preparing Dirichlet regions ...
  POISSON| Dirichlet region    1
  POISSON|     type : axis-aligned planar
  POISSON|     applied potential :   0.0000E+00  [Eh/e]
  POISSON| Dirichlet region    2
  POISSON|     type : axis-aligned planar
  POISSON|     applied potential :   0.1837E+00  [Eh/e]
  POISSON| ... Done. 
  ------------------------------------------------------------------------------

  POISSON|   iter        pres error      nabs error        E_hartree    delta E
  POISSON|      1        0.6123E-02      0.5855E-01     901.5244748818  0.90E+03
  POISSON|      2        0.1041E-14      0.6123E-02     901.5700862189  0.46E-01
  POISSON| Poisson solver converged in 2 iterations.
     1 NoMix/Diag. 0.30E+00    2.5     0.08316284     -2538.0622855657 -2.54E+03
  POISSON|   iter        pres error      nabs error        E_hartree    delta E
  POISSON|      1        0.6203E-02      0.5856E-01     901.5319421536 -0.38E-01
  POISSON|      2        0.6110E-15      0.6203E-02     901.5781525590  0.46E-01
  POISSON| Poisson solver converged in 2 iterations.
     2 Broy./Diag. 0.30E+00    2.6     0.09517473     -2538.1396168414 -7.73E-02
  POISSON|   iter        pres error      nabs error        E_hartree    delta E
  POISSON|      1        0.7269E-04      0.2232E-03     901.5770248110 -0.11E-02
  POISSON|      2        0.3865E-17      0.7269E-04     901.5764833394 -0.54E-03
  POISSON| Poisson solver converged in 2 iterations.
     3 Broy./Diag. 0.30E+00    2.6     0.09230778     -2538.0580484435  8.16E-02
  POISSON|   iter        pres error      nabs error        E_hartree    delta E
  POISSON|      1        0.9093E-06      0.9586E-05     901.5774893007  0.10E-02
  POISSON|      2        0.6635E-17      0.9093E-06     901.5774825270 -0.68E-05
  POISSON| Poisson solver converged in 2 iterations.
     4 Broy./Diag. 0.30E+00    2.6     0.00808435     -2538.1055695060 -4.75E-02
  POISSON|   iter        pres error      nabs error        E_hartree    delta E
  POISSON|      1        0.3667E-06      0.7886E-05     901.5794347860  0.20E-02
  POISSON|      2        0.1760E-17      0.3667E-06     901.5794375180  0.27E-05
  POISSON| Poisson solver converged in 2 iterations.
     5 Broy./Diag. 0.30E+00    2.6     0.00620987     -2538.1355116054 -2.99E-02
  POISSON|   iter        pres error      nabs error        E_hartree    delta E
  POISSON|      1        0.8056E-07      0.6615E-05     901.5777758147 -0.17E-02
  POISSON|      2        0.2442E-17      0.8056E-07     901.5777764148  0.60E-06
  POISSON| Poisson solver converged in 2 iterations.
     6 Broy./Diag. 0.30E+00    2.7     0.00244425     -2538.0718904469  6.36E-02
  POISSON|   iter        pres error      nabs error        E_hartree    delta E
  POISSON|      1        0.5456E-06      0.2705E-05     901.5781580870  0.38E-03
  POISSON|      2        0.5239E-17      0.5456E-06     901.5781540225 -0.41E-05
  POISSON| Poisson solver converged in 2 iterations.
     7 Broy./Diag. 0.30E+00    2.7     0.00152285     -2538.1184839476 -4.66E-02
  POISSON|   iter        pres error      nabs error        E_hartree    delta E
  POISSON|      1        0.1169E-05      0.4823E-05     901.5774250145 -0.73E-03
  POISSON|      2        0.4218E-17      0.1169E-05     901.5774163092 -0.87E-05
  POISSON| Poisson solver converged in 2 iterations.
     8 Broy./Diag. 0.30E+00    2.7     0.00101571     -2538.0954958626  2.30E-02
  POISSON|   iter        pres error      nabs error        E_hartree    delta E
  POISSON|      1        0.1148E-05      0.4618E-05     901.5770032409 -0.41E-03
  POISSON|      2        0.7309E-17      0.1148E-05     901.5769946871 -0.86E-05
  POISSON| Poisson solver converged in 2 iterations.
     9 Broy./Diag. 0.30E+00    2.7     0.00066654     -2538.1050405605 -9.54E-03
  POISSON|   iter        pres error      nabs error        E_hartree    delta E
  POISSON|      1        0.8488E-06      0.3902E-05     901.5766021965 -0.39E-03
  POISSON|      2        0.9038E-17      0.8488E-06     901.5765958735 -0.63E-05
  POISSON| Poisson solver converged in 2 iterations.
    10 Broy./Diag. 0.30E+00    2.7     0.00037790     -2538.1011165323  3.92E-03
  POISSON|   iter        pres error      nabs error        E_hartree    delta E
  POISSON|      1        0.1999E-05      0.6409E-05     901.5763990390 -0.20E-03
  POISSON|      2        0.2016E-17      0.1999E-05     901.5763841502 -0.15E-04
  POISSON| Poisson solver converged in 2 iterations.
    11 Broy./Diag. 0.30E+00    2.7     0.00029482     -2538.1025914887 -1.47E-03
  POISSON|   iter        pres error      nabs error        E_hartree    delta E
  POISSON|      1        0.1300E-05      0.4455E-05     901.5765698869  0.19E-03
  POISSON|      2        0.4635E-17      0.1300E-05     901.5765602036 -0.97E-05
  POISSON| Poisson solver converged in 2 iterations.
    12 Broy./Diag. 0.30E+00    2.7     0.00016937     -2538.1023105959  2.81E-04
  POISSON|   iter        pres error      nabs error        E_hartree    delta E
  POISSON|      1        0.7387E-06      0.2771E-05     901.5768592627  0.30E-03
  POISSON|      2        0.1033E-16      0.7387E-06     901.5768537600 -0.55E-05
  POISSON| Poisson solver converged in 2 iterations.
    13 Broy./Diag. 0.30E+00    2.7     0.00039197     -2538.1012699859  1.04E-03
  POISSON|   iter        pres error      nabs error        E_hartree    delta E
  POISSON|      1        0.9401E-06      0.2616E-05     901.5770372916  0.18E-03
  POISSON|      2        0.9737E-17      0.9401E-06     901.5770302884 -0.70E-05
  POISSON| Poisson solver converged in 2 iterations.
    14 Broy./Diag. 0.30E+00    2.7     0.00037145     -2538.1002938644  9.76E-04
  POISSON|   iter        pres error      nabs error        E_hartree    delta E
  POISSON|      1        0.1142E-05      0.3687E-05     901.5771788662  0.15E-03
  POISSON|      2        0.8474E-17      0.1142E-05     901.5771703620 -0.85E-05
  POISSON| Poisson solver converged in 2 iterations.
    15 Broy./Diag. 0.30E+00    2.7     0.00025083     -2538.0997633463  5.31E-04
  POISSON|   iter        pres error      nabs error        E_hartree    delta E
  POISSON|      1        0.8444E-06      0.2410E-05     901.5774488343  0.28E-03
  POISSON|      2        0.2955E-17      0.8444E-06     901.5774425444 -0.63E-05
  POISSON| Poisson solver converged in 2 iterations.
    16 Broy./Diag. 0.30E+00    2.7     0.00026049     -2538.1012984559 -1.54E-03
  POISSON|   iter        pres error      nabs error        E_hartree    delta E
  POISSON|      1        0.7690E-06      0.2660E-05     901.5774698160  0.27E-04
  POISSON|      2        0.2622E-17      0.7690E-06     901.5774640874 -0.57E-05
  POISSON| Poisson solver converged in 2 iterations.
    17 Broy./Diag. 0.30E+00    2.7     0.00015348     -2538.0967108998  4.59E-03
  POISSON|   iter        pres error      nabs error        E_hartree    delta E
  POISSON|      1        0.1014E-05      0.3044E-05     901.5774551170 -0.90E-05
  POISSON|      2        0.1759E-16      0.1014E-05     901.5774475637 -0.76E-05
  POISSON| Poisson solver converged in 2 iterations.
    18 Broy./Diag. 0.30E+00    2.7     0.00011231     -2538.0997032415 -2.99E-03
  POISSON|   iter        pres error      nabs error        E_hartree    delta E
  POISSON|      1        0.7779E-06      0.2356E-05     901.5773470005 -0.10E-03
  POISSON|      2        0.8975E-17      0.7779E-06     901.5773412060 -0.58E-05
  POISSON| Poisson solver converged in 2 iterations.
    19 Broy./Diag. 0.30E+00    2.7     0.00008786     -2538.0985937272  1.11E-03
  POISSON|   iter        pres error      nabs error        E_hartree    delta E
  POISSON|      1        0.1249E-05      0.3711E-05     901.5771658960 -0.18E-03
  POISSON|      2        0.2197E-17      0.1249E-05     901.5771565890 -0.93E-05
  POISSON| Poisson solver converged in 2 iterations.
    20 Broy./Diag. 0.30E+00    2.7     0.00011017     -2538.0995746356 -9.81E-04
  POISSON|   iter        pres error      nabs error        E_hartree    delta E
  POISSON|      1        0.8835E-06      0.2770E-05     901.5770512083 -0.11E-03
  POISSON|      2        0.6723E-18      0.8835E-06     901.5770446266 -0.66E-05
  POISSON| Poisson solver converged in 2 iterations.
    21 Broy./Diag. 0.30E+00    2.7     0.00006537     -2538.0996609794 -8.63E-05
  POISSON|   iter        pres error      nabs error        E_hartree    delta E
  POISSON|      1        0.9690E-06      0.2830E-05     901.5770147805 -0.30E-04
  POISSON|      2        0.4191E-17      0.9690E-06     901.5770075619 -0.72E-05
  POISSON| Poisson solver converged in 2 iterations.
    22 Broy./Diag. 0.30E+00    2.7     0.00003999     -2538.0998293798 -1.68E-04
  POISSON|   iter        pres error      nabs error        E_hartree    delta E
  POISSON|      1        0.1013E-05      0.3031E-05     901.5770538404  0.46E-04
  POISSON|      2        0.7989E-18      0.1013E-05     901.5770462945 -0.75E-05
  POISSON| Poisson solver converged in 2 iterations.
    23 Broy./Diag. 0.30E+00    2.7     0.00004365     -2538.0998552213 -2.58E-05
  POISSON|   iter        pres error      nabs error        E_hartree    delta E
  POISSON|      1        0.3318E-06      0.1018E-05     901.5771825439  0.14E-03
  POISSON|      2        0.6346E-18      0.3318E-06     901.5771800718 -0.25E-05
  POISSON| Poisson solver converged in 2 iterations.
    24 Broy./Diag. 0.30E+00    2.7     0.00007518     -2538.0996426964  2.13E-04
  POISSON|   iter        pres error      nabs error        E_hartree    delta E
  POISSON|      1        0.8252E-06      0.2415E-05     901.5773003217  0.12E-03
  POISSON|      2        0.3368E-17      0.8252E-06     901.5772941748 -0.61E-05
  POISSON| Poisson solver converged in 2 iterations.
    25 Broy./Diag. 0.30E+00    2.7     0.00005571     -2538.0992817136  3.61E-04
  POISSON|   iter        pres error      nabs error        E_hartree    delta E
  POISSON|      1        0.3518E-06      0.1080E-05     901.5772982347  0.41E-05
  POISSON|      2        0.6724E-17      0.3518E-06     901.5772956144 -0.26E-05
  POISSON| Poisson solver converged in 2 iterations.
    26 Broy./Diag. 0.30E+00    2.7     0.00005099     -2538.0988346780  4.47E-04
  POISSON|   iter        pres error      nabs error        E_hartree    delta E
  POISSON|      1        0.3202E-06      0.8917E-06     901.5773365792  0.41E-04
  POISSON|      2        0.1860E-16      0.3202E-06     901.5773341943 -0.24E-05
  POISSON| Poisson solver converged in 2 iterations.
    27 Broy./Diag. 0.30E+00    2.7     0.00003870     -2538.0994969616 -6.62E-04
  POISSON|   iter        pres error      nabs error        E_hartree    delta E
  POISSON|      1        0.3024E-06      0.9401E-06     901.5773979426  0.64E-04
  POISSON|      2        0.2957E-17      0.3024E-06     901.5773956899 -0.23E-05
  POISSON| Poisson solver converged in 2 iterations.
    28 Broy./Diag. 0.30E+00    2.7     0.00003625     -2538.0986636083  8.33E-04
  POISSON|   iter        pres error      nabs error        E_hartree    delta E
  POISSON|      1        0.2812E-06      0.8372E-06     901.5774108776  0.15E-04
  POISSON|      2        0.6748E-18      0.2812E-06     901.5774087831 -0.21E-05
  POISSON| Poisson solver converged in 2 iterations.
    29 Broy./Diag. 0.30E+00    2.7     0.00002280     -2538.0990145655 -3.51E-04
  POISSON|   iter        pres error      nabs error        E_hartree    delta E
  POISSON|      1        0.4809E-06      0.1434E-05     901.5774144173  0.56E-05
  POISSON|      2        0.6246E-17      0.4809E-06     901.5774108348 -0.36E-05
  POISSON| Poisson solver converged in 2 iterations.
    30 Broy./Diag. 0.30E+00    2.7     0.00001986     -2538.0988650510  1.50E-04
  POISSON|   iter        pres error      nabs error        E_hartree    delta E
  POISSON|      1        0.3000E-06      0.8792E-06     901.5774015781 -0.93E-05
  POISSON|      2        0.5925E-17      0.3000E-06     901.5773993431 -0.22E-05
  POISSON| Poisson solver converged in 2 iterations.
    31 Broy./Diag. 0.30E+00    2.7     0.00002483     -2538.0990464246 -1.81E-04
  POISSON|   iter        pres error      nabs error        E_hartree    delta E
  POISSON|      1        0.1959E-06      0.6105E-06     901.5773933281 -0.60E-05
  POISSON|      2        0.5074E-17      0.1959E-06     901.5773918688 -0.15E-05
  POISSON| Poisson solver converged in 2 iterations.
    32 Broy./Diag. 0.30E+00    2.7     0.00001309     -2538.0991411384 -9.47E-05
  POISSON|   iter        pres error      nabs error        E_hartree    delta E
  POISSON|      1        0.2234E-06      0.6577E-06     901.5773920812  0.21E-06
  POISSON|      2        0.3694E-17      0.2234E-06     901.5773904170 -0.17E-05
  POISSON| Poisson solver converged in 2 iterations.
    33 Broy./Diag. 0.30E+00    2.7     0.00000724     -2538.0991812109 -4.01E-05
  POISSON|   iter        pres error      nabs error        E_hartree    delta E
  POISSON|      1        0.1789E-06      0.5391E-06     901.5773966213  0.62E-05
  POISSON|      2        0.6693E-17      0.1789E-06     901.5773952889 -0.13E-05
  POISSON| Poisson solver converged in 2 iterations.
    34 Broy./Diag. 0.30E+00    2.7     0.00001094     -2538.0992215560 -4.03E-05
  POISSON|   iter        pres error      nabs error        E_hartree    delta E
  POISSON|      1        0.8980E-07      0.2760E-06     901.5774131270  0.18E-04
  POISSON|      2        0.6495E-18      0.8980E-07     901.5774124580 -0.67E-06
  POISSON| Poisson solver converged in 2 iterations.
    35 Broy./Diag. 0.30E+00    2.7     0.00001032     -2538.0992336781 -1.21E-05
  POISSON|   iter        pres error      nabs error        E_hartree    delta E
  POISSON|      1        0.1077E-06      0.3134E-06     901.5774367022  0.24E-04
  POISSON|      2        0.2462E-17      0.1077E-06     901.5774359001 -0.80E-06
  POISSON| Poisson solver converged in 2 iterations.
    36 Broy./Diag. 0.30E+00    2.7     0.00001055     -2538.0992314343  2.24E-06
  POISSON|   iter        pres error      nabs error        E_hartree    delta E
  POISSON|      1        0.5056E-07      0.1660E-06     901.5774409566  0.51E-05
  POISSON|      2        0.1409E-17      0.5056E-07     901.5774405800 -0.38E-06
  POISSON| Poisson solver converged in 2 iterations.
    37 Broy./Diag. 0.30E+00    2.7     0.00001106     -2538.0990833833  1.48E-04
  POISSON|   iter        pres error      nabs error        E_hartree    delta E
  POISSON|      1        0.1242E-06      0.3615E-06     901.5774604076  0.20E-04
  POISSON|      2        0.3039E-17      0.1242E-06     901.5774594822 -0.93E-06
  POISSON| Poisson solver converged in 2 iterations.
    38 Broy./Diag. 0.30E+00    2.7     0.00001003     -2538.0992613291 -1.78E-04
  POISSON|   iter        pres error      nabs error        E_hartree    delta E
  POISSON|      1        0.1642E-07      0.5740E-07     901.5774704965  0.11E-04
  POISSON|      2        0.9381E-17      0.1642E-07     901.5774703742 -0.12E-06
  POISSON| Poisson solver converged in 2 iterations.
    39 Broy./Diag. 0.30E+00    2.7     0.00000768     -2538.0991230840  1.38E-04
  POISSON|   iter        pres error      nabs error        E_hartree    delta E
  POISSON|      1        0.4559E-07      0.1361E-06     901.5774785455  0.82E-05
  POISSON|      2        0.8481E-17      0.4559E-07     901.5774782059 -0.34E-06
  POISSON| Poisson solver converged in 2 iterations.
    40 Broy./Diag. 0.30E+00    2.7     0.00000419     -2538.0991519509 -2.89E-05
  POISSON|   iter        pres error      nabs error        E_hartree    delta E
  POISSON|      1        0.6027E-07      0.1811E-06     901.5774809921  0.28E-05
  POISSON|      2        0.7634E-17      0.6027E-07     901.5774805432 -0.45E-06
  POISSON| Poisson solver converged in 2 iterations.
    41 Broy./Diag. 0.30E+00    2.7     0.00000268     -2538.0991258840  2.61E-05
  POISSON|   iter        pres error      nabs error        E_hartree    delta E
  POISSON|      1        0.1555E-07      0.4439E-07     901.5774789070 -0.16E-05
  POISSON|      2        0.3787E-17      0.1555E-07     901.5774787911 -0.12E-06
  POISSON| Poisson solver converged in 2 iterations.
    42 Broy./Diag. 0.30E+00    2.7     0.00000371     -2538.0991461057 -2.02E-05
  POISSON|   iter        pres error      nabs error        E_hartree    delta E
  POISSON|      1        0.1982E-07      0.6548E-07     901.5774791725  0.38E-06
  POISSON|      2        0.3404E-17      0.1982E-07     901.5774790248 -0.15E-06
  POISSON| Poisson solver converged in 2 iterations.
    43 Broy./Diag. 0.30E+00    2.7     0.00000448     -2538.0991523296 -6.22E-06
  POISSON|   iter        pres error      nabs error        E_hartree    delta E
  POISSON|      1        0.3634E-07      0.1074E-06     901.5774758834 -0.31E-05
  POISSON|      2        0.1136E-16      0.3634E-07     901.5774756127 -0.27E-06
  POISSON| Poisson solver converged in 2 iterations.
    44 Broy./Diag. 0.30E+00    2.7     0.00000255     -2538.0991533156 -9.86E-07
  POISSON|   iter        pres error      nabs error        E_hartree    delta E
  POISSON|      1        0.2532E-07      0.7291E-07     901.5774731227 -0.25E-05
  POISSON|      2        0.1514E-17      0.2532E-07     901.5774729341 -0.19E-06
  POISSON| Poisson solver converged in 2 iterations.
    45 Broy./Diag. 0.30E+00    2.7     0.00000139     -2538.0991724046 -1.91E-05
  POISSON|   iter        pres error      nabs error        E_hartree    delta E
  POISSON|      1        0.1138E-07      0.3512E-07     901.5774720079 -0.93E-06
  POISSON|      2        0.2191E-17      0.1138E-07     901.5774719232 -0.85E-07
  POISSON| Poisson solver converged in 2 iterations.
    46 Broy./Diag. 0.30E+00    2.7     0.00000191     -2538.0991767867 -4.38E-06
  POISSON|   iter        pres error      nabs error        E_hartree    delta E
  POISSON|      1        0.1142E-07      0.3179E-07     901.5774727463  0.82E-06
  POISSON|      2        0.2622E-17      0.1142E-07     901.5774726613 -0.85E-07
  POISSON| Poisson solver converged in 2 iterations.
    47 Broy./Diag. 0.30E+00    2.7     0.00000211     -2538.0991928654 -1.61E-05
  POISSON|   iter        pres error      nabs error        E_hartree    delta E
  POISSON|      1        0.1311E-07      0.3969E-07     901.5774728057  0.14E-06
  POISSON|      2        0.6369E-17      0.1311E-07     901.5774727080 -0.98E-07
  POISSON| Poisson solver converged in 2 iterations.
    48 Broy./Diag. 0.30E+00    2.7     0.00000151     -2538.0991576778  3.52E-05
  POISSON|   iter        pres error      nabs error        E_hartree    delta E
  POISSON|      1        0.1166E-07      0.3207E-07     901.5774740604  0.14E-05
  POISSON|      2        0.4197E-17      0.1166E-07     901.5774739735 -0.87E-07
  POISSON| Poisson solver converged in 2 iterations.
    49 Broy./Diag. 0.30E+00    2.7     0.00000124     -2538.0991805468 -2.29E-05
  POISSON|   iter        pres error      nabs error        E_hartree    delta E
  POISSON|      1        0.6067E-08      0.1757E-07     901.5774746717  0.70E-06
  POISSON| Poisson solver converged in 1 iteration. 
    50 Broy./Diag. 0.30E+00    2.3     0.00000127     -2538.0991640577  1.65E-05
  POISSON|   iter        pres error      nabs error        E_hartree    delta E
  POISSON|      1        0.8566E-08      0.2336E-07     901.5774767285  0.21E-05
  POISSON| Poisson solver converged in 1 iteration. 
    51 Broy./Diag. 0.30E+00    2.3     0.00000115     -2538.0991660594 -2.00E-06
  POISSON|   iter        pres error      nabs error        E_hartree    delta E
  POISSON|      1        0.2359E-08      0.9698E-08     901.5774772070  0.48E-06
  POISSON| Poisson solver converged in 1 iteration. 
    52 Broy./Diag. 0.30E+00    2.3     0.00000184     -2538.0991589682  7.09E-06
  POISSON|   iter        pres error      nabs error        E_hartree    delta E
  POISSON|      1        0.6203E-08      0.1576E-07     901.5774775765  0.37E-06
  POISSON| Poisson solver converged in 1 iteration. 
    53 Broy./Diag. 0.30E+00    2.3     0.00000129     -2538.0991566639  2.30E-06
  POISSON|   iter        pres error      nabs error        E_hartree    delta E
  POISSON|      1        0.3775E-08      0.8805E-08     901.5774778031  0.23E-06
  POISSON| Poisson solver converged in 1 iteration. 
    54 Broy./Diag. 0.30E+00    2.3     0.00000075     -2538.0991556483  1.02E-06

  *** SCF run converged in    54 steps ***


  Electronic density on regular grids:       -968.0000000023       -0.0000000023
  Core density on regular grids:              967.9999999998       -0.0000000002
  Total charge density on r-space grids:       -0.0000000025
  Total charge density g-space grids:          -0.0000000025

  Overlap energy of the core charge distribution:               0.00001067490320
  Self energy of the core charge distribution:              -4440.62962420003350
  Core Hamiltonian energy:                                   1439.86870076093328
  Hartree energy:                                             901.57747780308932
  Electric enthalpy:                                          901.48647166095725
  Exchange-correlation energy:                               -436.67971660987155
  Dispersion energy:                                           -2.11243213765467
  Electronic entropic energy:                                  -0.03256579674907
  Fermi energy:                                                -0.28171985377562

  Total energy:                                             -2538.09915564828543

 The electron density is written in cube file format to the file:

 cp2k-ELECTRON_DENSITY-1_0.cube

 !-----------------------------------------------------------------------------!
                     Mulliken Population Analysis

 #  Atom  Element  Kind  Atomic population                           Net charge
       1     Pt       1         10.043474                             -0.043474
       2     Pt       1         10.043423                             -0.043423
       3     Pt       1         10.043404                             -0.043404
       4     Pt       1         10.043450                             -0.043450
       5     Pt       1         10.043428                             -0.043428
       6     Pt       1         10.043426                             -0.043426
       7     Pt       1         10.043498                             -0.043498
       8     Pt       1         10.043486                             -0.043486
       9     Pt       1         10.043381                             -0.043381
      10     Pt       1         10.043515                             -0.043515
      11     Pt       1         10.043554                             -0.043554
      12     Pt       1         10.043444                             -0.043444
      13     Pt       1         10.043480                             -0.043480
      14     Pt       1         10.043457                             -0.043457
      15     Pt       1         10.043377                             -0.043377
      16     Pt       1         10.043446                             -0.043446
      17     Pt       1          9.971961                              0.028039
      18     Pt       1          9.971964                              0.028036
      19     Pt       1          9.971959                              0.028041
      20     Pt       1          9.971962                              0.028038
      21     Pt       1          9.971948                              0.028052
      22     Pt       1          9.971954                              0.028046
[...]
     90      1      Pt          0.00001332     0.00126273     0.01289528
     91      1      Pt         -0.00008320     0.00127019     0.01336118
     92      1      Pt          0.00002665     0.00126233     0.01279767
     93      1      Pt          0.00004481     0.00125413     0.01287027
     94      1      Pt         -0.00004199     0.00127735     0.01288017
     95      1      Pt         -0.00002246     0.00131293     0.01287640
     96      1      Pt          0.00001865     0.00128280     0.01280202
     97      2      O           0.00186386     0.00000111     0.00063899
     98      3      H          -0.00094454     0.00143009    -0.00185571
     99      3      H          -0.00094460    -0.00142998    -0.00185582
 SUM OF ATOMIC FORCES          -0.00002827     0.00000047    -0.00159690     0.00159715

 -------------------------------------------------------------------------------
 -                                                                             -
 -                                DBCSR STATISTICS                             -
 -                                                                             -
 -------------------------------------------------------------------------------
 COUNTER                                    TOTAL       BLAS       SMM       ACC
 flops     5 x    24 x     5                 4800       0.0%    100.0%      0.0%
 flops     5 x    24 x    13                 6240       0.0%    100.0%      0.0%
 flops    13 x    24 x     5                 6240       0.0%    100.0%      0.0%
 flops    13 x    24 x    13                 8112       0.0%    100.0%      0.0%
 flops     5 x    22 x     5                26400       0.0%    100.0%      0.0%
 flops     5 x    22 x    13                34320       0.0%    100.0%      0.0%
 flops    13 x    22 x     5                34320       0.0%    100.0%      0.0%
 flops    13 x    22 x    13                44616       0.0%    100.0%      0.0%
 flops     5 x    32 x     5               691200       0.0%    100.0%      0.0%
 flops     5 x    13 x    96               698880       0.0%    100.0%      0.0%
 flops    13 x     5 x    96               698880       0.0%    100.0%      0.0%
 flops     5 x    24 x    20               739200       0.0%    100.0%      0.0%
 flops    20 x    24 x     5               739200       0.0%    100.0%      0.0%
 flops    20 x    24 x    13               786240       0.0%    100.0%      0.0%
 flops    13 x    24 x    20               786240       0.0%    100.0%      0.0%
 flops     5 x     5 x    96               806400       0.0%    100.0%      0.0%
 flops     5 x    13 x   120               873600       0.0%    100.0%      0.0%
 flops    13 x     5 x   120               873600       0.0%    100.0%      0.0%
 flops     5 x    32 x    13               898560       0.0%    100.0%      0.0%
 flops    13 x    32 x     5               898560       0.0%    100.0%      0.0%
 flops     5 x     5 x   120              1008000       0.0%    100.0%      0.0%
 flops    13 x    32 x    13              1168128       0.0%    100.0%      0.0%
 flops    13 x    13 x    96              1817088       0.0%    100.0%      0.0%
 flops    13 x    13 x   120              2271360       0.0%    100.0%      0.0%
 flops     5 x    22 x    20              4065600       0.0%    100.0%      0.0%
 flops    20 x    22 x     5              4065600       0.0%    100.0%      0.0%
 flops    20 x    22 x    13              4324320       0.0%    100.0%      0.0%
 flops    13 x    22 x    20              4324320       0.0%    100.0%      0.0%
 flops     5 x    13 x   128              5591040       0.0%    100.0%      0.0%
 flops    13 x     5 x   128              5591040       0.0%    100.0%      0.0%
 flops     5 x     5 x   128              6451200       0.0%    100.0%      0.0%
 flops    13 x    13 x   128             14536704       0.0%    100.0%      0.0%
 flops    20 x     5 x    96             81715200       0.0%    100.0%      0.0%
 flops     5 x    20 x    96             83865600       0.0%    100.0%      0.0%
 flops    20 x    13 x    96             86661120       0.0%    100.0%      0.0%
 flops    13 x    20 x    96             89456640       0.0%    100.0%      0.0%
 flops    20 x     5 x   120            102144000       0.0%    100.0%      0.0%
 flops     5 x    20 x   120            104832000       0.0%    100.0%      0.0%
 flops    20 x    32 x     5            106444800       0.0%    100.0%      0.0%
 flops     5 x    32 x    20            106444800       0.0%    100.0%      0.0%
 flops    20 x    13 x   120            108326400       0.0%    100.0%      0.0%
 flops    13 x    20 x   120            111820800       0.0%    100.0%      0.0%
 flops    20 x    32 x    13            113218560       0.0%    100.0%      0.0%
 flops    13 x    32 x    20            113218560       0.0%    100.0%      0.0%
 flops    20 x    24 x    20            176947200       0.0%    100.0%      0.0%
 flops    20 x     5 x   128            653721600       0.0%    100.0%      0.0%
 flops     5 x    20 x   128            670924800       0.0%    100.0%      0.0%
 flops    20 x    13 x   128            693288960       0.0%    100.0%      0.0%
 flops    13 x    20 x   128            715653120       0.0%    100.0%      0.0%
 flops    20 x    22 x    20            973209600       0.0%    100.0%      0.0%
 flops    20 x    20 x    96          20024524800       0.0%    100.0%      0.0%
 flops    20 x    20 x   120          25030656000       0.0%    100.0%      0.0%
 flops    20 x    32 x    20          25480396800       0.0%    100.0%      0.0%
 flops    20 x    20 x   128         160196198400       0.0%    100.0%      0.0%
 flops inhomo. stacks                           0       0.0%      0.0%      0.0%
 flops total                       235.888540E+09       0.0%    100.0%      0.0%
 flops max/rank                      7.938691E+09       0.0%    100.0%      0.0%
 matmuls inhomo. stacks                         0       0.0%      0.0%      0.0%
 matmuls total                            3296577       0.0%    100.0%      0.0%
 number of processed stacks                 38195       0.0%    100.0%      0.0%
 average stack size                                     0.0      86.3       0.0
 marketing flops                   246.297133E+09
 -------------------------------------------------------------------------------
 # multiplications                             63
 max memory usage/rank             402.538496E+06
 # max total images/rank                        2
 # max 3D layers                                1
 # MPI messages exchanged                   26208
 MPI messages size (bytes):
  total size                        10.203990E+09
  min size                          61.440000E+03
  max size                         972.872000E+03
  average size                     389.346375E+03
 MPI breakdown and total messages size (bytes):
             size <=      128                   0                        0
       128 < size <=     8192                   0                        0
      8192 < size <=    32768                   0                        0
     32768 < size <=   131072                1152                122548896
    131072 < size <=  4194304               25056              10081443336
   4194304 < size <= 16777216                   0                        0
  16777216 < size                               0                        0
 -------------------------------------------------------------------------------

 *** WARNING in dbcsr_mm.F:295 :: Using a non-square number of MPI ranks ***
 *** might lead to poor performance. Used ranks: 32 Suggested: 36 64     ***

 -------------------------------------------------------------------------------
 -                                                                             -
 -                      DBCSR MESSAGE PASSING PERFORMANCE                      -
 -                                                                             -
 -------------------------------------------------------------------------------
 ROUTINE             CALLS      AVE VOLUME [Bytes]
 MP_Group               63
 MP_Bcast               55                     12.
 MP_Allreduce          538                     12.
 MP_Alltoall          1703                 262997.
 MP_Wait              4032
 MP_ISend             2016                 170415.
 MP_IRecv             2016                 164968.
 MP_Memory            6972
 -------------------------------------------------------------------------------

 MEMORY| Estimated peak process memory [MiB]                                 385

 -------------------------------------------------------------------------------
 ----                             MULTIGRID INFO                            ----
 -------------------------------------------------------------------------------
 count for grid        1:         253117          cutoff [a.u.]          200.00
 count for grid        2:         269774          cutoff [a.u.]           66.67
 count for grid        3:         157726          cutoff [a.u.]           22.22
 count for grid        4:         113775          cutoff [a.u.]            7.41
 total gridlevel count  :         794392

 -------------------------------------------------------------------------------
 -                                                                             -
 -                         MESSAGE PASSING PERFORMANCE                         -
 -                                                                             -
 -------------------------------------------------------------------------------

 ROUTINE             CALLS      AVE VOLUME [Bytes]
 MP_Group                4
 MP_Bcast             2328                 246907.
 MP_Allreduce         3263                   3260.
 MP_Sync                 5
 MP_Alltoall          3051               13217751.
 MP_SendRecv         55924                 169357.
 MP_ISendRecv         6820                  66000.
 MP_Wait             16228
 MP_ISend             8512                 180524.
 MP_IRecv             8512                 180524.
 MP_Recv               120                 497408.
 MP_Write_All            3                1119280.
 -------------------------------------------------------------------------------


 -------------------------------------------------------------------------------
 -                                                                             -
 -                           R E F E R E N C E S                               -
 -                                                                             -
 -------------------------------------------------------------------------------
 
 CP2K version 7.1, the CP2K developers group (2019).
 CP2K is freely available from https://www.cp2k.org/ .

 Bani-Hashemian, MH; Bruck, S; Luisier, M; VandeVondele, J. 
 JOURNAL OF CHEMICAL PHYSICS, 144 (4), 044113 (2016). 
 A generalized Poisson solver for first-principles device simulations.
 https://dx.doi.org/10.1063/1.4940796

 Schuett, Ole; Messmer, Peter; Hutter, Juerg; VandeVondele, Joost. 
 Electronic Structure Calculations on Graphics Processing Units, John
 Wiley & Sons, Ltd, 173-190 (2016). 
 GPU-Accelerated Sparse Matrix-Matrix Multiplication for
 Linear Scaling Density Functional Theory.
 https://dx.doi.org/10.1002/9781118670712.ch8

 Borstnik, U; VandeVondele, J; Weber, V; Hutter, J. 
 PARALLEL COMPUTING, 40 (5-6), 47-58 (2014). 
 Sparse matrix multiplication: The distributed block-compressed sparse
 row library.
 https://dx.doi.org/10.1016/j.parco.2014.03.012

 Hutter, J; Iannuzzi, M; Schiffmann, F; VandeVondele, J. 
 WIREs Comput Mol Sci., 4 (1), 15-25 (2014). 
 CP2K: atomistic simulations of condensed matter systems.
 https://dx.doi.org/10.1002/wcms.1159

 Marek, A; Blum, V; Johanni, R; Havu, V; Lang, B; Auckenthaler, T;
 Heinecke, A; Bungartz, H; Lederer, H. 
 Journal of Physics: Condensed Matter, 26 (21), (2014). 
 The ELPA library: scalable parallel eigenvalue solutions for
 electronic structure
 theory and computational science.
 https://dx.doi.org/10.1088/0953-8984/26/21/213201

 Grimme, S; Ehrlich, S; Goerigk, L. 
 JOURNAL OF COMPUTATIONAL CHEMISTRY, 32, 1456 (2011). 
 Effect of the damping function in dispersion corrected density functional theory.
 https://dx.doi.org/10.1002/jcc.21759

 Grimme, S; Antony, J; Ehrlich, S; Krieg, H. 
 JOURNAL OF CHEMICAL PHYSICS, 132 (15), 154104 (2010). 
 A consistent and accurate ab initio parametrization of density
 functional dispersion correction (DFT-D) for the 94 elements H-Pu.
 https://dx.doi.org/10.1063/1.3382344

 VandeVondele, J; Hutter, J. 
 JOURNAL OF CHEMICAL PHYSICS, 127 (11), 114105 (2007). 
 Gaussian basis sets for accurate calculations on molecular systems in
 gas and condensed phases.
 https://dx.doi.org/10.1063/1.2770708

 Krack, M. 
 THEORETICAL CHEMISTRY ACCOUNTS, 114 (1-3), 145-152 (2005). 
 Pseudopotentials for H to Kr optimized for gradient-corrected
 exchange-correlation functionals.
 https://dx.doi.org/10.1007/s00214-005-0655-y

 VandeVondele, J; Krack, M; Mohamed, F; Parrinello, M; Chassaing, T;
 Hutter, J. COMPUTER PHYSICS COMMUNICATIONS, 167 (2), 103-128 (2005). 
 QUICKSTEP: Fast and accurate density functional calculations using a
 mixed Gaussian and plane waves approach.
 https://dx.doi.org/10.1016/j.cpc.2004.12.014

 Frigo, M; Johnson, SG. 
 PROCEEDINGS OF THE IEEE, 93 (2), 216-231 (2005). 
 The design and implementation of FFTW3.
 https://dx.doi.org/10.1109/JPROC.2004.840301

 Hartwigsen, C; Goedecker, S; Hutter, J. 
 PHYSICAL REVIEW B, 58 (7), 3641-3662 (1998). 
 Relativistic separable dual-space Gaussian pseudopotentials from H to Rn.
 https://dx.doi.org/10.1103/PhysRevB.58.3641

 Lippert, G; Hutter, J; Parrinello, M. 
 MOLECULAR PHYSICS, 92 (3), 477-487 (1997). 
 A hybrid Gaussian and plane wave density functional scheme.
 https://dx.doi.org/10.1080/002689797170220

 Perdew, JP; Burke, K; Ernzerhof, M. 
 PHYSICAL REVIEW LETTERS, 77 (18), 3865-3868 (1996). 
 Generalized gradient approximation made simple.
 https://dx.doi.org/10.1103/PhysRevLett.77.3865

 Goedecker, S; Teter, M; Hutter, J. 
 PHYSICAL REVIEW B, 54 (3), 1703-1710 (1996). 
 Separable dual-space Gaussian pseudopotentials.
 https://dx.doi.org/10.1103/PhysRevB.54.1703


 -------------------------------------------------------------------------------
 -                                                                             -
 -                                T I M I N G                                  -
 -                                                                             -
 -------------------------------------------------------------------------------
 SUBROUTINE                       CALLS  ASD         SELF TIME        TOTAL TIME
                                MAXIMUM       AVERAGE  MAXIMUM  AVERAGE  MAXIMUM
 CP2K                                 1  1.0    0.022    0.029  205.018  205.027
 qs_forces                            1  2.0    0.000    0.000  204.749  204.753
 qs_energies                          1  3.0    0.000    0.000  200.727  200.732
 scf_env_do_scf                       1  4.0    0.000    0.000  143.454  143.467
 scf_env_do_scf_inner_loop           54  5.0    0.003    0.009  143.451  143.464
 rebuild_ks_matrix                   55  6.9    0.000    0.000  109.689  109.699
 qs_ks_build_kohn_sham_matrix        55  7.9    0.006    0.008  109.689  109.699
 qs_ks_update_qs_env                 54  6.0    0.000    0.000  107.533  107.542
 pw_transfer                       2814 12.0    0.165    0.213   79.342   80.415
 fft_wrap_pw1pw2                   2814 13.0    0.030    0.036   79.176   80.274
 fft_wrap_pw1pw2_200               2484 14.2    6.502    6.841   78.386   79.344
 pw_poisson_solve                    55  8.9    0.002    0.002   68.584   68.635
 implicit_poisson_solver_mixed_      55  9.9    1.534    1.767   64.824   64.928
 fft3d_ps                          2814 15.0   39.597   44.108   58.392   59.235
 scf_post_calculation_gpw             1  4.0    0.000    0.000   55.973   55.978
 get_localization_info                1  5.0    0.000    0.000   55.134   55.142
 qs_loc_driver                        1  6.0    0.000    0.000   55.134   55.142
 optimize_loc_berry                   1  7.0    0.015    0.016   55.126   55.128
 jacobi_rot_para                      1  8.0   43.785   48.266   55.038   55.039
 derive_fft                         320 12.1    0.014    0.016   45.746   46.563
 apply_P_operator                   265 11.2    0.636    0.800   38.521   39.109
 qs_rho_update_rho                   55  6.0    0.000    0.000   20.898   20.921
 calculate_rho_elec                  55  7.0    8.970   14.920   20.897   20.921
 sum_up_and_integrate                55  8.9    0.179    0.207   20.840   20.850
 integrate_v_rspace                  55  9.9    9.518   16.013   20.661   20.679
 qs_vxc_create                       55  8.9    0.001    0.002   18.319   18.449
 xc_vxc_pw_create                    55  9.9    0.203    0.262   18.317   18.448
 density_rs2pw                       55  8.0    0.003    0.003   11.205   13.887
 mp_alltoall_z22v                  2814 17.0   10.463   13.809   10.463   13.809
 x_to_yz                           1726 16.3    5.745    7.475   11.432   12.453
 rs_pw_transfer                     444 10.4    0.004    0.006    9.529   12.134
 apply_poisson_operator_fft          55 10.9    0.001    0.001   11.629   11.702
 mp_allgather_d23                 27900  9.0    7.650   11.027    7.650   11.027
 apply_inv_laplace_operator_fft     162 11.6    0.305    0.364   10.455   10.696
 xc_rho_set_and_dset_create          55 10.9    0.076    0.087    9.799   10.427
 mp_alltoall_d11v                   841 10.4    6.816    9.631    6.816    9.631
 pw_scatter_p                      1781 15.2    9.101    9.624    9.101    9.624
 rs_distribute_matrix               111  9.5    0.093    0.241    6.859    9.591
 rs_pw_transfer_RS2PW_200            57  9.9    0.695    0.960    6.845    9.433
 mp_waitany                        8512 12.4    6.511    9.209    6.511    9.209
 qs_scf_new_mos                      54  6.0    0.001    0.001    9.138    9.156
 yz_to_x                            978 15.7    2.509    3.001    7.281    8.815
 ps_implicit_compute_veps            55 10.9    0.207    0.307    8.072    8.420
 eigensolver                         54  7.0    0.003    0.004    8.061    8.076
 ps_implicit_compute_error_fft      105 10.9    0.419    0.454    7.469    7.825
 cp_fm_diag_elpa                     55  8.0    0.000    0.000    6.580    6.585
 cp_fm_diag_elpa_base                55  9.0    6.413    6.418    6.579    6.584
 gspace_mixing                       53  6.0    0.062    0.072    6.178    6.179
 pw_gather_p                       1033 14.6    5.092    5.371    5.092    5.371
 pw_derive                         1290 12.7    4.596    5.251    4.596    5.251
 potential_pw2rs                     55 10.9    0.006    0.007    4.433    4.449
 broyden_mixing                      53  7.0    4.333    4.387    4.420    4.428
 xc_functional_eval                  55 11.9    0.000    0.001    3.562    4.279
 pbe_lda_eval                        55 12.9    3.562    4.278    3.562    4.278
 -------------------------------------------------------------------------------

 The number of warnings for this run is : 1
 
 -------------------------------------------------------------------------------
  **** **** ******  **  PROGRAM ENDED AT                 2024-11-01 23:24:37.300
 ***** ** ***  *** **   PROGRAM RAN ON                                   c53-012
 **    ****   ******    PROGRAM RAN BY                                     jxzhu
 ***** **    ** ** **   PROGRAM PROCESS ID                                264131
  **** **  *******  **  PROGRAM STOPPED IN /data/jxzhu/nnp/dp_workdir/d1f764b96e
                                           9a01b62c3e35b0c4f5198f3ba3ed59/calc.0
                                           00/task.003.000001
