 DBCSR| CPU Multiplication driver                                           XSMM
 DBCSR| Multrec recursion limit                                              512
 DBCSR| Multiplication stack size                                           1000
 DBCSR| Maximum elements for images                                    UNLIMITED
 DBCSR| Multiplicative factor virtual images                                   1
 DBCSR| Use multiplication densification                                       T
 DBCSR| Multiplication size stacks                                             3
 DBCSR| Use memory pool for CPU allocation                                     F
 DBCSR| Number of 3D layers                                               SINGLE
 DBCSR| Use MPI memory allocation                                              F
 DBCSR| Use RMA algorithm                                                      F
 DBCSR| Use Communication thread                                               T
 DBCSR| Communication thread load                                             87
 DBCSR| MPI: My node id                                                        0
 DBCSR| MPI: Number of nodes                                                  32
 DBCSR| OMP: Current number of threads                                         1
 DBCSR| OMP: Max number of threads                                             1
 DBCSR| Split modifier for TAS multiplication algorithm                  1.0E+00


  **** **** ******  **  PROGRAM STARTED AT               2023-12-03 06:48:17.299
 ***** ** ***  *** **   PROGRAM STARTED ON                                 cu042
 **    ****   ******    PROGRAM STARTED BY                                 jxzhu
 ***** **    ** ** **   PROGRAM PROCESS ID                                 53893
  **** **  *******  **  PROGRAM STARTED IN /public/home/jxzhu/tmp_calc/04c0855f9
                                           8753fac23fde4df51ba20f3741a9e9a/calc/
                                           task.000.000022

 CP2K| version string:                                       CP2K version 2022.1
 CP2K| source code revision number:                                  git:2caeb6f
 CP2K| cp2kflags: omp libint fftw3 libxc elpa parallel mpi3 scalapack cosma xsmm
 CP2K|             plumed2 spglib mkl sirius libvori libbqb
 CP2K| is freely available from                            https://www.cp2k.org/
 CP2K| Program compiled at                           Mon Jul 3 17:37:06 CST 2023
 CP2K| Program compiled on                                                 mu003
 CP2K| Program compiled for                                                local
 CP2K| Data directory path                             /public/home/jxzhu/basis/
 CP2K| Input file name                                                 input.inp
 
 GLOBAL| Force Environment number                                              1
 GLOBAL| Basis set file name                                        BASIS_MOLOPT
 GLOBAL| Potential file name                                      GTH_POTENTIALS
 GLOBAL| MM Potential file name                                     MM_POTENTIAL
 GLOBAL| Coordinate file name                                          coord.xyz
 GLOBAL| Method name                                                        CP2K
 GLOBAL| Project name                                                       cp2k
 GLOBAL| Run type                                                   ENERGY_FORCE
 GLOBAL| FFT library                                                       FFTW3
 GLOBAL| Diagonalization library                                            ELPA
 GLOBAL| Minimum number of eigenvectors for ELPA usage                        16
 GLOBAL| Orthonormality check for eigenvectors                          DISABLED
 GLOBAL| Matrix multiplication library                                     COSMA
 GLOBAL| All-to-all communication in single precision                          F
 GLOBAL| FFTs using library dependent lengths                                  T
 GLOBAL| Grid backend                                                       AUTO
 GLOBAL| Global print level                                               MEDIUM
 GLOBAL| MPI I/O enabled                                                       T
 GLOBAL| Total number of message passing processes                            32
 GLOBAL| Number of threads for this process                                    1
 GLOBAL| This output is from process                                           0
 GLOBAL| Stack size for threads created by OpenMP (OMP_STACKSIZE)        default
 GLOBAL| CPU model name                 Intel(R) Xeon(R) Gold 6338 CPU @ 2.00GHz
 GLOBAL| CPUID                                                              1003

 MEMORY| system memory details [Kb]
 MEMORY|                        rank 0           min           max       average
 MEMORY| MemTotal            263619172     263619172     263619172     263619172
 MEMORY| MemFree             172331848     172331848     172332468     172331964
 MEMORY| Buffers                  3320          3320          3320          3320
 MEMORY| Cached                8789428       8789428       8789428       8789428
 MEMORY| Slab                  1920728       1920728       1920728       1920728
 MEMORY| SReclaimable           245376        245376        245376        245376
 MEMORY| MemLikelyFree       181369972     181369972     181370592     181370088


 *** Fundamental physical constants (SI units) ***

 *** Literature: B. J. Mohr and B. N. Taylor,
 ***             CODATA recommended values of the fundamental physical
 ***             constants: 2006, Web Version 5.1
 ***             http://physics.nist.gov/constants

 Speed of light in vacuum [m/s]                             2.99792458000000E+08
 Magnetic constant or permeability of vacuum [N/A**2]       1.25663706143592E-06
 Electric constant or permittivity of vacuum [F/m]          8.85418781762039E-12
 Planck constant (h) [J*s]                                  6.62606896000000E-34
 Planck constant (h-bar) [J*s]                              1.05457162825177E-34
 Elementary charge [C]                                      1.60217648700000E-19
 Electron mass [kg]                                         9.10938215000000E-31
 Electron g factor [ ]                                     -2.00231930436220E+00
 Proton mass [kg]                                           1.67262163700000E-27
 Fine-structure constant                                    7.29735253760000E-03
 Rydberg constant [1/m]                                     1.09737315685270E+07
 Avogadro constant [1/mol]                                  6.02214179000000E+23
 Boltzmann constant [J/K]                                   1.38065040000000E-23
 Atomic mass unit [kg]                                      1.66053878200000E-27
 Bohr radius [m]                                            5.29177208590000E-11

 *** Conversion factors ***

 [u] -> [a.u.]                                              1.82288848426455E+03
 [Angstrom] -> [Bohr] = [a.u.]                              1.88972613288564E+00
 [a.u.] = [Bohr] -> [Angstrom]                              5.29177208590000E-01
 [a.u.] -> [s]                                              2.41888432650478E-17
 [a.u.] -> [fs]                                             2.41888432650478E-02
 [a.u.] -> [J]                                              4.35974393937059E-18
 [a.u.] -> [N]                                              8.23872205491840E-08
 [a.u.] -> [K]                                              3.15774647902944E+05
 [a.u.] -> [kJ/mol]                                         2.62549961709828E+03
 [a.u.] -> [kcal/mol]                                       6.27509468713739E+02
 [a.u.] -> [Pa]                                             2.94210107994716E+13
 [a.u.] -> [bar]                                            2.94210107994716E+08
 [a.u.] -> [atm]                                            2.90362800883016E+08
 [a.u.] -> [eV]                                             2.72113838565563E+01
 [a.u.] -> [Hz]                                             6.57968392072181E+15
 [a.u.] -> [1/cm] (wave numbers)                            2.19474631370540E+05
 [a.u./Bohr**2] -> [1/cm]                                   5.14048714338585E+03
 

 CELL_TOP| Volume [angstrom^3]:                                     12686.086737
 CELL_TOP| Vector a [angstrom    16.869     0.000     0.000   |a| =    16.869000
 CELL_TOP| Vector b [angstrom    -8.434    14.609     0.000   |b| =    16.868929
 CELL_TOP| Vector c [angstrom     0.000     0.000    51.478   |c| =    51.477900
 CELL_TOP| Angle (b,c), alpha [degree]:                                90.000000
 CELL_TOP| Angle (a,c), beta  [degree]:                                90.000000
 CELL_TOP| Angle (a,b), gamma [degree]:                               120.000140
 CELL_TOP| Numerically orthorhombic:                                          NO
 
 GENERATE|  Preliminary Number of Bonds generated:                             0
 GENERATE|  Achieved consistency in connectivity generation.

 CELL| Volume [angstrom^3]:                                         12686.086737
 CELL| Vector a [angstrom]:      16.869     0.000     0.000   |a| =    16.869000
 CELL| Vector b [angstrom]:      -8.434    14.609     0.000   |b| =    16.868929
 CELL| Vector c [angstrom]:       0.000     0.000    51.478   |c| =    51.477900
 CELL| Angle (b,c), alpha [degree]:                                    90.000000
 CELL| Angle (a,c), beta  [degree]:                                    90.000000
 CELL| Angle (a,b), gamma [degree]:                                   120.000140
 CELL| Numerically orthorhombic:                                              NO

 CELL_REF| Volume [angstrom^3]:                                     12686.086737
 CELL_REF| Vector a [angstrom    16.869     0.000     0.000   |a| =    16.869000
 CELL_REF| Vector b [angstrom    -8.434    14.609     0.000   |b| =    16.868929
 CELL_REF| Vector c [angstrom     0.000     0.000    51.478   |c| =    51.477900
 CELL_REF| Angle (b,c), alpha [degree]:                                90.000000
 CELL_REF| Angle (a,c), beta  [degree]:                                90.000000
 CELL_REF| Angle (a,b), gamma [degree]:                               120.000140
 CELL_REF| Numerically orthorhombic:                                          NO

 *******************************************************************************
 *******************************************************************************
 **                                                                           **
 **     #####                         ##              ##                      **
 **    ##   ##            ##          ##              ##                      **
 **   ##     ##                       ##            ######                    **
 **   ##     ##  ##   ##  ##   #####  ##  ##   ####   ##    #####    #####    **
 **   ##     ##  ##   ##  ##  ##      ## ##   ##      ##   ##   ##  ##   ##   **
 **   ##  ## ##  ##   ##  ##  ##      ####     ###    ##   ######   ######    **
 **    ##  ###   ##   ##  ##  ##      ## ##      ##   ##   ##       ##        **
 **     #######   #####   ##   #####  ##  ##  ####    ##    #####   ##        **
 **           ##                                                    ##        **
 **                                                                           **
 **                                                ... make the atoms dance   **
 **                                                                           **
 **            Copyright (C) by CP2K developers group (2000-2022)             **
 **                      J. Chem. Phys. 152, 194103 (2020)                    **
 **                                                                           **
 *******************************************************************************

 DFT| Spin restricted Kohn-Sham (RKS) calculation                            RKS
 DFT| Multiplicity                                                             1
 DFT| Number of spin states                                                    1
 DFT| Charge                                                                   0
 DFT| Self-interaction correction (SIC)                                       NO
 DFT| Cutoffs: density                                              1.000000E-10
 DFT|          gradient                                             1.000000E-10
 DFT|          tau                                                  1.000000E-10
 DFT|          cutoff_smoothing_range                               0.000000E+00
 DFT| XC density smoothing                                                  NONE
 DFT| XC derivatives                                                          PW

 FUNCTIONAL| PBE:
 FUNCTIONAL| J.P.Perdew, K.Burke, M.Ernzerhof, Phys. Rev. Letter, vol. 77, n 18,
 FUNCTIONAL|  pp. 3865-3868, (1996){spin unpolarized}                           

 vdW POTENTIAL|                                                   Pair Potential
 vdW POTENTIAL|          DFT-D3 (Version 3.1)
 vdW POTENTIAL|          Potential Form: S. Grimme et al, JCP 132: 154104 (2010)
 vdW POTENTIAL|          Zero Damping
 vdW POTENTIAL|          Cutoff Radius [Bohr]:                             20.00
 vdW POTENTIAL|          s6 Scaling Factor:                               1.0000
 vdW POTENTIAL|          sr6 Scaling Factor:                              1.2170
 vdW POTENTIAL|          s8 Scaling Factor:                               0.7220
 vdW POTENTIAL|          Cutoff for CN calculation:                   0.1000E-05

 QS| Method:                                                                 GPW
 QS| Density plane wave grid type                        NON-SPHERICAL FULLSPACE
 QS| Number of grid levels:                                                    4
 QS| Density cutoff [a.u.]:                                                200.0
 QS| Multi grid cutoff [a.u.]: 1) grid level                               200.0
 QS|                           2) grid level                                66.7
 QS|                           3) grid level                                22.2
 QS|                           4) grid level                                 7.4
 QS| Grid level progression factor:                                          3.0
 QS| Relative density cutoff [a.u.]:                                        20.0
 QS| Interaction thresholds: eps_pgf_orb:                                3.2E-07
 QS|                         eps_filter_matrix:                          0.0E+00
 QS|                         eps_core_charge:                            1.0E-15
 QS|                         eps_rho_gspace:                             1.0E-13
 QS|                         eps_rho_rspace:                             1.0E-13
 QS|                         eps_gvg_rspace:                             3.2E-07
 QS|                         eps_ppl:                                    1.0E-02
 QS|                         eps_ppnl:                                   3.2E-09


 ATOMIC KIND INFORMATION

  1. Atomic kind: Pt                                    Number of atoms:     216

     Orbital Basis Set                      DZVP-A5-Q10-323-MOL-T1-DERIVED_SET-1

       Number of orbital shell sets:                                           1
       Number of orbital shells:                                               6
       Number of primitive Cartesian functions:                                5
       Number of Cartesian basis functions:                                   23
       Number of spherical basis functions:                                   20
       Norm type:                                                              2

       Normalised Cartesian orbitals:

                        Set   Shell   Orbital            Exponent    Coefficient

                          1       1    2s                2.521825       0.177473
                                                         1.453920      -0.063399
                                                         0.614053      -0.407089
                                                         0.232656       0.262254
                                                         0.074788       0.047371

                          1       2    3s                2.521825      -0.049056
                                                         1.453920       0.044904
                                                         0.614053      -0.009756
                                                         0.232656      -0.144709
                                                         0.074788       0.144085

                          1       3    3px               2.521825      -0.317572
                                                         1.453920       0.534826
                                                         0.614053      -0.489458
                                                         0.232656       0.245631
                                                         0.074788       0.018221
                          1       3    3py               2.521825      -0.317572
                                                         1.453920       0.534826
                                                         0.614053      -0.489458
                                                         0.232656       0.245631
                                                         0.074788       0.018221
                          1       3    3pz               2.521825      -0.317572
                                                         1.453920       0.534826
                                                         0.614053      -0.489458
                                                         0.232656       0.245631
                                                         0.074788       0.018221

                          1       4    4dx2              2.521825       3.008522
                                                         1.453920      -1.224251
                                                         0.614053       0.225691
                                                         0.232656       0.125144
                                                         0.074788      -0.015348
                          1       4    4dxy              2.521825       5.210912
                                                         1.453920      -2.120465
                                                         0.614053       0.390909
                                                         0.232656       0.216756
                                                         0.074788      -0.026584
                          1       4    4dxz              2.521825       5.210912
                                                         1.453920      -2.120465
                                                         0.614053       0.390909
                                                         0.232656       0.216756
                                                         0.074788      -0.026584
                          1       4    4dy2              2.521825       3.008522
                                                         1.453920      -1.224251
                                                         0.614053       0.225691
                                                         0.232656       0.125144
                                                         0.074788      -0.015348
                          1       4    4dyz              2.521825       5.210912
                                                         1.453920      -2.120465
                                                         0.614053       0.390909
                                                         0.232656       0.216756
                                                         0.074788      -0.026584
                          1       4    4dz2              2.521825       3.008522
                                                         1.453920      -1.224251
                                                         0.614053       0.225691
                                                         0.232656       0.125144
                                                         0.074788      -0.015348

                          1       5    5dx2              2.521825       0.698026
                                                         1.453920      -1.511486
                                                         0.614053      -0.335394
                                                         0.232656      -0.025564
                                                         0.074788      -0.002699
                          1       5    5dxy              2.521825       1.209017
                                                         1.453920      -2.617970
                                                         0.614053      -0.580920
                                                         0.232656      -0.044277
                                                         0.074788      -0.004674
                          1       5    5dxz              2.521825       1.209017
                                                         1.453920      -2.617970
                                                         0.614053      -0.580920
                                                         0.232656      -0.044277
                                                         0.074788      -0.004674
                          1       5    5dy2              2.521825       0.698026
                                                         1.453920      -1.511486
                                                         0.614053      -0.335394
                                                         0.232656      -0.025564
                                                         0.074788      -0.002699
                          1       5    5dyz              2.521825       1.209017
                                                         1.453920      -2.617970
                                                         0.614053      -0.580920
                                                         0.232656      -0.044277
                                                         0.074788      -0.004674
                          1       5    5dz2              2.521825       0.698026
                                                         1.453920      -1.511486
                                                         0.614053      -0.335394
                                                         0.232656      -0.025564
                                                         0.074788      -0.002699

                          1       6    6dx2              2.521825       0.831079
                                                         1.453920      -0.709226
                                                         0.614053      -0.137351
                                                         0.232656       0.068642
                                                         0.074788       0.011745
                          1       6    6dxy              2.521825       1.439472
                                                         1.453920      -1.228415
                                                         0.614053      -0.237899
                                                         0.232656       0.118891
                                                         0.074788       0.020343
                          1       6    6dxz              2.521825       1.439472
                                                         1.453920      -1.228415
                                                         0.614053      -0.237899
                                                         0.232656       0.118891
                                                         0.074788       0.020343
                          1       6    6dy2              2.521825       0.831079
                                                         1.453920      -0.709226
                                                         0.614053      -0.137351
                                                         0.232656       0.068642
                                                         0.074788       0.011745
                          1       6    6dyz              2.521825       1.439472
                                                         1.453920      -1.228415
                                                         0.614053      -0.237899
                                                         0.232656       0.118891
                                                         0.074788       0.020343
                          1       6    6dz2              2.521825       0.831079
                                                         1.453920      -0.709226
                                                         0.614053      -0.137351
                                                         0.232656       0.068642
                                                         0.074788       0.011745

       Atomic covalent radius [Angstrom]:                                  1.300

       Atomic van der Waals radius [Angstrom]:                             1.750

     GTH Potential information for                                   GTH-PBE-q10

       Description:                       Goedecker-Teter-Hutter pseudopotential
                                           Goedecker et al., PRB 54, 1703 (1996)
                                          Hartwigsen et al., PRB 58, 3641 (1998)
                                                      Krack, TCA 114, 145 (2005)

       Gaussian exponent of the core charge distribution:               1.317676
       Electronic configuration (s p d ...):                           1   0   9

       Parameters of the local part of the GTH pseudopotential:

                          rloc        C1          C2          C3          C4
                        0.616000   11.313635

       Parameters of the non-local part of the GTH pseudopotential:

                   l      r(l)      h(i,j,l)

                   0    0.550904    4.733491   -1.784594
                                   -1.784594    2.303901
                   1    0.674138    2.534798   -1.778066
                                   -1.778066    2.103836
                   2    0.457392   -7.264011    2.558665
                                    2.558665   -2.901253


 MOLECULE KIND INFORMATION


 All atoms are their own molecule, skipping detailed information


 TOTAL NUMBERS AND MAXIMUM NUMBERS

  Total number of            - Atomic kinds:                                   1
                             - Atoms:                                        216
                             - Shell sets:                                   216
                             - Shells:                                      1296
                             - Primitive Cartesian functions:               1080
                             - Cartesian basis functions:                   4968
                             - Spherical basis functions:                   4320

  Maximum angular momentum of- Orbital basis functions:                        2
                             - Local part of the GTH pseudopotential:          0
                             - Non-local part of the GTH pseudopotential:      4


 MODULE QUICKSTEP:  ATOMIC COORDINATES IN angstrom

 Atom  Kind  Element       X           Y           Z          Z(eff)       Mass
    1   1 Pt  78       2.059840    0.414470   19.909932      10.0000    195.0840
    2   1 Pt  78       4.869840    0.404470   19.749936      10.0000    195.0840
    3   1 Pt  78       7.679840    0.334470   19.769932      10.0000    195.0840
    4   1 Pt  78      10.609840    0.364470   20.049935      10.0000    195.0840
    5   1 Pt  78      13.409840    0.334470   20.069932      10.0000    195.0840
    6   1 Pt  78      16.109840    0.344470   20.009930      10.0000    195.0840
    7   1 Pt  78       3.449840    2.854470   19.769932      10.0000    195.0840
    8   1 Pt  78       6.299840    2.844470   19.979935      10.0000    195.0840
    9   1 Pt  78       9.129841    2.674470   20.019932      10.0000    195.0840
   10   1 Pt  78      11.979840    2.884470   20.049935      10.0000    195.0840
   11   1 Pt  78      14.859840    2.894470   19.869931      10.0000    195.0840
   12   1 Pt  78       0.699840    2.854470   19.979935      10.0000    195.0840
   13   1 Pt  78       4.949840    5.234470   19.889935      10.0000    195.0840
   14   1 Pt  78       7.779840    5.184470   20.029935      10.0000    195.0840
   15   1 Pt  78      10.479841    5.204471   20.109933      10.0000    195.0840
   16   1 Pt  78      13.149840    5.334470   19.819935      10.0000    195.0840
   17   1 Pt  78      -0.760160    5.324470   19.899933      10.0000    195.0840
   18   1 Pt  78       2.059840    5.304470   19.979935      10.0000    195.0840
   19   1 Pt  78       6.359841    7.644470   19.939931      10.0000    195.0840
   20   1 Pt  78       9.059840    7.694471   19.949933      10.0000    195.0840
   21   1 Pt  78      11.929840    7.724470   19.829934      10.0000    195.0840
   22   1 Pt  78      -2.120160    7.634470   19.809933      10.0000    195.0840
   23   1 Pt  78       0.629840    7.694471   19.899933      10.0000    195.0840
   24   1 Pt  78       3.649840    7.804471   19.959935      10.0000    195.0840
   25   1 Pt  78       7.709840   10.034470   19.819935      10.0000    195.0840
   26   1 Pt  78      10.439840   10.184470   19.749936      10.0000    195.0840
   27   1 Pt  78      -3.470160   10.224471   19.829934      10.0000    195.0840
   28   1 Pt  78      -0.690160   10.114470   19.949933      10.0000    195.0840
   29   1 Pt  78       2.099840   10.094471   20.039933      10.0000    195.0840
   30   1 Pt  78       4.969840   10.144471   19.799931      10.0000    195.0840
   31   1 Pt  78       9.009841   12.534470   19.849934      10.0000    195.0840
   32   1 Pt  78      -5.030160   12.664471   19.829934      10.0000    195.0840
   33   1 Pt  78      -2.090160   12.614470   19.789933      10.0000    195.0840
   34   1 Pt  78       0.829840   12.504471   19.859933      10.0000    195.0840
   35   1 Pt  78       3.619840   12.584471   19.859933      10.0000    195.0840
   36   1 Pt  78       6.239840   12.454471   19.949933      10.0000    195.0840
   37   1 Pt  78       0.699840    1.294470   22.299931      10.0000    195.0840
   38   1 Pt  78       3.569840    1.174470   22.169934      10.0000    195.0840
   39   1 Pt  78       6.409840    1.134470   22.189934      10.0000    195.0840
   40   1 Pt  78       9.099840    1.014470   22.239934      10.0000    195.0840
   41   1 Pt  78      11.979840    1.164470   22.339932      10.0000    195.0840
   42   1 Pt  78      14.789840    1.344470   22.279931      10.0000    195.0840
   43   1 Pt  78       2.229840    3.654470   22.259934      10.0000    195.0840
   44   1 Pt  78       5.059840    3.654470   22.199933      10.0000    195.0840
   45   1 Pt  78       7.819840    3.624470   22.369931      10.0000    195.0840
   46   1 Pt  78      10.539840    3.524470   22.399933      10.0000    195.0840
   47   1 Pt  78      13.379841    3.724470   22.349934      10.0000    195.0840
   48   1 Pt  78      -0.630160    3.734470   22.169934      10.0000    195.0840
   49   1 Pt  78       3.589840    6.034470   22.239934      10.0000    195.0840
   50   1 Pt  78       6.309840    6.114470   22.229931      10.0000    195.0840
   51   1 Pt  78       9.199840    5.934470   22.299931      10.0000    195.0840
   52   1 Pt  78      12.019841    6.064470   22.239934      10.0000    195.0840
   53   1 Pt  78      -2.120160    6.104470   22.219933      10.0000    195.0840
   54   1 Pt  78       0.829840    6.184471   22.339932      10.0000    195.0840
   55   1 Pt  78       4.939840    8.474470   22.339932      10.0000    195.0840
   56   1 Pt  78       7.749840    8.474470   22.199933      10.0000    195.0840
   57   1 Pt  78      10.619840    8.474470   22.169934      10.0000    195.0840
   58   1 Pt  78      -3.450160    8.614470   22.059933      10.0000    195.0840
   59   1 Pt  78      -0.740160    8.514470   22.279931      10.0000    195.0840
   60   1 Pt  78       2.189840    8.484470   22.289933      10.0000    195.0840
   61   1 Pt  78       6.369840   10.944470   22.219933      10.0000    195.0840
   62   1 Pt  78       9.079840   10.954471   22.149933      10.0000    195.0840
   63   1 Pt  78      -4.920161   11.004471   22.079934      10.0000    195.0840
   64   1 Pt  78      -2.060160   11.074470   22.319935      10.0000    195.0840
   65   1 Pt  78       0.719840   10.864471   22.359933      10.0000    195.0840
   66   1 Pt  78       3.569840   10.904470   22.249936      10.0000    195.0840
   67   1 Pt  78       7.759840   13.464471   22.259934      10.0000    195.0840
   68   1 Pt  78      -6.360160   13.304471   22.129933      10.0000    195.0840
   69   1 Pt  78      -3.410160   13.484470   22.129933      10.0000    195.0840
   70   1 Pt  78      -0.610160   13.314471   22.179932      10.0000    195.0840
   71   1 Pt  78       2.099840   13.254471   22.359933      10.0000    195.0840
   72   1 Pt  78       4.949840   13.274470   22.259934      10.0000    195.0840
   73   1 Pt  78      -7.730160   14.144470   24.579934      10.0000    195.0840
   74   1 Pt  78      -4.930160   14.204471   24.439934      10.0000    195.0840
   75   1 Pt  78      -2.100160   14.084472   24.539933      10.0000    195.0840
   76   1 Pt  78       0.659840   14.044471   24.599934      10.0000    195.0840
   77   1 Pt  78       3.499840   14.134472   24.609933      10.0000    195.0840
   78   1 Pt  78       6.259840   14.194470   24.609933      10.0000    195.0840
   79   1 Pt  78       2.139840    2.014470   24.509934      10.0000    195.0840
   80   1 Pt  78       4.959840    2.034470   24.579934      10.0000    195.0840
   81   1 Pt  78       7.749840    2.004470   24.689931      10.0000    195.0840
   82   1 Pt  78      10.539840    1.854470   24.619931      10.0000    195.0840
   83   1 Pt  78      13.479840    2.014470   24.659932      10.0000    195.0840
   84   1 Pt  78      -0.750160    1.994470   24.559933      10.0000    195.0840
   85   1 Pt  78       3.599840    4.454471   24.549931      10.0000    195.0840
   86   1 Pt  78       6.379840    4.444470   24.619931      10.0000    195.0840
   87   1 Pt  78       9.249840    4.444470   24.639935      10.0000    195.0840
   88   1 Pt  78      11.899840    4.374470   24.589932      10.0000    195.0840
   89   1 Pt  78      -2.080160    4.384470   24.579934      10.0000    195.0840
   90   1 Pt  78       0.739840    4.334470   24.529935      10.0000    195.0840
   91   1 Pt  78       4.909840    6.864471   24.599934      10.0000    195.0840
   92   1 Pt  78       7.739841    6.824470   24.529935      10.0000    195.0840
   93   1 Pt  78      10.559841    7.004471   24.499936      10.0000    195.0840
   94   1 Pt  78      -3.540161    6.854470   24.479931      10.0000    195.0840
   95   1 Pt  78      -0.660160    6.874471   24.589932      10.0000    195.0840
   96   1 Pt  78       2.099840    6.874471   24.569935      10.0000    195.0840
   97   1 Pt  78       6.309840    9.334471   24.609933      10.0000    195.0840
   98   1 Pt  78       9.199840    9.314471   24.469933      10.0000    195.0840
   99   1 Pt  78      -4.850160    9.364470   24.389935      10.0000    195.0840
  100   1 Pt  78      -2.100160    9.214470   24.529935      10.0000    195.0840
  101   1 Pt  78       0.789840    9.194470   24.599934      10.0000    195.0840
  102   1 Pt  78       3.589840    9.304470   24.639935      10.0000    195.0840
  103   1 Pt  78       7.709840   11.734471   24.599934      10.0000    195.0840
  104   1 Pt  78      -6.380161   11.664471   24.399933      10.0000    195.0840
  105   1 Pt  78      -3.550160   11.714470   24.549931      10.0000    195.0840
  106   1 Pt  78      -0.700160   11.564470   24.589932      10.0000    195.0840
  107   1 Pt  78       2.139840   11.664471   24.639935      10.0000    195.0840
  108   1 Pt  78       4.839840   11.764470   24.599934      10.0000    195.0840
  109   1 Pt  78       2.139840    0.344470   26.827931      10.0000    195.0840
  110   1 Pt  78       4.919840    0.324470   26.787932      10.0000    195.0840
  111   1 Pt  78       7.699840    0.324470   26.887932      10.0000    195.0840
  112   1 Pt  78      10.409840    0.284470   26.967931      10.0000    195.0840
  113   1 Pt  78      13.269841    0.294470   26.937932      10.0000    195.0840
  114   1 Pt  78      16.059840    0.324470   26.967931      10.0000    195.0840
  115   1 Pt  78       3.549840    2.774470   26.797932      10.0000    195.0840
  116   1 Pt  78       6.259840    2.854470   26.887932      10.0000    195.0840
  117   1 Pt  78       9.019840    2.834470   26.927932      10.0000    195.0840
  118   1 Pt  78      11.889841    2.724470   26.927932      10.0000    195.0840
  119   1 Pt  78      14.669840    2.764470   26.957931      10.0000    195.0840
  120   1 Pt  78       0.609840    2.674470   26.897932      10.0000    195.0840
  121   1 Pt  78       4.889840    5.204471   26.867932      10.0000    195.0840
  122   1 Pt  78       7.589840    5.264470   26.857931      10.0000    195.0840
  123   1 Pt  78      10.419840    5.254471   26.917932      10.0000    195.0840
  124   1 Pt  78      13.239841    5.194470   26.847932      10.0000    195.0840
  125   1 Pt  78      -0.750160    5.144470   26.917932      10.0000    195.0840
  126   1 Pt  78       2.149840    5.154470   26.767932      10.0000    195.0840
  127   1 Pt  78       6.289840    7.724470   26.877932      10.0000    195.0840
  128   1 Pt  78       9.049841    7.734470   26.897932      10.0000    195.0840
  129   1 Pt  78      11.909840    7.664471   26.827931      10.0000    195.0840
  130   1 Pt  78      -2.140160    7.514471   26.867932      10.0000    195.0840
  131   1 Pt  78       0.679840    7.574470   26.917932      10.0000    195.0840
  132   1 Pt  78       3.519840    7.674471   26.867932      10.0000    195.0840
  133   1 Pt  78       7.709840   10.174471   26.827931      10.0000    195.0840
  134   1 Pt  78      10.529840   10.074471   26.817932      10.0000    195.0840
  135   1 Pt  78      -3.470160   10.054470   26.777932      10.0000    195.0840
  136   1 Pt  78      -0.730160    9.994470   26.957931      10.0000    195.0840
  137   1 Pt  78       2.019840   10.054470   27.057931      10.0000    195.0840
  138   1 Pt  78       4.859840   10.124472   26.887932      10.0000    195.0840
  139   1 Pt  78       9.079840   12.594471   26.857931      10.0000    195.0840
  140   1 Pt  78      -5.010160   12.434471   26.677932      10.0000    195.0840
  141   1 Pt  78      -2.200160   12.404470   26.957931      10.0000    195.0840
  142   1 Pt  78       0.569840   12.394471   26.987932      10.0000    195.0840
  143   1 Pt  78       3.349840   12.564470   26.987932      10.0000    195.0840
  144   1 Pt  78       6.219841   12.534470   27.007932      10.0000    195.0840
  145   1 Pt  78       0.639840    1.224470   29.207932      10.0000    195.0840
  146   1 Pt  78       3.519840    1.224470   29.107932      10.0000    195.0840
  147   1 Pt  78       6.309840    1.264470   29.167932      10.0000    195.0840
  148   1 Pt  78       9.089841    1.234470   29.177932      10.0000    195.0840
  149   1 Pt  78      11.969841    1.134470   29.197931      10.0000    195.0840
  150   1 Pt  78      14.689840    1.044470   29.287932      10.0000    195.0840
  151   1 Pt  78       2.099840    3.534470   29.057932      10.0000    195.0840
  152   1 Pt  78       4.849840    3.614470   29.147932      10.0000    195.0840
  153   1 Pt  78       7.679840    3.684470   29.117932      10.0000    195.0840
  154   1 Pt  78      10.569840    3.544470   29.147932      10.0000    195.0840
  155   1 Pt  78      13.249839    3.454470   29.237932      10.0000    195.0840
  156   1 Pt  78      -0.830160    3.574470   29.057932      10.0000    195.0840
  157   1 Pt  78       3.419840    6.074470   29.177932      10.0000    195.0840
  158   1 Pt  78       6.159840    6.204471   29.267931      10.0000    195.0840
  159   1 Pt  78       8.959840    6.164470   29.187932      10.0000    195.0840
  160   1 Pt  78      11.889841    5.954471   29.157932      10.0000    195.0840
  161   1 Pt  78      -2.210160    5.974470   29.217932      10.0000    195.0840
  162   1 Pt  78       0.639840    5.874471   29.177932      10.0000    195.0840
  163   1 Pt  78       4.859840    8.564470   29.337932      10.0000    195.0840
  164   1 Pt  78       7.699840    8.504471   29.147932      10.0000    195.0840
  165   1 Pt  78      10.499840    8.474470   29.087932      10.0000    195.0840
  166   1 Pt  78      -3.470160    8.354471   29.087932      10.0000    195.0840
  167   1 Pt  78      -0.700160    8.364470   29.217932      10.0000    195.0840
  168   1 Pt  78       2.019840    8.494470   29.237932      10.0000    195.0840
  169   1 Pt  78       6.269840   10.884471   29.267931      10.0000    195.0840
  170   1 Pt  78       8.989840   10.934471   29.067932      10.0000    195.0840
  171   1 Pt  78      -4.950160   10.914471   29.057932      10.0000    195.0840
  172   1 Pt  78      -2.170160   10.944470   29.167932      10.0000    195.0840
  173   1 Pt  78       0.609840   11.014471   29.237932      10.0000    195.0840
  174   1 Pt  78       3.439840   10.814471   29.277932      10.0000    195.0840
  175   1 Pt  78       7.659840   13.384471   29.247931      10.0000    195.0840
  176   1 Pt  78      -6.360160   13.364471   29.147932      10.0000    195.0840
  177   1 Pt  78      -3.460160   13.324470   29.087932      10.0000    195.0840
  178   1 Pt  78      -0.710160   13.454471   29.137932      10.0000    195.0840
  179   1 Pt  78       2.129840   13.384471   29.307932      10.0000    195.0840
  180   1 Pt  78       4.919840   13.224470   29.337932      10.0000    195.0840
  181   1 Pt  78      -7.650160   14.004471   31.627932      10.0000    195.0840
  182   1 Pt  78      -4.900161   14.244470   31.427932      10.0000    195.0840
  183   1 Pt  78      -2.040160   14.164471   31.477932      10.0000    195.0840
  184   1 Pt  78       0.699840   14.274471   31.677932      10.0000    195.0840
  185   1 Pt  78       3.579840   14.324470   31.517932      10.0000    195.0840
  186   1 Pt  78       6.409840   14.154471   31.677932      10.0000    195.0840
  187   1 Pt  78       2.109840    1.814470   31.497932      10.0000    195.0840
  188   1 Pt  78       4.949840    2.054470   31.427932      10.0000    195.0840
  189   1 Pt  78       7.769840    2.064470   31.427932      10.0000    195.0840
  190   1 Pt  78      10.489840    1.994470   31.717932      10.0000    195.0840
  191   1 Pt  78      13.419840    2.054470   31.697932      10.0000    195.0840
  192   1 Pt  78      -0.620160    1.844470   31.507932      10.0000    195.0840
  193   1 Pt  78       3.399840    4.334470   31.567932      10.0000    195.0840
  194   1 Pt  78       6.199840    4.494470   31.557932      10.0000    195.0840
  195   1 Pt  78       9.129841    4.344470   31.407932      10.0000    195.0840
  196   1 Pt  78      11.879841    4.284470   31.567932      10.0000    195.0840
  197   1 Pt  78      -2.160160    4.484470   31.417932      10.0000    195.0840
  198   1 Pt  78       0.689840    4.264470   31.407932      10.0000    195.0840
  199   1 Pt  78       4.619840    6.804470   31.597932      10.0000    195.0840
  200   1 Pt  78       7.769840    6.814470   31.387932      10.0000    195.0840
  201   1 Pt  78      10.559841    6.784470   31.447931      10.0000    195.0840
  202   1 Pt  78      -3.550160    6.734471   31.457932      10.0000    195.0840
  203   1 Pt  78      -0.780160    6.834471   31.727932      10.0000    195.0840
  204   1 Pt  78       1.949840    6.704471   31.637932      10.0000    195.0840
  205   1 Pt  78       6.179840    9.224471   31.667932      10.0000    195.0840
  206   1 Pt  78       9.109840    9.164471   31.387932      10.0000    195.0840
  207   1 Pt  78      -4.840160    9.224471   31.337932      10.0000    195.0840
  208   1 Pt  78      -2.130160    9.294471   31.457932      10.0000    195.0840
  209   1 Pt  78       0.549840    9.294471   31.547932      10.0000    195.0840
  210   1 Pt  78       3.329840    9.344471   31.647932      10.0000    195.0840
  211   1 Pt  78       7.709840   11.704471   31.517932      10.0000    195.0840
  212   1 Pt  78      -6.330160   11.654471   31.407932      10.0000    195.0840
  213   1 Pt  78      -3.500160   11.704471   31.337932      10.0000    195.0840
  214   1 Pt  78      -0.580160   11.874471   31.617932      10.0000    195.0840
  215   1 Pt  78       2.099840   11.864470   31.537931      10.0000    195.0840
  216   1 Pt  78       4.839840   11.864470   31.697932      10.0000    195.0840




 SCF PARAMETERS         Density guess:                                   RESTART
                        --------------------------------------------------------
                        max_scf:                                             500
                        max_scf_history:                                       0
                        max_diis:                                              4
                        --------------------------------------------------------
                        eps_scf:                                        1.00E-06
                        eps_scf_history:                                0.00E+00
                        eps_diis:                                       1.00E-01
                        eps_eigval:                                     1.00E-05
                        --------------------------------------------------------
                        level_shift [a.u.]:                             0.000000
                        added MOs                                       500    0
                        --------------------------------------------------------
                        Mixing method:                            BROYDEN_MIXING
                                                charge density mixing in g-space
                        --------------------------------------------------------
                        Smear method:                                FERMI_DIRAC
                        Electronic temperature [K]:                        300.0
                        Electronic temperature [a.u.]:                  9.50E-04
                        Accuracy threshold:                             1.00E-10
                        --------------------------------------------------------
                        No outer SCF

 PW_GRID| Information for grid number                                          1
 PW_GRID| Grid distributed over                                    32 processors
 PW_GRID| Real space group dimensions                                    32    1
 PW_GRID| the grid is blocked:                                                NO
 PW_GRID| Cutoff [a.u.]                                                    200.0
 PW_GRID| spherical cutoff:                                                   NO
 PW_GRID|   Bounds   1           -105     104                Points:         210
 PW_GRID|   Bounds   2           -105     104                Points:         210
 PW_GRID|   Bounds   3           -315     314                Points:         630
 PW_GRID| Volume element (a.u.^3)  0.3081E-02     Volume (a.u.^3)     85609.9578
 PW_GRID| Grid span                                                    FULLSPACE
 PW_GRID|   Distribution                         Average         Max         Min
 PW_GRID|   G-Vectors                           868218.8      868350      868140
 PW_GRID|   G-Rays                                4134.4        4135        4134
 PW_GRID|   Real Space Points                   868218.8      926100      793800

 PW_GRID| Information for grid number                                          2
 PW_GRID| Number of the reference grid                                         1
 PW_GRID| Grid distributed over                                    32 processors
 PW_GRID| Real space group dimensions                                    32    1
 PW_GRID| the grid is blocked:                                                NO
 PW_GRID| Cutoff [a.u.]                                                     66.7
 PW_GRID| spherical cutoff:                                                   NO
 PW_GRID|   Bounds   1            -60      59                Points:         120
 PW_GRID|   Bounds   2            -60      59                Points:         120
 PW_GRID|   Bounds   3           -180     179                Points:         360
 PW_GRID| Volume element (a.u.^3)  0.1651E-01     Volume (a.u.^3)     85609.9578
 PW_GRID| Grid span                                                    FULLSPACE
 PW_GRID|   Distribution                         Average         Max         Min
 PW_GRID|   G-Vectors                           162000.0      162840      161280
 PW_GRID|   G-Rays                                1350.0        1357        1344
 PW_GRID|   Real Space Points                   162000.0      172800      129600

 PW_GRID| Information for grid number                                          3
 PW_GRID| Number of the reference grid                                         1
 PW_GRID| Grid distributed over                                    32 processors
 PW_GRID| Real space group dimensions                                    32    1
 PW_GRID| the grid is blocked:                                                NO
 PW_GRID| Cutoff [a.u.]                                                     22.2
 PW_GRID| spherical cutoff:                                                   NO
 PW_GRID|   Bounds   1            -35      34                Points:          70
 PW_GRID|   Bounds   2            -35      34                Points:          70
 PW_GRID|   Bounds   3           -105     104                Points:         210
 PW_GRID| Volume element (a.u.^3)  0.8320E-01     Volume (a.u.^3)     85609.9578
 PW_GRID| Grid span                                                    FULLSPACE
 PW_GRID|   Distribution                         Average         Max         Min
 PW_GRID|   G-Vectors                            32156.2       32340       31990
 PW_GRID|   G-Rays                                 459.4         462         457
 PW_GRID|   Real Space Points                    32156.2       44100       29400

 PW_GRID| Information for grid number                                          4
 PW_GRID| Number of the reference grid                                         1
 PW_GRID| Grid distributed over                                    32 processors
 PW_GRID| Real space group dimensions                                    32    1
 PW_GRID| the grid is blocked:                                                NO
 PW_GRID| Cutoff [a.u.]                                                      7.4
 PW_GRID| spherical cutoff:                                                   NO
 PW_GRID|   Bounds   1            -20      19                Points:          40
 PW_GRID|   Bounds   2            -20      19                Points:          40
 PW_GRID|   Bounds   3            -60      59                Points:         120
 PW_GRID| Volume element (a.u.^3)  0.4459         Volume (a.u.^3)     85609.9578
 PW_GRID| Grid span                                                    FULLSPACE
 PW_GRID|   Distribution                         Average         Max         Min
 PW_GRID|   G-Vectors                             6000.0        6120        5920
 PW_GRID|   G-Rays                                 150.0         153         148
 PW_GRID|   Real Space Points                     6000.0        9600        4800

 POISSON| Solver                                          IMPLICIT (GENERALIZED)
 POISSON| Boundary Condition                                PERIODIC & DIRICHLET
 POISSON| Maximum number of iterations                                        30
 POISSON| Convergence threshold                                         1.00E-08
 POISSON| Dielectric Constant                                              80.00
 POISSON| Relaxation parameter                                          1.00E+00

 RS_GRID| Information for grid number                                          1
 RS_GRID|   Bounds   1           -105     104                Points:         210
 RS_GRID|   Bounds   2           -105     104                Points:         210
 RS_GRID|   Bounds   3           -315     314                Points:         630
 RS_GRID| Real space distribution over                                 32 groups
 RS_GRID| Real space distribution along direction                              3
 RS_GRID| Border size                                                         54
 RS_GRID|   Distribution                         Average         Max         Min
 RS_GRID|   Planes                                 127.7         128         127

 RS_GRID| Information for grid number                                          2
 RS_GRID|   Bounds   1            -60      59                Points:         120
 RS_GRID|   Bounds   2            -60      59                Points:         120
 RS_GRID|   Bounds   3           -180     179                Points:         360
 RS_GRID| Real space distribution over                                 32 groups
 RS_GRID| Real space distribution along direction                              3
 RS_GRID| Border size                                                         36
 RS_GRID|   Distribution                         Average         Max         Min
 RS_GRID|   Planes                                  83.2          84          83

 RS_GRID| Information for grid number                                          3
 RS_GRID|   Bounds   1            -35      34                Points:          70
 RS_GRID|   Bounds   2            -35      34                Points:          70
 RS_GRID|   Bounds   3           -105     104                Points:         210
 RS_GRID| Real space fully replicated
 RS_GRID| Group size                                                           1

 RS_GRID| Information for grid number                                          4
 RS_GRID|   Bounds   1            -20      19                Points:          40
 RS_GRID|   Bounds   2            -20      19                Points:          40
 RS_GRID|   Bounds   3            -60      59                Points:         120
 RS_GRID| Real space fully replicated
 RS_GRID| Group size                                                           1

 Number of electrons:                                                       2160
 Number of occupied orbitals:                                               1080
 Number of molecular orbitals:                                              1580

 Number of orbital functions:                                               4320
 Number of independent orbital functions:                                   4320

 Extrapolation method: initial_guess


 SCF WAVEFUNCTION OPTIMIZATION

  Step     Update method      Time    Convergence         Total energy    Change
  ------------------------------------------------------------------------------

  POISSON| IMPLICIT (GENERALIZED) SOLVER ---------------------------------------
  POISSON| Preparing Dirichlet regions ...
  POISSON| Dirichlet region    1
  POISSON|     type : axis-aligned planar
  POISSON|     applied potential :   0.0000E+00  [Eh/e]
  POISSON| Dirichlet region    2
  POISSON|     type : axis-aligned planar
  POISSON|     applied potential :  -0.3675E-01  [Eh/e]
  POISSON| ... Done. 
  ------------------------------------------------------------------------------

  POISSON|   iter        pres error      nabs error        E_hartree    delta E
  POISSON|      1        0.7318E-03      0.3271E-01    1992.1162154896  0.20E+04
  POISSON|      2        0.5269E-15      0.7318E-03    1992.1196963971  0.35E-02
  POISSON| Poisson solver converged in 2 iterations.
     1 NoMix/Diag. 0.30E+00   11.1     0.19569686     -5670.8498688389 -5.67E+03
  POISSON|   iter        pres error      nabs error        E_hartree    delta E
  POISSON|      1        0.7488E-03      0.3250E-01    1992.0046510564 -0.12E+00
  POISSON|      2        0.6207E-15      0.7488E-03    1992.0082127952  0.36E-02
  POISSON| Poisson solver converged in 2 iterations.
     2 Broy./Diag. 0.30E+00   13.2     0.24299806     -5670.8642316694 -1.44E-02
  POISSON|   iter        pres error      nabs error        E_hartree    delta E
  POISSON|      1        0.2931E-04      0.3107E-03    1992.2109752805  0.20E+00
  POISSON|      2        0.7932E-16      0.2931E-04    1992.2108358386 -0.14E-03
  POISSON| Poisson solver converged in 2 iterations.
     3 Broy./Diag. 0.30E+00   13.2     0.10189997     -5675.9167444907 -5.05E+00
  POISSON|   iter        pres error      nabs error        E_hartree    delta E
  POISSON|      1        0.6966E-04      0.2821E-03    1992.2790811692  0.68E-01
  POISSON|      2        0.1594E-16      0.6966E-04    1992.2794125162  0.33E-03
  POISSON| Poisson solver converged in 2 iterations.
     4 Broy./Diag. 0.30E+00   13.3     0.12509598     -5673.1637830107  2.75E+00
  POISSON|   iter        pres error      nabs error        E_hartree    delta E
  POISSON|      1        0.6763E-04      0.2715E-03    1992.3691060671  0.90E-01
  POISSON|      2        0.5741E-16      0.6763E-04    1992.3687843614 -0.32E-03
  POISSON| Poisson solver converged in 2 iterations.
     5 Broy./Diag. 0.30E+00   13.3     0.11919000     -5671.8356961331  1.33E+00
  POISSON|   iter        pres error      nabs error        E_hartree    delta E
  POISSON|      1        0.9674E-05      0.5789E-04    1992.4941576661  0.13E+00
  POISSON|      2        0.9862E-17      0.9674E-05    1992.4942036832  0.46E-04
  POISSON| Poisson solver converged in 2 iterations.
     6 Broy./Diag. 0.30E+00   13.3     0.04492553     -5672.6516931530 -8.16E-01
  POISSON|   iter        pres error      nabs error        E_hartree    delta E
  POISSON|      1        0.2012E-05      0.3453E-04    1992.5854910129  0.91E-01
  POISSON|      2        0.1146E-16      0.2012E-05    1992.5855005820  0.96E-05
  POISSON| Poisson solver converged in 2 iterations.
     7 Broy./Diag. 0.30E+00   13.3     0.02842665     -5672.3881570010  2.64E-01
  POISSON|   iter        pres error      nabs error        E_hartree    delta E
  POISSON|      1        0.1734E-05      0.2240E-04    1992.6614539034  0.76E-01
  POISSON|      2        0.1282E-16      0.1734E-05    1992.6614621509  0.82E-05
  POISSON| Poisson solver converged in 2 iterations.
     8 Broy./Diag. 0.30E+00   13.4     0.02204619     -5672.2931594672  9.50E-02
  POISSON|   iter        pres error      nabs error        E_hartree    delta E
  POISSON|      1        0.9756E-08      0.1127E-04    1992.6977892055  0.36E-01
  POISSON| Poisson solver converged in 1 iteration. 
     9 Broy./Diag. 0.30E+00   12.0     0.01602181     -5672.2958773854 -2.72E-03
  POISSON|   iter        pres error      nabs error        E_hartree    delta E
  POISSON|      1        0.2755E-07      0.6213E-05    1992.7100229252  0.12E-01
  POISSON|      2        0.3229E-17      0.2755E-07    1992.7100227941 -0.13E-06
  POISSON| Poisson solver converged in 2 iterations.
    10 Broy./Diag. 0.30E+00   13.6     0.00694316     -5672.2314934862  6.44E-02
  POISSON|   iter        pres error      nabs error        E_hartree    delta E
  POISSON|      1        0.3171E-06      0.5547E-05    1992.7157099629  0.57E-02
  POISSON|      2        0.4418E-17      0.3171E-06    1992.7157114715  0.15E-05
  POISSON| Poisson solver converged in 2 iterations.
    11 Broy./Diag. 0.30E+00   13.5     0.00355723     -5672.2211352534  1.04E-02
  POISSON|   iter        pres error      nabs error        E_hartree    delta E
  POISSON|      1        0.1496E-06      0.5045E-05    1992.7262045566  0.10E-01
  POISSON|      2        0.0000E+00      0.1496E-06    1992.7262038450 -0.71E-06
  POISSON| Poisson solver converged in 2 iterations.
    12 Broy./Diag. 0.30E+00   13.5     0.00232698     -5672.2470503076 -2.59E-02
  POISSON|   iter        pres error      nabs error        E_hartree    delta E
  POISSON|      1        0.1244E-06      0.3263E-05    1992.7301310258  0.39E-02
  POISSON|      2        0.2218E-17      0.1244E-06    1992.7301316176  0.59E-06
  POISSON| Poisson solver converged in 2 iterations.
    13 Broy./Diag. 0.30E+00   13.6     0.00118779     -5672.2270565977  2.00E-02
  POISSON|   iter        pres error      nabs error        E_hartree    delta E
  POISSON|      1        0.1174E-06      0.1809E-05    1992.7316269567  0.15E-02
  POISSON|      2        0.2199E-17      0.1174E-06    1992.7316263982 -0.56E-06
  POISSON| Poisson solver converged in 2 iterations.
    14 Broy./Diag. 0.30E+00   13.8     0.00087485     -5672.2417975105 -1.47E-02
  POISSON|   iter        pres error      nabs error        E_hartree    delta E
  POISSON|      1        0.7346E-06      0.2993E-05    1992.7326586019  0.10E-02
  POISSON|      2        0.5051E-17      0.7346E-06    1992.7326620963  0.35E-05
  POISSON| Poisson solver converged in 2 iterations.
    15 Broy./Diag. 0.30E+00   13.5     0.00145630     -5672.2389237438  2.87E-03
  POISSON|   iter        pres error      nabs error        E_hartree    delta E
  POISSON|      1        0.7164E-06      0.3309E-05    1992.7324381901 -0.22E-03
  POISSON|      2        0.3778E-17      0.7164E-06    1992.7324347821 -0.34E-05
  POISSON| Poisson solver converged in 2 iterations.
    16 Broy./Diag. 0.30E+00   13.5     0.00167485     -5672.2347363229  4.19E-03
  POISSON|   iter        pres error      nabs error        E_hartree    delta E
  POISSON|      1        0.2430E-06      0.2239E-05    1992.7330482736  0.61E-03
  POISSON|      2        0.4732E-17      0.2430E-06    1992.7330494297  0.12E-05
  POISSON| Poisson solver converged in 2 iterations.
    17 Broy./Diag. 0.30E+00   13.6     0.00077658     -5672.2425200021 -7.78E-03
  POISSON|   iter        pres error      nabs error        E_hartree    delta E
  POISSON|      1        0.6943E-07      0.1314E-05    1992.7336231606  0.57E-03
  POISSON|      2        0.4100E-17      0.6943E-07    1992.7336234909  0.33E-06
  POISSON| Poisson solver converged in 2 iterations.
    18 Broy./Diag. 0.30E+00   13.5     0.00033548     -5672.2451687331 -2.65E-03
  POISSON|   iter        pres error      nabs error        E_hartree    delta E
  POISSON|      1        0.4010E-07      0.9151E-06    1992.7339864224  0.36E-03
  POISSON|      2        0.6132E-17      0.4010E-07    1992.7339866132  0.19E-06
  POISSON| Poisson solver converged in 2 iterations.
    19 Broy./Diag. 0.30E+00   13.5     0.00021074     -5672.2449133908  2.55E-04
  POISSON|   iter        pres error      nabs error        E_hartree    delta E
  POISSON|      1        0.7774E-07      0.1161E-05    1992.7345709501  0.58E-03
  POISSON|      2        0.4561E-17      0.7774E-07    1992.7345713199  0.37E-06
  POISSON| Poisson solver converged in 2 iterations.
    20 Broy./Diag. 0.30E+00   13.5     0.00019349     -5672.2460699689 -1.16E-03
  POISSON|   iter        pres error      nabs error        E_hartree    delta E
  POISSON|      1        0.5489E-07      0.1060E-05    1992.7352520676  0.68E-03
  POISSON|      2        0.4259E-17      0.5489E-07    1992.7352523287  0.26E-06
  POISSON| Poisson solver converged in 2 iterations.
    21 Broy./Diag. 0.30E+00   13.5     0.00018376     -5672.2469043304 -8.34E-04
  POISSON|   iter        pres error      nabs error        E_hartree    delta E
  POISSON|      1        0.8558E-07      0.1211E-05    1992.7356966956  0.44E-03
  POISSON|      2        0.4307E-17      0.8558E-07    1992.7356971027  0.41E-06
  POISSON| Poisson solver converged in 2 iterations.
    22 Broy./Diag. 0.30E+00   13.5     0.00015104     -5672.2445185649  2.39E-03
  POISSON|   iter        pres error      nabs error        E_hartree    delta E
  POISSON|      1        0.3912E-07      0.8234E-06    1992.7361338504  0.44E-03
  POISSON|      2        0.1974E-17      0.3912E-07    1992.7361340365  0.19E-06
  POISSON| Poisson solver converged in 2 iterations.
    23 Broy./Diag. 0.30E+00   13.5     0.00012009     -5672.2476744154 -3.16E-03
  POISSON|   iter        pres error      nabs error        E_hartree    delta E
  POISSON|      1        0.5509E-07      0.8262E-06    1992.7363784057  0.24E-03
  POISSON|      2        0.5025E-17      0.5509E-07    1992.7363786677  0.26E-06
  POISSON| Poisson solver converged in 2 iterations.
    24 Broy./Diag. 0.30E+00   13.5     0.00007259     -5672.2465327874  1.14E-03
  POISSON|   iter        pres error      nabs error        E_hartree    delta E
  POISSON|      1        0.5442E-07      0.6162E-06    1992.7364335435  0.55E-04
  POISSON|      2        0.2793E-17      0.5442E-07    1992.7364332847 -0.26E-06
  POISSON| Poisson solver converged in 2 iterations.
    25 Broy./Diag. 0.30E+00   13.5     0.00018088     -5672.2473608559 -8.28E-04
  POISSON|   iter        pres error      nabs error        E_hartree    delta E
  POISSON|      1        0.1423E-06      0.7425E-06    1992.7366716755  0.24E-03
  POISSON|      2        0.4750E-17      0.1423E-06    1992.7366723524  0.68E-06
  POISSON| Poisson solver converged in 2 iterations.
    26 Broy./Diag. 0.30E+00   13.5     0.00022937     -5672.2477561092 -3.95E-04
  POISSON|   iter        pres error      nabs error        E_hartree    delta E
  POISSON|      1        0.1470E-07      0.9461E-06    1992.7368182548  0.15E-03
  POISSON|      2        0.4424E-17      0.1470E-07    1992.7368183248  0.70E-07
  POISSON| Poisson solver converged in 2 iterations.
    27 Broy./Diag. 0.30E+00   13.5     0.00012518     -5672.2474718967  2.84E-04
  POISSON|   iter        pres error      nabs error        E_hartree    delta E
  POISSON|      1        0.3872E-07      0.5664E-06    1992.7368707063  0.52E-04
  POISSON|      2        0.2048E-17      0.3872E-07    1992.7368708905  0.18E-06
  POISSON| Poisson solver converged in 2 iterations.
    28 Broy./Diag. 0.30E+00   13.5     0.00005875     -5672.2480067940 -5.35E-04
  POISSON|   iter        pres error      nabs error        E_hartree    delta E
  POISSON|      1        0.2684E-07      0.4065E-06    1992.7369138472  0.43E-04
  POISSON|      2        0.3230E-17      0.2684E-07    1992.7369139749  0.13E-06
  POISSON| Poisson solver converged in 2 iterations.
    29 Broy./Diag. 0.30E+00   13.5     0.00004834     -5672.2483774353 -3.71E-04
  POISSON|   iter        pres error      nabs error        E_hartree    delta E
  POISSON|      1        0.2715E-07      0.5032E-06    1992.7369379070  0.24E-04
  POISSON|      2        0.6971E-18      0.2715E-07    1992.7369380361  0.13E-06
  POISSON| Poisson solver converged in 2 iterations.
    30 Broy./Diag. 0.30E+00   13.5     0.00003697     -5672.2484224386 -4.50E-05
  POISSON|   iter        pres error      nabs error        E_hartree    delta E
  POISSON|      1        0.2880E-07      0.4426E-06    1992.7369469850  0.89E-05
  POISSON|      2        0.8312E-19      0.2880E-07    1992.7369471220  0.14E-06
  POISSON| Poisson solver converged in 2 iterations.
    31 Broy./Diag. 0.30E+00   13.5     0.00003392     -5672.2486408547 -2.18E-04
  POISSON|   iter        pres error      nabs error        E_hartree    delta E
  POISSON|      1        0.1313E-07      0.2582E-06    1992.7369719749  0.25E-04
  POISSON|      2        0.1196E-17      0.1313E-07    1992.7369720374  0.62E-07
  POISSON| Poisson solver converged in 2 iterations.
    32 Broy./Diag. 0.30E+00   13.5     0.00003057     -5672.2491100550 -4.69E-04
  POISSON|   iter        pres error      nabs error        E_hartree    delta E
  POISSON|      1        0.2007E-07      0.2757E-06    1992.7369862303  0.14E-04
  POISSON|      2        0.1072E-17      0.2007E-07    1992.7369863258  0.95E-07
  POISSON| Poisson solver converged in 2 iterations.
    33 Broy./Diag. 0.30E+00   13.5     0.00002714     -5672.2486677885  4.42E-04
  POISSON|   iter        pres error      nabs error        E_hartree    delta E
  POISSON|      1        0.1045E-07      0.2111E-06    1992.7370307515  0.44E-04
  POISSON|      2        0.1678E-18      0.1045E-07    1992.7370308012  0.50E-07
  POISSON| Poisson solver converged in 2 iterations.
    34 Broy./Diag. 0.30E+00   13.5     0.00002326     -5672.2490824821 -4.15E-04
  POISSON|   iter        pres error      nabs error        E_hartree    delta E
  POISSON|      1        0.2807E-07      0.3163E-06    1992.7370950782  0.64E-04
  POISSON|      2        0.1918E-18      0.2807E-07    1992.7370952117  0.13E-06
  POISSON| Poisson solver converged in 2 iterations.
    35 Broy./Diag. 0.30E+00   13.6     0.00002481     -5672.2488317220  2.51E-04
  POISSON|   iter        pres error      nabs error        E_hartree    delta E
  POISSON|      1        0.2619E-07      0.1281E-06    1992.7370782729 -0.17E-04
  POISSON|      2        0.3126E-17      0.2619E-07    1992.7370781484 -0.12E-06
  POISSON| Poisson solver converged in 2 iterations.
    36 Broy./Diag. 0.30E+00   13.7     0.00004622     -5672.2488801253 -4.84E-05
  POISSON|   iter        pres error      nabs error        E_hartree    delta E
  POISSON|      1        0.3013E-07      0.2963E-06    1992.7371451378  0.67E-04
  POISSON|      2        0.1931E-17      0.3013E-07    1992.7371452812  0.14E-06
  POISSON| Poisson solver converged in 2 iterations.
    37 Broy./Diag. 0.30E+00   13.6     0.00003675     -5672.2489335185 -5.34E-05
  POISSON|   iter        pres error      nabs error        E_hartree    delta E
  POISSON|      1        0.6129E-08      0.1472E-06    1992.7371801246  0.35E-04
  POISSON| Poisson solver converged in 1 iteration. 
    38 Broy./Diag. 0.30E+00   12.2     0.00001421     -5672.2487851460  1.48E-04
  POISSON|   iter        pres error      nabs error        E_hartree    delta E
  POISSON|      1        0.3487E-08      0.7966E-07    1992.7371947013  0.15E-04
  POISSON| Poisson solver converged in 1 iteration. 
    39 Broy./Diag. 0.30E+00   12.1     0.00001130     -5672.2487933536 -8.21E-06
  POISSON|   iter        pres error      nabs error        E_hartree    delta E
  POISSON|      1        0.6927E-08      0.1092E-06    1992.7372101042  0.15E-04
  POISSON| Poisson solver converged in 1 iteration. 
    40 Broy./Diag. 0.30E+00   12.1     0.00000954     -5672.2487921525  1.20E-06
  POISSON|   iter        pres error      nabs error        E_hartree    delta E
  POISSON|      1        0.4560E-08      0.9604E-07    1992.7372183011  0.82E-05
  POISSON| Poisson solver converged in 1 iteration. 
    41 Broy./Diag. 0.30E+00   12.1     0.00000721     -5672.2487868574  5.30E-06
  POISSON|   iter        pres error      nabs error        E_hartree    delta E
  POISSON|      1        0.5034E-08      0.8154E-07    1992.7372139830 -0.43E-05
  POISSON| Poisson solver converged in 1 iteration. 
    42 Broy./Diag. 0.30E+00   12.1     0.00000589     -5672.2487629417  2.39E-05
  POISSON|   iter        pres error      nabs error        E_hartree    delta E
  POISSON|      1        0.2691E-08      0.6599E-07    1992.7372100171 -0.40E-05
  POISSON| Poisson solver converged in 1 iteration. 
    43 Broy./Diag. 0.30E+00   12.1     0.00000618     -5672.2488578818 -9.49E-05
  POISSON|   iter        pres error      nabs error        E_hartree    delta E
  POISSON|      1        0.4462E-08      0.6921E-07    1992.7371971908 -0.13E-04
  POISSON| Poisson solver converged in 1 iteration. 
    44 Broy./Diag. 0.30E+00   12.1     0.00000453     -5672.2488014593  5.64E-05
  POISSON|   iter        pres error      nabs error        E_hartree    delta E
  POISSON|      1        0.1473E-08      0.5925E-07    1992.7371920819 -0.51E-05
  POISSON| Poisson solver converged in 1 iteration. 
    45 Broy./Diag. 0.30E+00   12.1     0.00000479     -5672.2488785416 -7.71E-05
  POISSON|   iter        pres error      nabs error        E_hartree    delta E
  POISSON|      1        0.4114E-08      0.1676E-07    1992.7371876876 -0.44E-05
  POISSON| Poisson solver converged in 1 iteration. 
    46 Broy./Diag. 0.30E+00   12.1     0.00001023     -5672.2488678434  1.07E-05
  POISSON|   iter        pres error      nabs error        E_hartree    delta E
  POISSON|      1        0.5538E-09      0.4849E-07    1992.7371857509 -0.19E-05
  POISSON| Poisson solver converged in 1 iteration. 
    47 Broy./Diag. 0.30E+00   12.1     0.00000960     -5672.2488466453  2.12E-05
  POISSON|   iter        pres error      nabs error        E_hartree    delta E
  POISSON|      1        0.2869E-08      0.4058E-07    1992.7371868211  0.11E-05
  POISSON| Poisson solver converged in 1 iteration. 
    48 Broy./Diag. 0.30E+00   12.1     0.00000424     -5672.2488882885 -4.16E-05
  POISSON|   iter        pres error      nabs error        E_hartree    delta E
  POISSON|      1        0.1528E-08      0.3176E-07    1992.7371888234  0.20E-05
  POISSON| Poisson solver converged in 1 iteration. 
    49 Broy./Diag. 0.30E+00   12.1     0.00000331     -5672.2488585512  2.97E-05
  POISSON|   iter        pres error      nabs error        E_hartree    delta E
  POISSON|      1        0.1157E-08      0.3220E-07    1992.7371923981  0.36E-05
  POISSON| Poisson solver converged in 1 iteration. 
    50 Broy./Diag. 0.30E+00   12.1     0.00000317     -5672.2488652769 -6.73E-06
  POISSON|   iter        pres error      nabs error        E_hartree    delta E
  POISSON|      1        0.1671E-08      0.2844E-07    1992.7371970293  0.46E-05
  POISSON| Poisson solver converged in 1 iteration. 
    51 Broy./Diag. 0.30E+00   12.2     0.00000255     -5672.2488557619  9.52E-06
  POISSON|   iter        pres error      nabs error        E_hartree    delta E
  POISSON|      1        0.9862E-09      0.2448E-07    1992.7372022571  0.52E-05
  POISSON| Poisson solver converged in 1 iteration. 
    52 Broy./Diag. 0.30E+00   12.1     0.00000174     -5672.2488505884  5.17E-06
  POISSON|   iter        pres error      nabs error        E_hartree    delta E
  POISSON|      1        0.8127E-09      0.1330E-07    1992.7372053378  0.31E-05
  POISSON| Poisson solver converged in 1 iteration. 
    53 Broy./Diag. 0.30E+00   12.1     0.00000144     -5672.2488337887  1.68E-05
  POISSON|   iter        pres error      nabs error        E_hartree    delta E
  POISSON|      1        0.7724E-09      0.2009E-07    1992.7372106419  0.53E-05
  POISSON| Poisson solver converged in 1 iteration. 
    54 Broy./Diag. 0.30E+00   12.2     0.00000118     -5672.2488503379 -1.65E-05
  POISSON|   iter        pres error      nabs error        E_hartree    delta E
  POISSON|      1        0.1079E-08      0.1716E-07    1992.7372129434  0.23E-05
  POISSON| Poisson solver converged in 1 iteration. 
    55 Broy./Diag. 0.30E+00   12.1     0.00000129     -5672.2488354063  1.49E-05
  POISSON|   iter        pres error      nabs error        E_hartree    delta E
  POISSON|      1        0.7656E-09      0.5196E-08    1992.7372139228  0.98E-06
  POISSON| Poisson solver converged in 1 iteration. 
    56 Broy./Diag. 0.30E+00   12.1     0.00000237     -5672.2488432109 -7.80E-06
  POISSON|   iter        pres error      nabs error        E_hartree    delta E
  POISSON|      1        0.1141E-08      0.1154E-07    1992.7372149580  0.10E-05
  POISSON| Poisson solver converged in 1 iteration. 
    57 Broy./Diag. 0.30E+00   12.1     0.00000211     -5672.2488443998 -1.19E-06
  POISSON|   iter        pres error      nabs error        E_hartree    delta E
  POISSON|      1        0.1292E-09      0.1117E-07    1992.7372147759 -0.18E-06
  POISSON| Poisson solver converged in 1 iteration. 
    58 Broy./Diag. 0.30E+00   12.1     0.00000134     -5672.2488445800 -1.80E-07
  POISSON|   iter        pres error      nabs error        E_hartree    delta E
  POISSON|      1        0.4190E-09      0.7223E-08    1992.7372147452 -0.31E-07
  POISSON| Poisson solver converged in 1 iteration. 
    59 Broy./Diag. 0.30E+00   12.1     0.00000100     -5672.2488530269 -8.45E-06

  *** SCF run converged in    59 steps ***


  Electronic density on regular grids:      -2159.9999999992        0.0000000008
  Core density on regular grids:             2159.9999999995       -0.0000000005
  Total charge density on r-space grids:        0.0000000003
  Total charge density g-space grids:           0.0000000003

  Overlap energy of the core charge distribution:               0.00003381814441
  Self energy of the core charge distribution:              -9891.63555570741482
  Core Hamiltonian energy:                                   3202.71160660801206
  Hartree energy:                                            1992.73721474517879
  Electric enthalpy:                                         1992.73021207229749
  Exchange-correlation energy:                               -971.31456552269924
  Dispersion energy:                                           -4.70711388304152
  Electronic entropic energy:                                  -0.03347043676089
  Fermi energy:                                                -0.18978425871429

  Total energy:                                             -5672.24885302685288

 The electron density is written in cube file format to the file:

 cp2k-ELECTRON_DENSITY-1_0.cube

 !-----------------------------------------------------------------------------!
                     Mulliken Population Analysis

 #  Atom  Element  Kind  Atomic population                           Net charge
       1     Pt       1         10.051515                             -0.051515
       2     Pt       1         10.035154                             -0.035154
       3     Pt       1         10.044896                             -0.044896
       4     Pt       1         10.061649                             -0.061649
       5     Pt       1         10.049100                             -0.049100
       6     Pt       1         10.061900                             -0.061900
       7     Pt       1         10.050252                             -0.050252
       8     Pt       1         10.045142                             -0.045142
       9     Pt       1         10.058610                             -0.058610
      10     Pt       1         10.063598                             -0.063598
      11     Pt       1         10.064034                             -0.064034
      12     Pt       1         10.047311                             -0.047311
      13     Pt       1         10.048388                             -0.048388
      14     Pt       1         10.054694                             -0.054694
      15     Pt       1         10.046064                             -0.046064
      16     Pt       1         10.036579                             -0.036579
      17     Pt       1         10.041489                             -0.041489
      18     Pt       1         10.064683                             -0.064683
      19     Pt       1         10.030919                             -0.030919
      20     Pt       1         10.048681                             -0.048681
      21     Pt       1         10.052401                             -0.052401
      22     Pt       1         10.030587                             -0.030587
      23     Pt       1         10.052304                             -0.052304
      24     Pt       1         10.074201                             -0.074201
      25     Pt       1         10.015778                             -0.015778
      26     Pt       1         10.054704                             -0.054704
[...]
    191      1      Pt          0.00411587    -0.01097167    -0.00658233
    192      1      Pt         -0.00855923     0.01192461     0.00483951
    193      1      Pt          0.00381710     0.00396199    -0.00845889
    194      1      Pt          0.00733990    -0.00071998    -0.01149476
    195      1      Pt         -0.00134457     0.01449458     0.00426591
    196      1      Pt          0.00783855     0.01797176    -0.00120844
    197      1      Pt          0.00875904    -0.02472050     0.01362085
    198      1      Pt         -0.01138363     0.00023942     0.00283494
    199      1      Pt          0.01301979     0.00742978     0.00148915
    200      1      Pt         -0.01730853     0.00401052     0.03035004
    201      1      Pt          0.00181653    -0.00241871     0.00021141
    202      1      Pt         -0.01161136     0.01674027     0.00904401
    203      1      Pt          0.00382011     0.00327934    -0.01766281
    204      1      Pt         -0.00471697     0.01241822    -0.01034304
    205      1      Pt          0.00310310     0.00395721    -0.00915953
    206      1      Pt          0.00251730     0.01822860     0.00556235
    207      1      Pt         -0.01330628     0.00115006     0.00118365
    208      1      Pt         -0.00015101     0.00015813    -0.00161112
    209      1      Pt          0.01053421     0.00133819    -0.00045640
    210      1      Pt          0.00455954    -0.00493027    -0.00227364
    211      1      Pt         -0.00009268    -0.01053132     0.00231869
    212      1      Pt          0.00143881    -0.00690279    -0.00432969
    213      1      Pt         -0.00345000     0.00900719     0.01493026
    214      1      Pt         -0.01641218    -0.01023241    -0.00917040
    215      1      Pt          0.00372788    -0.00707531     0.00875939
    216      1      Pt          0.00558905    -0.01610278    -0.00427558
 SUM OF ATOMIC FORCES           0.00000108    -0.00002345     0.00000168     0.00002354

 -------------------------------------------------------------------------------
 -                                                                             -
 -                                DBCSR STATISTICS                             -
 -                                                                             -
 -------------------------------------------------------------------------------
 COUNTER                                    TOTAL       BLAS       SMM       ACC
 flops    20 x    12 x    20            447897600       0.0%    100.0%      0.0%
 flops    20 x    32 x    20          58525286400       0.0%    100.0%      0.0%
 flops    20 x    20 x   204         233310067200       0.0%    100.0%      0.0%
 flops    20 x    20 x   224         256183603200       0.0%    100.0%      0.0%
 flops    20 x    20 x   192        1317515673600       0.0%    100.0%      0.0%
 flops inhomo. stacks                           0       0.0%      0.0%      0.0%
 flops total                         1.865983E+12       0.0%    100.0%      0.0%
 flops max/rank                     59.885773E+09       0.0%    100.0%      0.0%
 matmuls inhomo. stacks                         0       0.0%      0.0%      0.0%
 matmuls total                           13769568       0.0%    100.0%      0.0%
 number of processed stacks                 18048       0.0%    100.0%      0.0%
 average stack size                                     0.0     762.9       0.0
 marketing flops                     2.654875E+12
 -------------------------------------------------------------------------------
 # multiplications                             62
 max memory usage/rank               1.822962E+09
 # max total images/rank                        2
 # max 3D layers                                1
 # MPI messages exchanged                   25792
 MPI messages size (bytes):
  total size                        34.517836E+09
  min size                         829.440000E+03
  max size                           4.665600E+06
  average size                       1.338316E+06
 MPI breakdown and total messages size (bytes):
             size <=      128                   0                        0
       128 < size <=     8192                   0                        0
      8192 < size <=    32768                   0                        0
     32768 < size <=   131072                   0                        0
    131072 < size <=  4194304               25568              33472742400
   4194304 < size <= 16777216                 224               1045094400
  16777216 < size                               0                        0
 -------------------------------------------------------------------------------

 *** WARNING in dbcsr_mm.F:290 :: Using a non-square number of MPI ranks ***
 *** might lead to poor performance. Used ranks: 32 Suggested: 36 64     ***

 -------------------------------------------------------------------------------
 -                                                                             -
 -                      DBCSR MESSAGE PASSING PERFORMANCE                      -
 -                                                                             -
 -------------------------------------------------------------------------------
 ROUTINE             CALLS      AVE VOLUME [Bytes]
 MP_Bcast                6                     12.
 MP_Allreduce          457                      9.
 MP_Alltoall          1717                1274623.
 MP_ISend             1984                 579202.
 MP_IRecv             1984                 562232.
 -------------------------------------------------------------------------------

 -------------------------------------------------------------------------------
 -                                                                             -
 -                                DBM STATISTICS                               -
 -                                                                             -
 -------------------------------------------------------------------------------
    M  x    N  x    K                                          COUNT     PERCENT
 -------------------------------------------------------------------------------

 -------------------------------------------------------------------------------
 -                                                                             -
 -                                GRID STATISTICS                              -
 -                                                                             -
 -------------------------------------------------------------------------------
 LP    KERNEL             BACKEND                              COUNT     PERCENT
 4     collocate general  REF                               20467800      49.97%
 4     integrate general  REF                               20126670      49.13%
 5     integrate general  REF                                 341130       0.83%
 0     collocate general  REF                                  13824       0.03%
 0     integrate general  REF                                   6912       0.02%
 1     integrate general  REF                                   6912       0.02%
 -------------------------------------------------------------------------------

 MEMORY| Estimated peak process memory [MiB]                                2153

 -------------------------------------------------------------------------------
 ----                             MULTIGRID INFO                            ----
 -------------------------------------------------------------------------------
 count for grid        1:          17577          cutoff [a.u.]          200.00
 count for grid        2:         177819          cutoff [a.u.]           66.67
 count for grid        3:         109953          cutoff [a.u.]           22.22
 count for grid        4:         155420          cutoff [a.u.]            7.41
 total gridlevel count  :         460769

 -------------------------------------------------------------------------------
 -                                                                             -
 -                         MESSAGE PASSING PERFORMANCE                         -
 -                                                                             -
 -------------------------------------------------------------------------------

 ROUTINE             CALLS      AVE VOLUME [Bytes]
 MP_Group                4
 MP_Bcast             1762                 165275.
 MP_Allreduce         1594                   1585.
 MP_Sync                65
 MP_Alltoall          3019               49575793.
 MP_SendRecv           124                  14976.
 MP_ISendRecv         7440                 214800.
 MP_Wait             18048
 MP_comm_split           1
 MP_ISend             9512                 715490.
 MP_IRecv             9512                 715490.
 MP_Recv               144                1105920.
 MP_Write_All            3                4213860.
 -------------------------------------------------------------------------------


 -------------------------------------------------------------------------------
 -                                                                             -
 -                           R E F E R E N C E S                               -
 -                                                                             -
 -------------------------------------------------------------------------------
 
 CP2K version 2022.1, the CP2K developers group (2022).
 CP2K is freely available from https://www.cp2k.org/ .

 Kuehne,Thomas D.; Iannuzzi,Marcella; Del Ben,Mauro;
 Rybkin,Vladimir V.; Seewald,Patrick; Stein,Frederick; Laino,Teodoro;
 Khaliullin,Rustam Z.; Schuett,Ole; Schiffmann,Florian; Golze,Dorothea;
 Wilhelm,Jan; Chulkov,Sergey; Bani-Hashemian,Mohammad Hossein;
 Weber,Valery; Borstnik,Urban; Taillefumier,Mathieu;
 Jakobovits,Alice Shoshana; Lazzaro,Alfio; Pabst,Hans; Mueller,Tiziano;
 Schade,Robert; Guidon,Manuel; Andermatt,Samuel; Holmberg,Nico;
 Schenter,Gregory K.; Hehn,Anna; Bussy,Augustin; Belleflamme,Fabian;
 Tabacchi,Gloria; Gloess,Andreas; Lass,Michael; Bethune,Iain;
 Mundy,Christopher J.; Plessl,Christian; Watkins,Matt;
 VandeVondele,Joost; Krack,Matthias; Hutter,Juerg. 
 The Journal of Chemical Physics, 152 (19), (2020). 
 CP2K: An electronic structure and molecular dynamics software package -
 Quickstep: Efficient and accurate electronic structure calculations.
 https://doi.org/10.1063/5.0007045

 Goerigk, Lars; Hansen, Andreas; Bauer, Christoph; Ehrlich, Stephan;
 Najibi, Asim; Grimme, Stefan. , 19 (48), (2017). 
 A look at the density functional theory zoo with the advanced GMTKN55 database
 for general main group thermochemistry, kinetics and noncovalent interactions.
 https://doi.org/10.1039/C7CP04913G

 Bani-Hashemian, MH; Bruck, S; Luisier, M; VandeVondele, J. 
 JOURNAL OF CHEMICAL PHYSICS, 144 (4), 044113 (2016). 
 A generalized Poisson solver for first-principles device simulations.
 https://doi.org/10.1063/1.4940796

 Schuett, Ole; Messmer, Peter; Hutter, Juerg; VandeVondele, Joost. 
 Electronic Structure Calculations on Graphics Processing Units, John
 Wiley & Sons, Ltd, 173-190 (2016). 
 GPU-Accelerated Sparse Matrix-Matrix Multiplication for
 Linear Scaling Density Functional Theory.
 https://doi.org/10.1002/9781118670712.ch8

 Heinecke, A; Henry, G; Hutchinson, M; Pabst, H. 
 Proceedings of Intl. Supercomputing Conference, 981-991 (2016). 
 LIBXSMM: Accelerating Small Matrix Multiplications
 by Runtime Code Generation.
 https://doi.org/10.1109/SC.2016.83

 Borstnik, U; VandeVondele, J; Weber, V; Hutter, J. 
 PARALLEL COMPUTING, 40 (5-6), 47-58 (2014). 
 Sparse matrix multiplication: The distributed block-compressed sparse
 row library.
 https://doi.org/10.1016/j.parco.2014.03.012

 Hutter, J; Iannuzzi, M; Schiffmann, F; VandeVondele, J. 
 WIREs Comput Mol Sci., 4 (1), 15-25 (2014). 
 CP2K: atomistic simulations of condensed matter systems.
 https://doi.org/10.1002/wcms.1159

 Marek, A; Blum, V; Johanni, R; Havu, V; Lang, B; Auckenthaler, T;
 Heinecke, A; Bungartz, H; Lederer, H. 
 Journal of Physics: Condensed Matter, 26 (21), (2014). 
 The ELPA library: scalable parallel eigenvalue solutions for
 electronic structure
 theory and computational science.
 https://doi.org/10.1088/0953-8984/26/21/213201

 Grimme, S; Ehrlich, S; Goerigk, L. 
 JOURNAL OF COMPUTATIONAL CHEMISTRY, 32, 1456 (2011). 
 Effect of the damping function in dispersion corrected density functional theory.
 https://doi.org/10.1002/jcc.21759

 Grimme, S; Antony, J; Ehrlich, S; Krieg, H. 
 JOURNAL OF CHEMICAL PHYSICS, 132 (15), 154104 (2010). 
 A consistent and accurate ab initio parametrization of density
 functional dispersion correction (DFT-D) for the 94 elements H-Pu.
 https://doi.org/10.1063/1.3382344

 VandeVondele, J; Hutter, J. 
 JOURNAL OF CHEMICAL PHYSICS, 127 (11), 114105 (2007). 
 Gaussian basis sets for accurate calculations on molecular systems in
 gas and condensed phases.
 https://doi.org/10.1063/1.2770708

 Krack, M. 
 THEORETICAL CHEMISTRY ACCOUNTS, 114 (1-3), 145-152 (2005). 
 Pseudopotentials for H to Kr optimized for gradient-corrected
 exchange-correlation functionals.
 https://doi.org/10.1007/s00214-005-0655-y

 VandeVondele, J; Krack, M; Mohamed, F; Parrinello, M; Chassaing, T;
 Hutter, J. COMPUTER PHYSICS COMMUNICATIONS, 167 (2), 103-128 (2005). 
 QUICKSTEP: Fast and accurate density functional calculations using a
 mixed Gaussian and plane waves approach.
 https://doi.org/10.1016/j.cpc.2004.12.014

 Frigo, M; Johnson, SG. 
 PROCEEDINGS OF THE IEEE, 93 (2), 216-231 (2005). 
 The design and implementation of FFTW3.
 https://doi.org/10.1109/JPROC.2004.840301

 Hartwigsen, C; Goedecker, S; Hutter, J. 
 PHYSICAL REVIEW B, 58 (7), 3641-3662 (1998). 
 Relativistic separable dual-space Gaussian pseudopotentials from H to Rn.
 https://doi.org/10.1103/PhysRevB.58.3641

 Lippert, G; Hutter, J; Parrinello, M. 
 MOLECULAR PHYSICS, 92 (3), 477-487 (1997). 
 A hybrid Gaussian and plane wave density functional scheme.
 https://doi.org/10.1080/002689797170220

 Perdew, JP; Burke, K; Ernzerhof, M. 
 PHYSICAL REVIEW LETTERS, 77 (18), 3865-3868 (1996). 
 Generalized gradient approximation made simple.
 https://doi.org/10.1103/PhysRevLett.77.3865

 Goedecker, S; Teter, M; Hutter, J. 
 PHYSICAL REVIEW B, 54 (3), 1703-1710 (1996). 
 Separable dual-space Gaussian pseudopotentials.
 https://doi.org/10.1103/PhysRevB.54.1703


 -------------------------------------------------------------------------------
 -                                                                             -
 -                                T I M I N G                                  -
 -                                                                             -
 -------------------------------------------------------------------------------
 SUBROUTINE                       CALLS  ASD         SELF TIME        TOTAL TIME
                                MAXIMUM       AVERAGE  MAXIMUM  AVERAGE  MAXIMUM
 CP2K                                 1  1.0    0.019    0.043  786.906  786.907
 qs_forces                            1  2.0    0.001    0.001  786.490  786.491
 qs_energies                          1  3.0    0.000    0.000  773.600  773.604
 scf_env_do_scf                       1  4.0    0.000    0.001  765.245  765.332
 scf_env_do_scf_inner_loop           59  5.0    0.003    0.005  765.242  765.329
 rebuild_ks_matrix                   60  7.0    0.000    0.000  492.413  492.449
 qs_ks_build_kohn_sham_matrix        60  8.0    0.009    0.010  492.413  492.448
 qs_ks_update_qs_env                 59  6.0    0.000    0.001  483.974  484.010
 pw_transfer                       2884 12.2    0.222    0.346  278.544  281.075
 fft_wrap_pw1pw2                   2884 13.2    0.031    0.039  278.322  280.729
 fft_wrap_pw1pw2_200               2524 14.4   23.712   26.652  275.654  278.030
 pw_poisson_solve                    60  8.9    0.018    0.026  242.345  242.417
 implicit_poisson_solver_mixed_      60  9.9    6.540    7.081  228.610  228.739
 fft3d_ps                          2884 15.2  118.608  127.744  207.268  210.615
 qs_rho_update_rho_low               60  6.0    0.000    0.001  181.852  181.862
 calculate_rho_elec                  60  7.0    0.328    0.362  181.852  181.862
 sum_up_and_integrate                60  8.9    0.934    1.006  171.290  171.346
 integrate_v_rspace                  60  9.9    0.002    0.002  170.356  170.471
 derive_fft                         312 12.2    0.022    0.027  161.190  162.353
 grid_collocate_task_list            60  8.0   80.568  157.184   80.568  157.184
 grid_integrate_task_list            60 10.9   74.775  146.323   74.775  146.323
 apply_P_operator                   252 11.2    2.354    2.685  132.703  133.627
 rs_pw_transfer                     484 10.5    0.006    0.008  100.589  125.822
 density_rs2pw                       60  8.0    0.004    0.004   99.714  125.216
 mp_waitany                        9512 12.4   83.811  108.838   83.811  108.838
 rs_pw_transfer_RS2PW_200            62 10.0    3.480    4.128   82.356  107.574
 mp_alltoall_d11v                   856 10.3   73.546   97.217   73.546   97.217
 rs_gather_matrices                  60 10.9    0.216    0.247   72.475   96.005
 qs_scf_new_mos                      59  6.0    0.006    0.009   74.055   74.141
 qs_vxc_create                       60  8.9    0.002    0.002   70.853   71.675
 xc_vxc_pw_create                    60  9.9    1.608    2.009   70.851   71.673
 eigensolver                         59  7.0    0.005    0.008   66.727   66.793
 x_to_yz                           1813 16.3   39.669   45.283   60.854   63.939
 mp_alltoall_z22v                  2884 17.2   37.685   57.059   37.685   57.059
 xc_pw_derive                       360 11.9    0.006    0.007   47.779   50.508
 apply_poisson_operator_fft          60 10.9    0.001    0.001   45.454   45.695
 cp_fm_diag_elpa                     60  8.0    0.001    0.001   42.226   42.354
 cp_fm_diag_elpa_base                60  9.0   41.328   41.449   42.120   42.202
 yz_to_x                           1071 15.8   11.238   11.973   27.737   39.248
 xc_rho_set_and_dset_create          60 10.9    0.691    0.838   36.865   37.740
 apply_inv_laplace_operator_fft     158 11.6    1.316    1.390   34.884   35.920
 pw_scatter_p                      1813 15.3   30.835   34.826   30.835   34.826
 xc_pw_divergence                    60 10.9    0.003    0.004   31.435   33.149
 ps_implicit_compute_veps            60 10.9    0.725    0.861   31.572   32.228
 gspace_mixing                       58  6.0    0.317    0.341   27.994   27.994
 pw_derive                         1296 13.1   24.667   26.124   24.667   26.124
 ps_implicit_compute_error_fft       96 11.0    1.785    1.909   23.732   25.349
 cp_fm_triangular_multiply          177  8.0   23.787   24.012   23.787   24.012
 potential_pw2rs                     60 10.9    0.048    0.054   23.092   23.192
 broyden_mixing                      58  7.0   20.467   20.791   20.940   21.018
 pw_gather_p                       1071 14.8   16.206   16.907   16.206   16.907
 -------------------------------------------------------------------------------

 The number of warnings for this run is : 1
 
 -------------------------------------------------------------------------------
  **** **** ******  **  PROGRAM ENDED AT                 2023-12-03 07:01:25.601
 ***** ** ***  *** **   PROGRAM RAN ON                                     cu042
 **    ****   ******    PROGRAM RAN BY                                     jxzhu
 ***** **    ** ** **   PROGRAM PROCESS ID                                 53893
  **** **  *******  **  PROGRAM STOPPED IN /public/home/jxzhu/tmp_calc/04c0855f9
                                           8753fac23fde4df51ba20f3741a9e9a/calc/
                                           task.000.000022
