 DBCSR| CPU Multiplication driver                                           XSMM
 DBCSR| Multrec recursion limit                                              512
 DBCSR| Multiplication stack size                                           1000
 DBCSR| Maximum elements for images                                    UNLIMITED
 DBCSR| Multiplicative factor virtual images                                   1
 DBCSR| Use multiplication densification                                       T
 DBCSR| Multiplication size stacks                                             3
 DBCSR| Use memory pool for CPU allocation                                     F
 DBCSR| Number of 3D layers                                               SINGLE
 DBCSR| Use MPI memory allocation                                              F
 DBCSR| Use RMA algorithm                                                      F
 DBCSR| Use Communication thread                                               T
 DBCSR| Communication thread load                                             87
 DBCSR| MPI: My node id                                                        0
 DBCSR| MPI: Number of nodes                                                 128
 DBCSR| OMP: Current number of threads                                         1
 DBCSR| OMP: Max number of threads                                             1
 DBCSR| Split modifier for TAS multiplication algorithm                  1.0E+00


  **** **** ******  **  PROGRAM STARTED AT               2023-12-03 03:41:40.166
 ***** ** ***  *** **   PROGRAM STARTED ON                                 cu001
 **    ****   ******    PROGRAM STARTED BY                                 jxzhu
 ***** **    ** ** **   PROGRAM PROCESS ID                                 62324
  **** **  *******  **  PROGRAM STARTED IN /public/home/jxzhu/tmp_calc/84ed6c30c
                                           20967eb80f6f397f5ab5ecb6e8bdd2f/calc/
                                           002600.000/search_lo.000000

 CP2K| version string:                                       CP2K version 2022.1
 CP2K| source code revision number:                                  git:2caeb6f
 CP2K| cp2kflags: omp libint fftw3 libxc elpa parallel mpi3 scalapack cosma xsmm
 CP2K|             plumed2 spglib mkl sirius libvori libbqb
 CP2K| is freely available from                            https://www.cp2k.org/
 CP2K| Program compiled at                           Mon Jul 3 17:37:06 CST 2023
 CP2K| Program compiled on                                                 mu003
 CP2K| Program compiled for                                                local
 CP2K| Data directory path                             /public/home/jxzhu/basis/
 CP2K| Input file name                                                 input.inp
 
 GLOBAL| Force Environment number                                              1
 GLOBAL| Basis set file name                                        BASIS_MOLOPT
 GLOBAL| Potential file name                                      GTH_POTENTIALS
 GLOBAL| MM Potential file name                                     MM_POTENTIAL
 GLOBAL| Coordinate file name                                          coord.xyz
 GLOBAL| Method name                                                        CP2K
 GLOBAL| Project name                                                       cp2k
 GLOBAL| Run type                                                   ENERGY_FORCE
 GLOBAL| FFT library                                                       FFTW3
 GLOBAL| Diagonalization library                                            ELPA
 GLOBAL| Minimum number of eigenvectors for ELPA usage                        16
 GLOBAL| Orthonormality check for eigenvectors                          DISABLED
 GLOBAL| Matrix multiplication library                                     COSMA
 GLOBAL| All-to-all communication in single precision                          F
 GLOBAL| FFTs using library dependent lengths                                  T
 GLOBAL| Grid backend                                                       AUTO
 GLOBAL| Global print level                                               MEDIUM
 GLOBAL| MPI I/O enabled                                                       T
 GLOBAL| Total number of message passing processes                           128
 GLOBAL| Number of threads for this process                                    1
 GLOBAL| This output is from process                                           0
 GLOBAL| Stack size for threads created by OpenMP (OMP_STACKSIZE)        default
 GLOBAL| CPU model name                 Intel(R) Xeon(R) Gold 6338 CPU @ 2.00GHz
 GLOBAL| CPUID                                                              1003

 MEMORY| system memory details [Kb]
 MEMORY|                        rank 0           min           max       average
 MEMORY| MemTotal            263619172     263619172     263619172     263619172
 MEMORY| MemFree             218609252     215907964     218612956     217258707
 MEMORY| Buffers                    20            20            36            28
 MEMORY| Cached                1670088        671088       1670088       1170588
 MEMORY| Slab                  1416744       1416744       1425024       1420884
 MEMORY| SReclaimable           242604        231176        242604        236890
 MEMORY| MemLikelyFree       220521964     216810264     220525668     218666213


 *** Fundamental physical constants (SI units) ***

 *** Literature: B. J. Mohr and B. N. Taylor,
 ***             CODATA recommended values of the fundamental physical
 ***             constants: 2006, Web Version 5.1
 ***             http://physics.nist.gov/constants

 Speed of light in vacuum [m/s]                             2.99792458000000E+08
 Magnetic constant or permeability of vacuum [N/A**2]       1.25663706143592E-06
 Electric constant or permittivity of vacuum [F/m]          8.85418781762039E-12
 Planck constant (h) [J*s]                                  6.62606896000000E-34
 Planck constant (h-bar) [J*s]                              1.05457162825177E-34
 Elementary charge [C]                                      1.60217648700000E-19
 Electron mass [kg]                                         9.10938215000000E-31
 Electron g factor [ ]                                     -2.00231930436220E+00
 Proton mass [kg]                                           1.67262163700000E-27
 Fine-structure constant                                    7.29735253760000E-03
 Rydberg constant [1/m]                                     1.09737315685270E+07
 Avogadro constant [1/mol]                                  6.02214179000000E+23
 Boltzmann constant [J/K]                                   1.38065040000000E-23
 Atomic mass unit [kg]                                      1.66053878200000E-27
 Bohr radius [m]                                            5.29177208590000E-11

 *** Conversion factors ***

 [u] -> [a.u.]                                              1.82288848426455E+03
 [Angstrom] -> [Bohr] = [a.u.]                              1.88972613288564E+00
 [a.u.] = [Bohr] -> [Angstrom]                              5.29177208590000E-01
 [a.u.] -> [s]                                              2.41888432650478E-17
 [a.u.] -> [fs]                                             2.41888432650478E-02
 [a.u.] -> [J]                                              4.35974393937059E-18
 [a.u.] -> [N]                                              8.23872205491840E-08
 [a.u.] -> [K]                                              3.15774647902944E+05
 [a.u.] -> [kJ/mol]                                         2.62549961709828E+03
 [a.u.] -> [kcal/mol]                                       6.27509468713739E+02
 [a.u.] -> [Pa]                                             2.94210107994716E+13
 [a.u.] -> [bar]                                            2.94210107994716E+08
 [a.u.] -> [atm]                                            2.90362800883016E+08
 [a.u.] -> [eV]                                             2.72113838565563E+01
 [a.u.] -> [Hz]                                             6.57968392072181E+15
 [a.u.] -> [1/cm] (wave numbers)                            2.19474631370540E+05
 [a.u./Bohr**2] -> [1/cm]                                   5.14048714338585E+03
 

 CELL_TOP| Volume [angstrom^3]:                                     17614.982639
 CELL_TOP| Vector a [angstrom    16.869     0.000     0.000   |a| =    16.869000
 CELL_TOP| Vector b [angstrom    -8.434    14.609     0.000   |b| =    16.869015
 CELL_TOP| Vector c [angstrom     0.000     0.000    71.478   |c| =    71.478000
 CELL_TOP| Angle (b,c), alpha [degree]:                                90.000000
 CELL_TOP| Angle (a,c), beta  [degree]:                                90.000000
 CELL_TOP| Angle (a,b), gamma [degree]:                               119.999970
 CELL_TOP| Numerically orthorhombic:                                          NO
 
 GENERATE|  Preliminary Number of Bonds generated:                             0
 GENERATE|  Achieved consistency in connectivity generation.

 CELL| Volume [angstrom^3]:                                         17614.982639
 CELL| Vector a [angstrom]:      16.869     0.000     0.000   |a| =    16.869000
 CELL| Vector b [angstrom]:      -8.434    14.609     0.000   |b| =    16.869015
 CELL| Vector c [angstrom]:       0.000     0.000    71.478   |c| =    71.478000
 CELL| Angle (b,c), alpha [degree]:                                    90.000000
 CELL| Angle (a,c), beta  [degree]:                                    90.000000
 CELL| Angle (a,b), gamma [degree]:                                   119.999970
 CELL| Numerically orthorhombic:                                              NO

 CELL_REF| Volume [angstrom^3]:                                     17614.982639
 CELL_REF| Vector a [angstrom    16.869     0.000     0.000   |a| =    16.869000
 CELL_REF| Vector b [angstrom    -8.434    14.609     0.000   |b| =    16.869015
 CELL_REF| Vector c [angstrom     0.000     0.000    71.478   |c| =    71.478000
 CELL_REF| Angle (b,c), alpha [degree]:                                90.000000
 CELL_REF| Angle (a,c), beta  [degree]:                                90.000000
 CELL_REF| Angle (a,b), gamma [degree]:                               119.999970
 CELL_REF| Numerically orthorhombic:                                          NO

 *******************************************************************************
 *******************************************************************************
 **                                                                           **
 **     #####                         ##              ##                      **
 **    ##   ##            ##          ##              ##                      **
 **   ##     ##                       ##            ######                    **
 **   ##     ##  ##   ##  ##   #####  ##  ##   ####   ##    #####    #####    **
 **   ##     ##  ##   ##  ##  ##      ## ##   ##      ##   ##   ##  ##   ##   **
 **   ##  ## ##  ##   ##  ##  ##      ####     ###    ##   ######   ######    **
 **    ##  ###   ##   ##  ##  ##      ## ##      ##   ##   ##       ##        **
 **     #######   #####   ##   #####  ##  ##  ####    ##    #####   ##        **
 **           ##                                                    ##        **
 **                                                                           **
 **                                                ... make the atoms dance   **
 **                                                                           **
 **            Copyright (C) by CP2K developers group (2000-2022)             **
 **                      J. Chem. Phys. 152, 194103 (2020)                    **
 **                                                                           **
 *******************************************************************************

 DFT| Spin restricted Kohn-Sham (RKS) calculation                            RKS
 DFT| Multiplicity                                                             1
 DFT| Number of spin states                                                    1
 DFT| Charge                                                                   0
 DFT| Self-interaction correction (SIC)                                       NO
 DFT| Cutoffs: density                                              1.000000E-10
 DFT|          gradient                                             1.000000E-10
 DFT|          tau                                                  1.000000E-10
 DFT|          cutoff_smoothing_range                               0.000000E+00
 DFT| XC density smoothing                                                  NONE
 DFT| XC derivatives                                                          PW

 FUNCTIONAL| PBE:
 FUNCTIONAL| J.P.Perdew, K.Burke, M.Ernzerhof, Phys. Rev. Letter, vol. 77, n 18,
 FUNCTIONAL|  pp. 3865-3868, (1996){spin unpolarized}                           

 vdW POTENTIAL|                                                   Pair Potential
 vdW POTENTIAL|          DFT-D3 (Version 3.1)
 vdW POTENTIAL|          Potential Form: S. Grimme et al, JCP 132: 154104 (2010)
 vdW POTENTIAL|          Zero Damping
 vdW POTENTIAL|          Cutoff Radius [Bohr]:                             20.00
 vdW POTENTIAL|          s6 Scaling Factor:                               1.0000
 vdW POTENTIAL|          sr6 Scaling Factor:                              1.2170
 vdW POTENTIAL|          s8 Scaling Factor:                               0.7220
 vdW POTENTIAL|          Cutoff for CN calculation:                   0.1000E-05

 QS| Method:                                                                 GPW
 QS| Density plane wave grid type                        NON-SPHERICAL FULLSPACE
 QS| Number of grid levels:                                                    4
 QS| Density cutoff [a.u.]:                                                200.0
 QS| Multi grid cutoff [a.u.]: 1) grid level                               200.0
 QS|                           2) grid level                                66.7
 QS|                           3) grid level                                22.2
 QS|                           4) grid level                                 7.4
 QS| Grid level progression factor:                                          3.0
 QS| Relative density cutoff [a.u.]:                                        20.0
 QS| Interaction thresholds: eps_pgf_orb:                                3.2E-07
 QS|                         eps_filter_matrix:                          0.0E+00
 QS|                         eps_core_charge:                            1.0E-15
 QS|                         eps_rho_gspace:                             1.0E-13
 QS|                         eps_rho_rspace:                             1.0E-13
 QS|                         eps_gvg_rspace:                             3.2E-07
 QS|                         eps_ppl:                                    1.0E-02
 QS|                         eps_ppnl:                                   3.2E-09


 ATOMIC KIND INFORMATION

  1. Atomic kind: O                                     Number of atoms:      99

     Orbital Basis Set                                        DZVP-MOLOPT-SR-GTH

       Number of orbital shell sets:                                           1
       Number of orbital shells:                                               5
       Number of primitive Cartesian functions:                                5
       Number of Cartesian basis functions:                                   14
       Number of spherical basis functions:                                   13
       Norm type:                                                              2

       Normalised Cartesian orbitals:

                        Set   Shell   Orbital            Exponent    Coefficient

                          1       1    2s               10.389228       0.396646
                                                         3.849621       0.208811
                                                         1.388401      -0.301641
                                                         0.496955      -0.274061
                                                         0.162492      -0.033677

                          1       2    3s               10.389228       0.303673
                                                         3.849621       0.240943
                                                         1.388401      -0.313066
                                                         0.496955      -0.043055
                                                         0.162492       0.213991

                          1       3    3px              10.389228      -1.530415
                                                         3.849621      -1.371928
                                                         1.388401      -0.761951
                                                         0.496955      -0.253695
                                                         0.162492      -0.035541
                          1       3    3py              10.389228      -1.530415
                                                         3.849621      -1.371928
                                                         1.388401      -0.761951
                                                         0.496955      -0.253695
                                                         0.162492      -0.035541
                          1       3    3pz              10.389228      -1.530415
                                                         3.849621      -1.371928
                                                         1.388401      -0.761951
                                                         0.496955      -0.253695
                                                         0.162492      -0.035541

                          1       4    4px              10.389228      -0.565392
                                                         3.849621      -0.038231
                                                         1.388401      -0.382373
                                                         0.496955       0.179070
                                                         0.162492       0.122714
                          1       4    4py              10.389228      -0.565392
                                                         3.849621      -0.038231
                                                         1.388401      -0.382373
                                                         0.496955       0.179070
                                                         0.162492       0.122714
                          1       4    4pz              10.389228      -0.565392
                                                         3.849621      -0.038231
                                                         1.388401      -0.382373
                                                         0.496955       0.179070
                                                         0.162492       0.122714

                          1       5    4dx2             10.389228       1.867377
                                                         3.849621       0.670994
                                                         1.388401       1.353441
                                                         0.496955       0.273538
                                                         0.162492       0.006620
                          1       5    4dxy             10.389228       3.234392
                                                         3.849621       1.162195
                                                         1.388401       2.344229
                                                         0.496955       0.473781
                                                         0.162492       0.011466
                          1       5    4dxz             10.389228       3.234392
                                                         3.849621       1.162195
                                                         1.388401       2.344229
                                                         0.496955       0.473781
                                                         0.162492       0.011466
                          1       5    4dy2             10.389228       1.867377
                                                         3.849621       0.670994
                                                         1.388401       1.353441
                                                         0.496955       0.273538
                                                         0.162492       0.006620
                          1       5    4dyz             10.389228       3.234392
                                                         3.849621       1.162195
                                                         1.388401       2.344229
                                                         0.496955       0.473781
                                                         0.162492       0.011466
                          1       5    4dz2             10.389228       1.867377
                                                         3.849621       0.670994
                                                         1.388401       1.353441
                                                         0.496955       0.273538
                                                         0.162492       0.006620

       Atomic covalent radius [Angstrom]:                                  0.730

       Atomic van der Waals radius [Angstrom]:                             1.520

     GTH Potential information for                                    GTH-PBE-q6

       Description:                       Goedecker-Teter-Hutter pseudopotential
                                           Goedecker et al., PRB 54, 1703 (1996)
                                          Hartwigsen et al., PRB 58, 3641 (1998)
                                                      Krack, TCA 114, 145 (2005)

       Gaussian exponent of the core charge distribution:               8.360253
       Electronic configuration (s p d ...):                               2   4

       Parameters of the local part of the GTH pseudopotential:

                          rloc        C1          C2          C3          C4
                        0.244554  -16.667215    2.487311

       Parameters of the non-local part of the GTH pseudopotential:

                   l      r(l)      h(i,j,l)

                   0    0.220956   18.337458
                   1    0.211332

  2. Atomic kind: H                                     Number of atoms:     198

     Orbital Basis Set                                        DZVP-MOLOPT-SR-GTH

       Number of orbital shell sets:                                           1
       Number of orbital shells:                                               3
       Number of primitive Cartesian functions:                                5
       Number of Cartesian basis functions:                                    5
       Number of spherical basis functions:                                    5
       Norm type:                                                              2

       Normalised Cartesian orbitals:

                        Set   Shell   Orbital            Exponent    Coefficient

                          1       1    2s               10.068468      -0.133023
                                                         2.680223      -0.177618
                                                         0.791502      -0.258419
                                                         0.239116      -0.107525
                                                         0.082193      -0.014019

                          1       2    3s               10.068468       0.344673
                                                         2.680223       1.819821
                                                         0.791502      -0.999069
                                                         0.239116       0.017430
                                                         0.082193       0.082660

                          1       3    3px              10.068468       0.155326
                                                         2.680223       0.367157
                                                         0.791502       0.311480
                                                         0.239116       0.080105
                                                         0.082193       0.033440
                          1       3    3py              10.068468       0.155326
                                                         2.680223       0.367157
                                                         0.791502       0.311480
                                                         0.239116       0.080105
                                                         0.082193       0.033440
                          1       3    3pz              10.068468       0.155326
                                                         2.680223       0.367157
                                                         0.791502       0.311480
                                                         0.239116       0.080105
                                                         0.082193       0.033440

       Atomic covalent radius [Angstrom]:                                  0.320

       Atomic van der Waals radius [Angstrom]:                             1.090

     GTH Potential information for                                    GTH-PBE-q1

       Description:                       Goedecker-Teter-Hutter pseudopotential
                                           Goedecker et al., PRB 54, 1703 (1996)
                                          Hartwigsen et al., PRB 58, 3641 (1998)
                                                      Krack, TCA 114, 145 (2005)

       Gaussian exponent of the core charge distribution:              12.500000
       Electronic configuration (s p d ...):                                   1

       Parameters of the local part of the GTH pseudopotential:

                          rloc        C1          C2          C3          C4
                        0.200000   -4.178900    0.724463

  3. Atomic kind: Pt                                    Number of atoms:     216

     Orbital Basis Set                      DZVP-A5-Q10-323-MOL-T1-DERIVED_SET-1

       Number of orbital shell sets:                                           1
       Number of orbital shells:                                               6
       Number of primitive Cartesian functions:                                5
       Number of Cartesian basis functions:                                   23
       Number of spherical basis functions:                                   20
       Norm type:                                                              2

       Normalised Cartesian orbitals:

                        Set   Shell   Orbital            Exponent    Coefficient

                          1       1    2s                2.521825       0.177473
                                                         1.453920      -0.063399
                                                         0.614053      -0.407089
                                                         0.232656       0.262254
                                                         0.074788       0.047371

                          1       2    3s                2.521825      -0.049056
                                                         1.453920       0.044904
                                                         0.614053      -0.009756
                                                         0.232656      -0.144709
                                                         0.074788       0.144085

                          1       3    3px               2.521825      -0.317572
                                                         1.453920       0.534826
                                                         0.614053      -0.489458
                                                         0.232656       0.245631
                                                         0.074788       0.018221
                          1       3    3py               2.521825      -0.317572
                                                         1.453920       0.534826
                                                         0.614053      -0.489458
                                                         0.232656       0.245631
                                                         0.074788       0.018221
                          1       3    3pz               2.521825      -0.317572
                                                         1.453920       0.534826
                                                         0.614053      -0.489458
                                                         0.232656       0.245631
                                                         0.074788       0.018221

                          1       4    4dx2              2.521825       3.008522
                                                         1.453920      -1.224251
                                                         0.614053       0.225691
                                                         0.232656       0.125144
                                                         0.074788      -0.015348
                          1       4    4dxy              2.521825       5.210912
                                                         1.453920      -2.120465
                                                         0.614053       0.390909
                                                         0.232656       0.216756
                                                         0.074788      -0.026584
                          1       4    4dxz              2.521825       5.210912
                                                         1.453920      -2.120465
                                                         0.614053       0.390909
                                                         0.232656       0.216756
                                                         0.074788      -0.026584
                          1       4    4dy2              2.521825       3.008522
                                                         1.453920      -1.224251
                                                         0.614053       0.225691
                                                         0.232656       0.125144
                                                         0.074788      -0.015348
                          1       4    4dyz              2.521825       5.210912
                                                         1.453920      -2.120465
                                                         0.614053       0.390909
                                                         0.232656       0.216756
                                                         0.074788      -0.026584
                          1       4    4dz2              2.521825       3.008522
                                                         1.453920      -1.224251
                                                         0.614053       0.225691
                                                         0.232656       0.125144
                                                         0.074788      -0.015348

                          1       5    5dx2              2.521825       0.698026
                                                         1.453920      -1.511486
                                                         0.614053      -0.335394
                                                         0.232656      -0.025564
                                                         0.074788      -0.002699
                          1       5    5dxy              2.521825       1.209017
                                                         1.453920      -2.617970
                                                         0.614053      -0.580920
                                                         0.232656      -0.044277
                                                         0.074788      -0.004674
                          1       5    5dxz              2.521825       1.209017
                                                         1.453920      -2.617970
                                                         0.614053      -0.580920
                                                         0.232656      -0.044277
                                                         0.074788      -0.004674
                          1       5    5dy2              2.521825       0.698026
                                                         1.453920      -1.511486
                                                         0.614053      -0.335394
                                                         0.232656      -0.025564
                                                         0.074788      -0.002699
                          1       5    5dyz              2.521825       1.209017
                                                         1.453920      -2.617970
                                                         0.614053      -0.580920
                                                         0.232656      -0.044277
                                                         0.074788      -0.004674
                          1       5    5dz2              2.521825       0.698026
                                                         1.453920      -1.511486
                                                         0.614053      -0.335394
                                                         0.232656      -0.025564
                                                         0.074788      -0.002699

                          1       6    6dx2              2.521825       0.831079
                                                         1.453920      -0.709226
                                                         0.614053      -0.137351
                                                         0.232656       0.068642
                                                         0.074788       0.011745
                          1       6    6dxy              2.521825       1.439472
                                                         1.453920      -1.228415
                                                         0.614053      -0.237899
                                                         0.232656       0.118891
                                                         0.074788       0.020343
                          1       6    6dxz              2.521825       1.439472
                                                         1.453920      -1.228415
                                                         0.614053      -0.237899
                                                         0.232656       0.118891
                                                         0.074788       0.020343
                          1       6    6dy2              2.521825       0.831079
                                                         1.453920      -0.709226
                                                         0.614053      -0.137351
                                                         0.232656       0.068642
                                                         0.074788       0.011745
                          1       6    6dyz              2.521825       1.439472
                                                         1.453920      -1.228415
                                                         0.614053      -0.237899
                                                         0.232656       0.118891
                                                         0.074788       0.020343
                          1       6    6dz2              2.521825       0.831079
                                                         1.453920      -0.709226
                                                         0.614053      -0.137351
                                                         0.232656       0.068642
                                                         0.074788       0.011745

       Atomic covalent radius [Angstrom]:                                  1.300

       Atomic van der Waals radius [Angstrom]:                             1.750

     GTH Potential information for                                   GTH-PBE-q10

       Description:                       Goedecker-Teter-Hutter pseudopotential
                                           Goedecker et al., PRB 54, 1703 (1996)
                                          Hartwigsen et al., PRB 58, 3641 (1998)
                                                      Krack, TCA 114, 145 (2005)

       Gaussian exponent of the core charge distribution:               1.317676
       Electronic configuration (s p d ...):                           1   0   9

       Parameters of the local part of the GTH pseudopotential:

                          rloc        C1          C2          C3          C4
                        0.616000   11.313635

       Parameters of the non-local part of the GTH pseudopotential:

                   l      r(l)      h(i,j,l)

                   0    0.550904    4.733491   -1.784594
                                   -1.784594    2.303901
                   1    0.674138    2.534798   -1.778066
                                   -1.778066    2.103836
                   2    0.457392   -7.264011    2.558665
                                    2.558665   -2.901253


 MOLECULE KIND INFORMATION


 All atoms are their own molecule, skipping detailed information


 TOTAL NUMBERS AND MAXIMUM NUMBERS

  Total number of            - Atomic kinds:                                   3
                             - Atoms:                                        513
                             - Shell sets:                                   513
                             - Shells:                                      2385
                             - Primitive Cartesian functions:               2565
                             - Cartesian basis functions:                   7344
                             - Spherical basis functions:                   6597

  Maximum angular momentum of- Orbital basis functions:                        2
                             - Local part of the GTH pseudopotential:          2
                             - Non-local part of the GTH pseudopotential:      4


 MODULE QUICKSTEP:  ATOMIC COORDINATES IN angstrom

 Atom  Kind  Element       X           Y           Z          Z(eff)       Mass
    1   1 O    8       6.990001   -2.630000   29.207998       6.0000     15.9994
    2   2 H    1       6.020000   -2.660000   29.497998       1.0000      1.0079
    3   2 H    1       7.190001   -1.660000   29.307998       1.0000      1.0079
    4   1 O    8       8.920000    2.670000   35.957998       6.0000     15.9994
    5   2 H    1       9.850000    2.930000   36.117998       1.0000      1.0079
    6   2 H    1       8.830000    1.670000   35.837999       1.0000      1.0079
    7   1 O    8     -12.720001  -27.960003   33.047998       6.0000     15.9994
    8   2 H    1     -12.760000  -28.910000   33.087997       1.0000      1.0079
    9   2 H    1     -13.620001  -27.660000   33.047998       1.0000      1.0079
   10   1 O    8      21.390001    3.910000   29.997998       6.0000     15.9994
   11   2 H    1      21.480000    3.840000   28.977998       1.0000      1.0079
   12   2 H    1      20.410002    4.090000   30.227998       1.0000      1.0079
   13   1 O    8      10.960001   30.650002   30.577998       6.0000     15.9994
   14   2 H    1      10.710001   29.690001   30.397997       1.0000      1.0079
   15   2 H    1      18.560001   16.520000   30.447997       1.0000      1.0079
   16   1 O    8     -12.320002  -41.410004   29.187997       6.0000     15.9994
   17   2 H    1     -13.040000  -41.980003   29.607997       1.0000      1.0079
   18   2 H    1     -11.500001  -41.959999   29.447997       1.0000      1.0079
   19   1 O    8      34.570004   25.950001   32.297998       6.0000     15.9994
   20   2 H    1      34.120003   26.410000   31.507997       1.0000      1.0079
   21   2 H    1      35.400002   25.500002   31.987997       1.0000      1.0079
   22   1 O    8     -17.020000   11.010000   32.797998       6.0000     15.9994
   23   2 H    1     -16.860001   10.740000   31.897998       1.0000      1.0079
   24   2 H    1     -17.910002   10.650001   33.027998       1.0000      1.0079
   25   1 O    8      21.660002    1.080000   30.447997       6.0000     15.9994
   26   2 H    1      21.880001    2.020000   30.327998       1.0000      1.0079
   27   2 H    1      21.570000    0.960000   31.437997       1.0000      1.0079
   28   1 O    8      32.570004  -29.360001   36.017998       6.0000     15.9994
   29   2 H    1      33.580002  -29.290001   35.957998       1.0000      1.0079
   30   2 H    1      49.190002  -29.940002   35.277998       1.0000      1.0079
   31   1 O    8      -0.960000  -38.870003   36.307998       6.0000     15.9994
   32   2 H    1      -0.590000  -39.780003   36.477998       1.0000      1.0079
   33   2 H    1      -0.990000  -38.380005   37.177997       1.0000      1.0079
   34   1 O    8      19.430000  -19.880001   29.107997       6.0000     15.9994
   35   2 H    1      19.960001  -19.100000   29.467998       1.0000      1.0079
   36   2 H    1      19.770000  -20.680000   29.757997       1.0000      1.0079
   37   1 O    8      -0.130000   14.820002   35.457999       6.0000     15.9994
   38   2 H    1      -0.430000   14.640001   34.467998       1.0000      1.0079
   39   2 H    1      -0.930000   14.580001   35.967998       1.0000      1.0079
   40   1 O    8      12.320002    2.040000   37.877998       6.0000     15.9994
   41   2 H    1      -4.200000    1.780000   38.787998       1.0000      1.0079
   42   2 H    1      12.120000    1.180000   37.427997       1.0000      1.0079
   43   1 O    8      -2.570000    2.740000   35.727998       6.0000     15.9994
   44   2 H    1      -3.150000    2.440000   36.547998       1.0000      1.0079
   45   2 H    1      -2.110000    1.920000   35.387998       1.0000      1.0079
   46   1 O    8      14.830000   63.500004   34.687998       6.0000     15.9994
   47   2 H    1      14.450001   62.610001   35.077998       1.0000      1.0079
   48   2 H    1      14.310001   63.740002   33.887998       1.0000      1.0079
   49   1 O    8     -25.270002  -17.140001   29.827998       6.0000     15.9994
   50   2 H    1     -24.740002  -17.160000   28.997998       1.0000      1.0079
   51   2 H    1     -26.250002  -16.940001   29.607997       1.0000      1.0079
   52   1 O    8       0.110000    9.990001   30.267998       6.0000     15.9994
   53   2 H    1      -0.310000   10.500001   29.597997       1.0000      1.0079
   54   2 H    1       1.040000    9.850000   30.007998       1.0000      1.0079
   55   1 O    8      30.580002   13.450001   32.567998       6.0000     15.9994
   56   2 H    1      30.380001   12.870001   33.377998       1.0000      1.0079
   57   2 H    1      13.460001   12.900001   31.777998       1.0000      1.0079
   58   1 O    8       0.040000   17.040001   30.487997       6.0000     15.9994
   59   2 H    1      -0.090000   17.170002   31.467998       1.0000      1.0079
   60   2 H    1      -0.400000   16.160000   30.427998       1.0000      1.0079
   61   1 O    8      34.610001    9.310000   34.517997       6.0000     15.9994
   62   2 H    1      34.520000    9.910001   33.777997       1.0000      1.0079
   63   2 H    1      34.350002    9.660000   35.377998       1.0000      1.0079
   64   1 O    8     -44.360004   13.250000   38.077998       6.0000     15.9994
   65   2 H    1     -45.230003   13.670001   37.917999       1.0000      1.0079
   66   2 H    1     -43.840004   13.570002   37.267999       1.0000      1.0079
   67   1 O    8      12.180000   22.110003   35.827998       6.0000     15.9994
   68   2 H    1      12.470001   23.010002   35.557998       1.0000      1.0079
   69   2 H    1      12.930001   21.580000   35.727998       1.0000      1.0079
   70   1 O    8       9.700001   -5.240001   37.367997       6.0000     15.9994
   71   2 H    1       8.850000   -5.110001   37.907998       1.0000      1.0079
   72   2 H    1       9.710001   -6.220000   37.207998       1.0000      1.0079
   73   1 O    8     -10.910001   -7.760000   31.937997       6.0000     15.9994
   74   2 H    1     -10.620001   -7.380000   31.077998       1.0000      1.0079
   75   2 H    1     -20.330000    6.800000   31.747998       1.0000      1.0079
   76   1 O    8      -0.210000   23.860001   30.197997       6.0000     15.9994
   77   2 H    1      -0.200000   24.830000   30.217997       1.0000      1.0079
   78   2 H    1      -1.080000   23.690002   29.817997       1.0000      1.0079
   79   1 O    8       6.170001   18.600002   31.197997       6.0000     15.9994
   80   2 H    1       6.280000   19.560001   31.277997       1.0000      1.0079
   81   2 H    1       5.670000   18.490002   30.377998       1.0000      1.0079
   82   1 O    8     -11.370001   34.880001   34.857997       6.0000     15.9994
   83   2 H    1       6.170001   34.430000   35.417998       1.0000      1.0079
   84   2 H    1     -10.770000   35.180000   34.077998       1.0000      1.0079
   85   1 O    8     -31.980001   -8.660001   36.037998       6.0000     15.9994
   86   2 H    1     -32.970001   -8.760000   36.177997       1.0000      1.0079
   87   2 H    1     -31.450003   -9.110001   36.717998       1.0000      1.0079
   88   1 O    8      22.620001  -16.410000   29.727998       6.0000     15.9994
   89   2 H    1      22.750000  -15.420000   29.767998       1.0000      1.0079
   90   2 H    1      22.299999  -16.380001   28.787997       1.0000      1.0079
   91   1 O    8      -5.160000   -3.020000   30.227998       6.0000     15.9994
   92   2 H    1      -5.170000   -3.100000   31.257998       1.0000      1.0079
   93   2 H    1      -4.310000   -2.680000   29.847997       1.0000      1.0079
   94   1 O    8      45.230003   -8.550000   39.677997       6.0000     15.9994
   95   2 H    1      46.190002   -8.690001   39.667999       1.0000      1.0079
   96   2 H    1      45.070004   -7.730001   40.297998       1.0000      1.0079
   97   1 O    8       6.700000  -26.210001   39.387998       6.0000     15.9994
   98   2 H    1       7.600000  -26.250002   39.717998       1.0000      1.0079
   99   2 H    1       6.160001  -26.850002   39.987998       1.0000      1.0079
  100   1 O    8      18.240002   22.060001   29.087998       6.0000     15.9994
  101   2 H    1      19.160002   22.450001   29.157997       1.0000      1.0079
  102   2 H    1      17.670000   22.850000   29.287998       1.0000      1.0079
  103   1 O    8      19.710001  -18.530001   39.077998       6.0000     15.9994
  104   2 H    1      19.270000  -19.230001   38.447997       1.0000      1.0079
  105   2 H    1      19.139999  -17.800001   38.877998       1.0000      1.0079
  106   1 O    8     -23.740002   46.560001   34.797998       6.0000     15.9994
  107   2 H    1     -24.240000   46.580002   35.677998       1.0000      1.0079
  108   2 H    1     -23.320000   47.470001   34.657998       1.0000      1.0079
  109   1 O    8      15.720000   20.870001   32.947997       6.0000     15.9994
  110   2 H    1      16.470001   21.540001   32.897998       1.0000      1.0079
  111   2 H    1      16.110001   20.000000   32.667998       1.0000      1.0079
  112   1 O    8     -28.800001  -18.090002   36.927998       6.0000     15.9994
  113   2 H    1     -29.400002  -18.280001   37.657996       1.0000      1.0079
  114   2 H    1     -28.100002  -17.420002   37.267999       1.0000      1.0079
  115   1 O    8      15.630001   14.620000   29.987997       6.0000     15.9994
  116   2 H    1      15.860001   14.350000   30.877998       1.0000      1.0079
  117   2 H    1      14.620000   14.810000   30.087998       1.0000      1.0079
  118   1 O    8      20.559999   10.110001   34.867998       6.0000     15.9994
  119   2 H    1      12.660000   25.220001   35.507999       1.0000      1.0079
  120   2 H    1      19.770000    9.870001   35.437997       1.0000      1.0079
  121   1 O    8     -28.120001   -5.020000   33.257998       6.0000     15.9994
  122   2 H    1     -28.300001   -5.010000   34.207998       1.0000      1.0079
  123   2 H    1     -27.930002   -5.990000   33.027998       1.0000      1.0079
  124   1 O    8     -41.840000   21.240002   33.647997       6.0000     15.9994
  125   2 H    1     -42.730003   20.820000   33.857997       1.0000      1.0079
  126   2 H    1     -41.880001   22.080002   34.157997       1.0000      1.0079
  127   1 O    8      -2.120000    0.980000   32.987997       6.0000     15.9994
  128   2 H    1      -2.670000    1.700000   33.237997       1.0000      1.0079
  129   2 H    1      -2.300000    0.150000   33.477998       1.0000      1.0079
  130   1 O    8      29.830000  -17.010000   30.087998       6.0000     15.9994
  131   2 H    1      29.190002  -17.530001   30.697997       1.0000      1.0079
  132   2 H    1      29.290001  -16.460001   29.497998       1.0000      1.0079
  133   1 O    8       7.450001  -18.450001   33.997999       6.0000     15.9994
  134   2 H    1       8.100000  -18.300001   33.257998       1.0000      1.0079
  135   2 H    1       6.830000  -19.160002   33.697997       1.0000      1.0079
  136   1 O    8     -21.510000   28.840000   36.997998       6.0000     15.9994
  137   2 H    1     -21.910002   28.830002   36.077998       1.0000      1.0079
  138   2 H    1     -22.120001   28.330002   37.607997       1.0000      1.0079
  139   1 O    8       9.860001    2.490000   39.447997       6.0000     15.9994
  140   2 H    1      10.680000    2.470000   38.817998       1.0000      1.0079
  141   2 H    1       9.450001    1.610000   39.517999       1.0000      1.0079
  142   1 O    8      28.600002   -2.450000   32.987997       6.0000     15.9994
  143   2 H    1      28.720001   -3.080000   33.777997       1.0000      1.0079
  144   2 H    1      36.430000   12.880001   33.307998       1.0000      1.0079
  145   1 O    8      -5.130000    6.720000   31.657997       6.0000     15.9994
  146   2 H    1      -5.200000    5.920000   31.057998       1.0000      1.0079
  147   2 H    1      -6.000000    7.220001   31.597998       1.0000      1.0079
  148   1 O    8      11.160001   19.720001   34.037998       6.0000     15.9994
  149   2 H    1      -4.880000   20.090000   34.327998       1.0000      1.0079
  150   2 H    1      10.550001   20.520000   34.107997       1.0000      1.0079
  151   1 O    8      -2.330000   13.920001   36.757999       6.0000     15.9994
  152   2 H    1      -2.980000   13.520001   36.177997       1.0000      1.0079
  153   2 H    1      -2.830000   14.750000   37.037998       1.0000      1.0079
  154   1 O    8     -18.300001    7.910000   29.817997       6.0000     15.9994
  155   2 H    1     -17.660000    8.690001   29.937997       1.0000      1.0079
  156   2 H    1     -18.600002    7.890000   28.817997       1.0000      1.0079
  157   1 O    8      10.090000   12.440001   37.797998       6.0000     15.9994
  158   2 H    1       9.640000   11.820001   37.167999       1.0000      1.0079
  159   2 H    1      10.900001   12.110001   38.297998       1.0000      1.0079
  160   1 O    8     -31.760002   23.190001   35.027997       6.0000     15.9994
  161   2 H    1     -31.980001   22.350002   35.517997       1.0000      1.0079
  162   2 H    1     -32.310001   23.930000   35.587997       1.0000      1.0079
  163   1 O    8     -15.470000   13.720001   30.157997       6.0000     15.9994
  164   2 H    1     -15.660001   13.470001   29.157997       1.0000      1.0079
  165   2 H    1     -15.020000   12.890000   30.397997       1.0000      1.0079
  166   1 O    8      -5.560000  -14.820002   29.187997       6.0000     15.9994
  167   2 H    1      -4.770000  -14.280001   29.407997       1.0000      1.0079
  168   2 H    1      -6.390000  -14.370001   29.457998       1.0000      1.0079
  169   1 O    8      25.370003   17.870001   29.617997       6.0000     15.9994
  170   2 H    1      24.580002   18.210001   30.117997       1.0000      1.0079
  171   2 H    1      25.140001   18.210001   28.717997       1.0000      1.0079
  172   1 O    8      -0.600000    9.960001   39.087997       6.0000     15.9994
  173   2 H    1      -0.260000    9.800000   40.057998       1.0000      1.0079
  174   2 H    1      -0.910000   10.890001   39.097999       1.0000      1.0079
  175   1 O    8      -2.390000    8.030001   39.037998       6.0000     15.9994
  176   2 H    1      -2.140000    7.450001   39.777997       1.0000      1.0079
  177   2 H    1      -1.550000    8.630000   38.977998       1.0000      1.0079
  178   1 O    8      10.230000   21.119999   37.247997       6.0000     15.9994
  179   2 H    1      10.580001   21.110001   38.177997       1.0000      1.0079
  180   2 H    1      10.970000   21.410000   36.637998       1.0000      1.0079
  181   1 O    8      -1.570000   54.700005   39.867997       6.0000     15.9994
  182   2 H    1      -1.400000   54.580002   38.887998       1.0000      1.0079
  183   2 H    1      -1.470000   55.630001   40.067998       1.0000      1.0079
  184   1 O    8       8.870000   21.000002   30.957998       6.0000     15.9994
  185   2 H    1       8.070001   21.360001   30.527997       1.0000      1.0079
  186   2 H    1       8.910000   21.250000   31.967998       1.0000      1.0079
  187   1 O    8     -10.500001   15.430001   30.087998       6.0000     15.9994
  188   2 H    1      -9.590000   15.390000   29.747998       1.0000      1.0079
  189   2 H    1     -10.450001   15.620001   31.117997       1.0000      1.0079
  190   1 O    8      -8.830000   32.760002   32.907997       6.0000     15.9994
  191   2 H    1      -9.670001   32.370003   33.457998       1.0000      1.0079
  192   2 H    1      -8.010000   32.750000   33.487998       1.0000      1.0079
  193   1 O    8     -10.800000   13.170000   33.867997       6.0000     15.9994
  194   2 H    1     -11.720000   12.710000   33.797998       1.0000      1.0079
  195   2 H    1     -10.190001   12.440001   33.777997       1.0000      1.0079
  196   1 O    8      19.070000    3.990000   31.307998       6.0000     15.9994
  197   2 H    1      18.320002    3.970000   30.677997       1.0000      1.0079
  198   2 H    1      19.040001    4.840000   31.847998       1.0000      1.0079
  199   1 O    8      17.490002    0.690000   33.257998       6.0000     15.9994
  200   2 H    1      17.910002    1.430000   33.727997       1.0000      1.0079
  201   2 H    1      16.560001    0.950000   33.227998       1.0000      1.0079
  202   1 O    8      20.270002   16.630001   33.067997       6.0000     15.9994
  203   2 H    1      19.990002   16.390001   32.107998       1.0000      1.0079
  204   2 H    1      20.070002   17.570002   33.197997       1.0000      1.0079
  205   1 O    8      22.690001    2.940000   34.397998       6.0000     15.9994
  206   2 H    1      22.080002    2.400000   33.777997       1.0000      1.0079
  207   2 H    1      22.430000    3.890000   34.357998       1.0000      1.0079
  208   1 O    8       2.450000   14.130001   34.627998       6.0000     15.9994
  209   2 H    1       2.570000   14.970001   34.167998       1.0000      1.0079
  210   2 H    1       1.520000   14.100000   34.857997       1.0000      1.0079
  211   1 O    8       9.170000  -13.700001   30.417998       6.0000     15.9994
  212   2 H    1       9.160001  -13.660001   31.397998       1.0000      1.0079
  213   2 H    1      25.900002  -12.770000   30.137998       1.0000      1.0079
  214   1 O    8     -10.390000  -23.250000   30.287998       6.0000     15.9994
  215   2 H    1     -10.890001  -24.100000   30.387998       1.0000      1.0079
  216   2 H    1     -10.100000  -22.930002   31.237998       1.0000      1.0079
  217   1 O    8      18.110001   -8.650001   39.757999       6.0000     15.9994
  218   2 H    1      17.980001   -9.340000   40.487998       1.0000      1.0079
  219   2 H    1      18.660000   -9.130000   39.087997       1.0000      1.0079
  220   1 O    8     -13.510000   -9.750000   37.817998       6.0000     15.9994
  221   2 H    1     -13.310001  -10.690001   37.997999       1.0000      1.0079
  222   2 H    1     -12.710000   -9.260000   37.497999       1.0000      1.0079
  223   1 O    8       9.760000   43.990002   36.617997       6.0000     15.9994
  224   2 H    1       9.880000   43.040005   37.007998       1.0000      1.0079
  225   2 H    1      10.540000   44.050003   36.017998       1.0000      1.0079
  226   1 O    8      21.200001   24.250002   35.717998       6.0000     15.9994
  227   2 H    1      20.360001   23.870001   35.347998       1.0000      1.0079
  228   2 H    1      21.580000   23.590002   36.327998       1.0000      1.0079
  229   1 O    8      -1.440000   -5.310000   37.467998       6.0000     15.9994
  230   2 H    1      -2.330000   -4.950000   37.227998       1.0000      1.0079
  231   2 H    1      -1.490000   -6.290000   37.467998       1.0000      1.0079
  232   1 O    8       3.300000   -4.220000   31.687997       6.0000     15.9994
  233   2 H    1       3.360000   -4.790000   30.867997       1.0000      1.0079
  234   2 H    1       4.040000   -4.440001   32.317997       1.0000      1.0079
  235   1 O    8      -4.210001   12.630000   34.957998       6.0000     15.9994
  236   2 H    1      -5.140000   12.800001   34.607998       1.0000      1.0079
  237   2 H    1      -4.430000   11.720000   35.237997       1.0000      1.0079
  238   1 O    8     -22.470001   21.809999   30.837998       6.0000     15.9994
  239   2 H    1     -21.860001   21.130001   30.497998       1.0000      1.0079
  240   2 H    1     -23.500002   21.500000   30.607997       1.0000      1.0079
  241   1 O    8       9.040001   10.640000   36.137998       6.0000     15.9994
  242   2 H    1       8.480000   10.050000   36.707999       1.0000      1.0079
  243   2 H    1       8.410000   10.920000   35.397998       1.0000      1.0079
  244   1 O    8      11.820001  -17.150000   39.917999       6.0000     15.9994
  245   2 H    1      12.180000  -18.030001   40.127998       1.0000      1.0079
  246   2 H    1      12.500000  -16.540001   40.208000       1.0000      1.0079
  247   1 O    8      27.880001   17.680000   37.997999       6.0000     15.9994
  248   2 H    1      27.450001   18.220001   37.347999       1.0000      1.0079
  249   2 H    1      28.660002   17.330000   37.427997       1.0000      1.0079
  250   1 O    8     -15.590000   12.970000   37.937997       6.0000     15.9994
  251   2 H    1     -16.320002   12.430000   37.637998       1.0000      1.0079
  252   2 H    1     -15.930000   13.430000   38.757997       1.0000      1.0079
  253   1 O    8     -11.520000   20.970001   36.967998       6.0000     15.9994
  254   2 H    1     -10.900001   21.440001   37.557998       1.0000      1.0079
  255   2 H    1     -11.070000   20.720001   36.147998       1.0000      1.0079
  256   1 O    8     -11.230000    9.270000   32.917998       6.0000     15.9994
  257   2 H    1     -12.200001    9.270000   33.187997       1.0000      1.0079
  258   2 H    1     -11.200000    9.290000   31.937997       1.0000      1.0079
  259   1 O    8     -24.530001    7.860000   32.277997       6.0000     15.9994
  260   2 H    1     -24.890001    8.510000   31.607997       1.0000      1.0079
  261   2 H    1     -24.170000    8.270000   33.087997       1.0000      1.0079
  262   1 O    8       3.880000   -5.820000   29.667998       6.0000     15.9994
  263   2 H    1       4.730000   -6.190000   30.027997       1.0000      1.0079
  264   2 H    1       4.190001   -5.390000   28.857997       1.0000      1.0079
  265   1 O    8      16.490000   14.050001   32.697998       6.0000     15.9994
  266   2 H    1      15.550001   13.980001   32.897998       1.0000      1.0079
  267   2 H    1      16.740000   13.060001   32.647998       1.0000      1.0079
  268   1 O    8      15.530001   12.370001   38.787998       6.0000     15.9994
  269   2 H    1      23.790001   -2.000000   39.737998       1.0000      1.0079
  270   2 H    1      14.980001   12.920000   38.257999       1.0000      1.0079
  271   1 O    8      -3.400000   16.860001   36.937998       6.0000     15.9994
  272   2 H    1      -3.120000   17.000000   36.037998       1.0000      1.0079
  273   2 H    1      -2.700000   17.020000   37.577998       1.0000      1.0079
  274   1 O    8      16.660002    4.570000   37.077998       6.0000     15.9994
  275   2 H    1      17.320002    5.280000   37.307998       1.0000      1.0079
  276   2 H    1      16.240002    4.840000   36.277997       1.0000      1.0079
  277   1 O    8     -15.270000   27.570002   34.257999       6.0000     15.9994
  278   2 H    1       1.070000   28.290003   33.957998       1.0000      1.0079
  279   2 H    1       1.460000   26.960001   33.497998       1.0000      1.0079
  280   1 O    8      -9.470000   17.220001   38.807998       6.0000     15.9994
  281   2 H    1      -9.260000   17.820000   38.067998       1.0000      1.0079
  282   2 H    1      -8.640000   16.630001   38.997999       1.0000      1.0079
  283   1 O    8      41.150002    6.640000   38.367999       6.0000     15.9994
  284   2 H    1      42.040001    6.600000   38.777999       1.0000      1.0079
  285   2 H    1      40.540005    6.330000   39.097999       1.0000      1.0079
  286   1 O    8      19.230001   19.510000   33.407998       6.0000     15.9994
  287   2 H    1      19.660000   20.210001   32.967998       1.0000      1.0079
  288   2 H    1      19.150002   19.810001   34.387997       1.0000      1.0079
  289   1 O    8     -19.730000  -35.450001   30.127998       6.0000     15.9994
  290   2 H    1     -19.550001  -36.440002   29.977997       1.0000      1.0079
  291   2 H    1     -20.050001  -35.190002   29.247998       1.0000      1.0079
  292   1 O    8      -8.150001   33.970001   29.127998       6.0000     15.9994
  293   2 H    1      -8.360001   33.040001   29.377998       1.0000      1.0079
  294   2 H    1      -8.870000   34.470001   29.537998       1.0000      1.0079
  295   1 O    8     -30.560001   -9.790000   29.657997       6.0000     15.9994
  296   2 H    1     -31.470001   -9.660000   29.317997       1.0000      1.0079
  297   2 H    1     -13.590001  -10.760001   29.767998       1.0000      1.0079
  298   3 Pt  78       1.800000    0.730000   15.249996      10.0000    195.0840
  299   3 Pt  78       4.500000    0.760000   15.179996      10.0000    195.0840
  300   3 Pt  78       7.280001    0.780000   15.219997      10.0000    195.0840
  301   3 Pt  78      10.060000    0.750000   15.399998      10.0000    195.0840
  302   3 Pt  78      12.910000    0.720000   15.319996      10.0000    195.0840
  303   3 Pt  78      15.760001    0.730000   15.279999      10.0000    195.0840
  304   3 Pt  78       3.150000    3.190000   15.239998      10.0000    195.0840
  305   3 Pt  78       5.980001    3.170000   15.179996      10.0000    195.0840
  306   3 Pt  78       8.780001    3.120000   15.089996      10.0000    195.0840
  307   3 Pt  78      11.460000    3.250000   15.309998      10.0000    195.0840
  308   3 Pt  78      14.290000    3.210000   15.259998      10.0000    195.0840
  309   3 Pt  78       0.130000    3.140000   15.279999      10.0000    195.0840
  310   3 Pt  78       4.460000    5.560000   15.219997      10.0000    195.0840
  311   3 Pt  78       7.240000    5.810000   15.309998      10.0000    195.0840
  312   3 Pt  78      10.040001    5.550000   15.389999      10.0000    195.0840
  313   3 Pt  78      12.910000    5.750000   15.200001      10.0000    195.0840
  314   3 Pt  78      -1.180000    5.750000   15.259998      10.0000    195.0840
  315   3 Pt  78       1.520000    5.450000   15.130001      10.0000    195.0840
  316   3 Pt  78       5.780000    8.160001   15.340000      10.0000    195.0840
  317   3 Pt  78       8.640000    8.010000   15.360001      10.0000    195.0840
  318   3 Pt  78      11.440001    8.050001   15.200001      10.0000    195.0840
  319   3 Pt  78      -2.560000    8.030001   15.230000      10.0000    195.0840
  320   3 Pt  78       0.310000    8.060000   15.119999      10.0000    195.0840
  321   3 Pt  78       2.960000    8.120001   15.049999      10.0000    195.0840
  322   3 Pt  78       7.300000   10.490000   15.070000      10.0000    195.0840
  323   3 Pt  78      10.020000   10.400001   15.000000      10.0000    195.0840
  324   3 Pt  78      -4.120000   10.460000   15.109997      10.0000    195.0840
  325   3 Pt  78      -1.220000   10.520000   15.299999      10.0000    195.0840
  326   3 Pt  78       1.590000   10.510000   15.399998      10.0000    195.0840
  327   3 Pt  78       4.500000   10.510000   15.070000      10.0000    195.0840
  328   3 Pt  78       8.670000   12.840000   15.209999      10.0000    195.0840
  329   3 Pt  78      -5.410000   12.900001   15.279999      10.0000    195.0840
  330   3 Pt  78      -2.600000   12.970000   15.410000      10.0000    195.0840
  331   3 Pt  78       0.230000   12.940001   15.179996      10.0000    195.0840
  332   3 Pt  78       3.130000   12.970000   15.270000      10.0000    195.0840
  333   3 Pt  78       5.900001   12.970000   15.209999      10.0000    195.0840
  334   3 Pt  78       0.340000    1.530000   17.449997      10.0000    195.0840
  335   3 Pt  78       3.080000    1.660000   17.529999      10.0000    195.0840
  336   3 Pt  78       5.790000    1.400000   17.619999      10.0000    195.0840
  337   3 Pt  78       8.490001    1.560000   17.669998      10.0000    195.0840
  338   3 Pt  78      11.470001    1.460000   17.719997      10.0000    195.0840
  339   3 Pt  78      14.240000    1.600000   17.639999      10.0000    195.0840
  340   3 Pt  78       1.600000    4.050000   17.500000      10.0000    195.0840
  341   3 Pt  78       4.560000    4.050000   17.589996      10.0000    195.0840
  342   3 Pt  78       7.200000    3.960000   17.549999      10.0000    195.0840
  343   3 Pt  78      10.070001    3.840000   17.709999      10.0000    195.0840
  344   3 Pt  78      12.880001    3.990000   17.639999      10.0000    195.0840
  345   3 Pt  78      -1.170000    3.920000   17.630001      10.0000    195.0840
  346   3 Pt  78       3.040000    6.430000   17.439999      10.0000    195.0840
  347   3 Pt  78       5.820000    6.540000   17.579998      10.0000    195.0840
  348   3 Pt  78       8.640000    6.480000   17.619999      10.0000    195.0840
  349   3 Pt  78      11.460000    6.390000   17.619999      10.0000    195.0840
  350   3 Pt  78      -2.610000    6.480000   17.619999      10.0000    195.0840
  351   3 Pt  78       0.260000    6.440001   17.519997      10.0000    195.0840
  352   3 Pt  78       4.410000    9.010000   17.549999      10.0000    195.0840
  353   3 Pt  78       7.100000    9.020000   17.539997      10.0000    195.0840
  354   3 Pt  78      10.090000    8.820001   17.529999      10.0000    195.0840
  355   3 Pt  78      -4.010000    8.770000   17.529999      10.0000    195.0840
  356   3 Pt  78      -1.140000    8.790001   17.579998      10.0000    195.0840
  357   3 Pt  78       1.690000    8.910000   17.589996      10.0000    195.0840
  358   3 Pt  78       5.750000   11.450001   17.599998      10.0000    195.0840
  359   3 Pt  78       8.650001   11.280001   17.389999      10.0000    195.0840
  360   3 Pt  78      -5.450000   11.310000   17.480000      10.0000    195.0840
  361   3 Pt  78      -2.690000   11.210001   17.539997      10.0000    195.0840
  362   3 Pt  78       0.260000   11.220001   17.669998      10.0000    195.0840
  363   3 Pt  78       3.070000   11.390000   17.630001      10.0000    195.0840
  364   3 Pt  78       7.200000   13.830000   17.549999      10.0000    195.0840
  365   3 Pt  78      -6.830000   13.760000   17.570000      10.0000    195.0840
  366   3 Pt  78      -4.060000   13.680000   17.560001      10.0000    195.0840
  367   3 Pt  78      -1.250000   13.510000   17.560001      10.0000    195.0840
  368   3 Pt  78       1.560000   13.650000   17.679996      10.0000    195.0840
  369   3 Pt  78       4.410000   13.720001   17.669998      10.0000    195.0840
  370   3 Pt  78      -8.310000   14.570000   19.799999      10.0000    195.0840
  371   3 Pt  78      -5.450000   14.470000   19.750000      10.0000    195.0840
  372   3 Pt  78      -2.620000   14.440001   19.859997      10.0000    195.0840
  373   3 Pt  78       0.190000   14.390000   19.919998      10.0000    195.0840
  374   3 Pt  78       3.020000   14.540001   19.880001      10.0000    195.0840
  375   3 Pt  78       5.780000   14.560001   19.989998      10.0000    195.0840
  376   3 Pt  78       1.540000    2.390000   19.810001      10.0000    195.0840
  377   3 Pt  78       4.460000    2.420000   19.869999      10.0000    195.0840
  378   3 Pt  78       7.280001    2.380000   19.999996      10.0000    195.0840
  379   3 Pt  78      10.040001    2.230000   19.939999      10.0000    195.0840
  380   3 Pt  78      12.880001    2.320000   20.049999      10.0000    195.0840
  381   3 Pt  78      -1.200000    2.280000   19.929996      10.0000    195.0840
  382   3 Pt  78       3.080000    4.800000   19.820000      10.0000    195.0840
  383   3 Pt  78       5.870000    4.810000   19.849998      10.0000    195.0840
  384   3 Pt  78       8.740000    4.740000   19.969997      10.0000    195.0840
  385   3 Pt  78      11.420001    4.710000   19.939999      10.0000    195.0840
  386   3 Pt  78      -2.600000    4.730000   19.849998      10.0000    195.0840
  387   3 Pt  78       0.200000    4.740000   19.829998      10.0000    195.0840
  388   3 Pt  78       4.380000    7.340000   19.880001      10.0000    195.0840
  389   3 Pt  78       7.240000    7.190001   19.880001      10.0000    195.0840
  390   3 Pt  78      10.000000    7.300000   19.869999      10.0000    195.0840
  391   3 Pt  78      -4.160000    7.210000   19.910000      10.0000    195.0840
  392   3 Pt  78      -1.200000    7.200000   19.989998      10.0000    195.0840
  393   3 Pt  78       1.580000    7.180000   19.829998      10.0000    195.0840
  394   3 Pt  78       5.760000    9.720000   19.929996      10.0000    195.0840
  395   3 Pt  78       8.650001    9.640000   19.739998      10.0000    195.0840
  396   3 Pt  78      -5.460000    9.670001   19.789997      10.0000    195.0840
  397   3 Pt  78      -2.630000    9.520000   19.869999      10.0000    195.0840
  398   3 Pt  78       0.290000    9.570000   19.929996      10.0000    195.0840
  399   3 Pt  78       3.030000    9.690001   20.020000      10.0000    195.0840
  400   3 Pt  78       7.190001   12.080001   19.889999      10.0000    195.0840
  401   3 Pt  78      -6.950001   12.110001   19.770000      10.0000    195.0840
  402   3 Pt  78      -3.960000   12.030001   19.889999      10.0000    195.0840
  403   3 Pt  78      -1.250000   11.980001   19.910000      10.0000    195.0840
  404   3 Pt  78       1.530000   12.150001   19.969997      10.0000    195.0840
  405   3 Pt  78       4.390000   12.140001   19.980000      10.0000    195.0840
  406   3 Pt  78       1.610000    0.700000   22.067997      10.0000    195.0840
  407   3 Pt  78       4.430000    0.650000   22.077997      10.0000    195.0840
  408   3 Pt  78       7.210000    0.640000   22.217997      10.0000    195.0840
  409   3 Pt  78       9.900001    0.640000   22.217997      10.0000    195.0840
  410   3 Pt  78      12.740001    0.660000   22.217997      10.0000    195.0840
  411   3 Pt  78      15.540000    0.660000   22.197997      10.0000    195.0840
  412   3 Pt  78       3.010000    3.080000   22.127997      10.0000    195.0840
  413   3 Pt  78       5.730000    3.140000   22.267997      10.0000    195.0840
  414   3 Pt  78       8.520000    3.190000   22.187997      10.0000    195.0840
  415   3 Pt  78      11.350001    3.100000   22.297997      10.0000    195.0840
  416   3 Pt  78      14.230001    3.080000   22.257997      10.0000    195.0840
  417   3 Pt  78       0.160000    3.090000   22.237997      10.0000    195.0840
  418   3 Pt  78       4.360000    5.610001   22.107997      10.0000    195.0840
  419   3 Pt  78       7.140000    5.690000   22.147997      10.0000    195.0840
  420   3 Pt  78       9.960001    5.670000   22.267997      10.0000    195.0840
  421   3 Pt  78      12.700001    5.480001   22.187997      10.0000    195.0840
  422   3 Pt  78      -1.280000    5.490000   22.127997      10.0000    195.0840
  423   3 Pt  78       1.630000    5.400000   22.167997      10.0000    195.0840
  424   3 Pt  78       5.760000    8.060000   22.277997      10.0000    195.0840
  425   3 Pt  78       8.560000    8.080000   22.207997      10.0000    195.0840
  426   3 Pt  78      11.420001    7.990000   22.187997      10.0000    195.0840
  427   3 Pt  78      -2.690000    7.940001   22.197997      10.0000    195.0840
  428   3 Pt  78       0.190000    7.870001   22.257997      10.0000    195.0840
  429   3 Pt  78       2.970000    7.990000   22.187997      10.0000    195.0840
  430   3 Pt  78       7.200000   10.480001   22.067997      10.0000    195.0840
  431   3 Pt  78       9.990001   10.410000   22.007997      10.0000    195.0840
  432   3 Pt  78      -4.030000   10.380001   22.107997      10.0000    195.0840
  433   3 Pt  78      -1.270000   10.300001   22.247997      10.0000    195.0840
  434   3 Pt  78       1.500000   10.430001   22.297997      10.0000    195.0840
  435   3 Pt  78       4.360000   10.450001   22.147997      10.0000    195.0840
  436   3 Pt  78       8.570001   12.920000   22.177997      10.0000    195.0840
  437   3 Pt  78      -5.540000   12.830001   22.007997      10.0000    195.0840
  438   3 Pt  78      -2.660000   12.810000   22.187997      10.0000    195.0840
  439   3 Pt  78       0.080000   12.760000   22.297997      10.0000    195.0840
  440   3 Pt  78       2.910000   12.860001   22.277997      10.0000    195.0840
  441   3 Pt  78       5.750000   12.900001   22.267997      10.0000    195.0840
  442   3 Pt  78       0.010000    1.520000   24.467997      10.0000    195.0840
  443   3 Pt  78       3.020000    1.440000   24.327998      10.0000    195.0840
  444   3 Pt  78       5.790000    1.400000   24.527997      10.0000    195.0840
  445   3 Pt  78       8.560000    1.480000   24.617997      10.0000    195.0840
  446   3 Pt  78      11.420001    1.440000   24.547997      10.0000    195.0840
  447   3 Pt  78      14.130001    1.370000   24.447997      10.0000    195.0840
  448   3 Pt  78       1.550000    3.770000   24.427997      10.0000    195.0840
  449   3 Pt  78       4.360000    3.910000   24.547997      10.0000    195.0840
  450   3 Pt  78       7.100000    3.930000   24.597997      10.0000    195.0840
  451   3 Pt  78       9.930000    3.900000   24.577997      10.0000    195.0840
  452   3 Pt  78      12.760000    3.880000   24.537997      10.0000    195.0840
  453   3 Pt  78      -1.320000    3.840000   24.527997      10.0000    195.0840
  454   3 Pt  78       2.890000    6.330000   24.497997      10.0000    195.0840
  455   3 Pt  78       5.750000    6.360001   24.577997      10.0000    195.0840
  456   3 Pt  78       8.580000    6.370000   24.587997      10.0000    195.0840
  457   3 Pt  78      11.360001    6.310000   24.497997      10.0000    195.0840
  458   3 Pt  78      -2.670000    6.270000   24.387997      10.0000    195.0840
  459   3 Pt  78       0.100000    6.160001   24.457997      10.0000    195.0840
  460   3 Pt  78       4.260000    8.830000   24.507997      10.0000    195.0840
  461   3 Pt  78       7.100000    8.750001   24.477997      10.0000    195.0840
  462   3 Pt  78       9.860001    8.890000   24.357997      10.0000    195.0840
  463   3 Pt  78      -4.090000    8.750001   24.567997      10.0000    195.0840
  464   3 Pt  78      -1.240000    8.800000   24.577997      10.0000    195.0840
  465   3 Pt  78       1.440000    8.730000   24.387997      10.0000    195.0840
  466   3 Pt  78       5.630000   11.230000   24.367997      10.0000    195.0840
  467   3 Pt  78       8.500000   11.180000   24.407997      10.0000    195.0840
  468   3 Pt  78      -5.420001   11.080000   24.287997      10.0000    195.0840
  469   3 Pt  78      -2.740000   11.200000   24.487997      10.0000    195.0840
  470   3 Pt  78       0.110000   11.190001   24.607997      10.0000    195.0840
  471   3 Pt  78       2.880000   11.170001   24.537997      10.0000    195.0840
  472   3 Pt  78       7.100000   13.630000   24.447997      10.0000    195.0840
  473   3 Pt  78      -6.830000   13.760000   24.387997      10.0000    195.0840
  474   3 Pt  78      -4.050000   13.590001   24.497997      10.0000    195.0840
  475   3 Pt  78      -1.260000   13.630000   24.567997      10.0000    195.0840
  476   3 Pt  78       1.530000   13.610001   24.607997      10.0000    195.0840
  477   3 Pt  78       4.240000   13.590001   24.497997      10.0000    195.0840
  478   3 Pt  78      -8.270000   14.340000   26.687997      10.0000    195.0840
  479   3 Pt  78      -5.530000   14.450001   26.927997      10.0000    195.0840
  480   3 Pt  78      -2.660000   14.510001   26.817997      10.0000    195.0840
  481   3 Pt  78       0.100000   14.500000   26.967997      10.0000    195.0840
  482   3 Pt  78       2.930000   14.440001   26.947997      10.0000    195.0840
  483   3 Pt  78       5.750000   14.410001   26.867997      10.0000    195.0840
  484   3 Pt  78       1.570000    2.140000   26.797997      10.0000    195.0840
  485   3 Pt  78       4.250000    2.300000   26.807998      10.0000    195.0840
  486   3 Pt  78       7.190001    2.270000   26.857998      10.0000    195.0840
  487   3 Pt  78       9.960001    2.210000   26.987997      10.0000    195.0840
  488   3 Pt  78      12.800001    2.180000   26.917998      10.0000    195.0840
  489   3 Pt  78      -1.310000    2.090000   26.827998      10.0000    195.0840
  490   3 Pt  78       2.910000    4.660000   26.857998      10.0000    195.0840
  491   3 Pt  78       5.650000    4.670000   26.917998      10.0000    195.0840
  492   3 Pt  78       8.510000    4.700000   26.837997      10.0000    195.0840
  493   3 Pt  78      11.510000    4.650001   26.827998      10.0000    195.0840
  494   3 Pt  78      -2.640000    4.710000   26.957998      10.0000    195.0840
  495   3 Pt  78       0.180000    4.520000   26.797997      10.0000    195.0840
  496   3 Pt  78       4.210001    7.130001   26.907997      10.0000    195.0840
  497   3 Pt  78       7.010000    7.170000   26.787998      10.0000    195.0840
  498   3 Pt  78      10.010000    7.210000   26.737997      10.0000    195.0840
  499   3 Pt  78      -4.070000    7.130001   26.807998      10.0000    195.0840
  500   3 Pt  78      -1.280000    6.980000   26.687997      10.0000    195.0840
  501   3 Pt  78       1.430000    7.030000   26.757997      10.0000    195.0840
  502   3 Pt  78       5.660000    9.540001   26.777997      10.0000    195.0840
  503   3 Pt  78       8.400001    9.690001   26.687997      10.0000    195.0840
  504   3 Pt  78      -5.520000    9.610001   26.747997      10.0000    195.0840
  505   3 Pt  78      -2.720000    9.540001   26.907997      10.0000    195.0840
[...]
 -                                                                             -
 -                                DBCSR STATISTICS                             -
 -                                                                             -
 -------------------------------------------------------------------------------
 COUNTER                                    TOTAL       BLAS       SMM       ACC
 flops     5 x     5 x   120           5789448000       0.0%    100.0%      0.0%
 flops    13 x     5 x   120           7351234800       0.0%    100.0%      0.0%
 flops     5 x    13 x   120           7355821200       0.0%    100.0%      0.0%
 flops    13 x    13 x   120           8838145680       0.0%    100.0%      0.0%
 flops     5 x     5 x    96           9263116800       0.0%    100.0%      0.0%
 flops    13 x     5 x    96          11761975680       0.0%    100.0%      0.0%
 flops     5 x    13 x    96          11769313920       0.0%    100.0%      0.0%
 flops    13 x    20 x   120          12762422400       0.0%    100.0%      0.0%
 flops    20 x    13 x   120          12789940800       0.0%    100.0%      0.0%
 flops    20 x     5 x   120          13618080000       0.0%    100.0%      0.0%
 flops     5 x    20 x   120          13622784000       0.0%    100.0%      0.0%
 flops    13 x    13 x    96          14141033088       0.0%    100.0%      0.0%
 flops    13 x    20 x    96          20419875840       0.0%    100.0%      0.0%
 flops    20 x    13 x    96          20463905280       0.0%    100.0%      0.0%
 flops    20 x     5 x    96          21788928000       0.0%    100.0%      0.0%
 flops     5 x    20 x    96          21796454400       0.0%    100.0%      0.0%
 flops     5 x     5 x   128          80280345600       0.0%    100.0%      0.0%
 flops    13 x     5 x   128         101937122560       0.0%    100.0%      0.0%
 flops     5 x    13 x   128         102000720640       0.0%    100.0%      0.0%
 flops    20 x    20 x   120         110242944000       0.0%    100.0%      0.0%
 flops    13 x    13 x   128         122555620096       0.0%    100.0%      0.0%
 flops    20 x    20 x    96         176388710400       0.0%    100.0%      0.0%
 flops    13 x    20 x   128         176972257280       0.0%    100.0%      0.0%
 flops    20 x    13 x   128         177353845760       0.0%    100.0%      0.0%
 flops    20 x     5 x   128         188837376000       0.0%    100.0%      0.0%
 flops     5 x    20 x   128         188902604800       0.0%    100.0%      0.0%
 flops    20 x    20 x   128        1528702156800       0.0%    100.0%      0.0%
 flops inhomo. stacks                           0       0.0%      0.0%      0.0%
 flops total                         3.167706E+12       0.0%    100.0%      0.0%
 flops max/rank                     28.560369E+09       0.0%    100.0%      0.0%
 matmuls inhomo. stacks                         0       0.0%      0.0%      0.0%
 matmuls total                           77095424       0.0%    100.0%      0.0%
 number of processed stacks                898464       0.0%    100.0%      0.0%
 average stack size                                     0.0      85.8       0.0
 marketing flops                     6.557479E+12
 -------------------------------------------------------------------------------
 # multiplications                             49
 max memory usage/rank               1.627320E+09
 # max total images/rank                        2
 # max 3D layers                                1
 # MPI messages exchanged                  181888
 MPI messages size (bytes):
  total size                       112.419643E+09
  min size                         314.880000E+03
  max size                         845.824000E+03
  average size                     618.070688E+03
 MPI breakdown and total messages size (bytes):
             size <=      128                   0                        0
       128 < size <=     8192                   0                        0
      8192 < size <=    32768                   0                        0
     32768 < size <=   131072                   0                        0
    131072 < size <=  4194304              181888             112419635328
   4194304 < size <= 16777216                   0                        0
  16777216 < size                               0                        0
 -------------------------------------------------------------------------------

 *** WARNING in dbcsr_mm.F:290 :: Using a non-square number of MPI ranks ***
 *** might lead to poor performance. Used ranks: 128 Suggested: 121 256  ***

 -------------------------------------------------------------------------------
 -                                                                             -
 -                      DBCSR MESSAGE PASSING PERFORMANCE                      -
 -                                                                             -
 -------------------------------------------------------------------------------
 ROUTINE             CALLS      AVE VOLUME [Bytes]
 MP_Bcast               28                     12.
 MP_Allreduce          417                     11.
 MP_Alltoall          1384                 588776.
 MP_ISend             3136                 293400.
 MP_IRecv             3136                 286792.
 -------------------------------------------------------------------------------

 -------------------------------------------------------------------------------
 -                                                                             -
 -                                DBM STATISTICS                               -
 -                                                                             -
 -------------------------------------------------------------------------------
    M  x    N  x    K                                          COUNT     PERCENT
 -------------------------------------------------------------------------------

 -------------------------------------------------------------------------------
 -                                                                             -
 -                                GRID STATISTICS                              -
 -                                                                             -
 -------------------------------------------------------------------------------
 LP    KERNEL             BACKEND                              COUNT     PERCENT
 4     collocate general  REF                               19903114      22.32%
 4     integrate general  REF                               19776829      22.17%
 3     collocate general  REF                               13715149      15.38%
 3     integrate general  REF                               13656591      15.31%
 2     collocate general  REF                               10845807      12.16%
 2     integrate general  REF                               10624464      11.91%
 5     integrate general  REF                                 406186       0.46%
 0     collocate general  REF                                 131328       0.15%
 0     integrate general  REF                                  65664       0.07%
 1     integrate general  REF                                  65664       0.07%
 -------------------------------------------------------------------------------

 MEMORY| Estimated peak process memory [MiB]                                1814

 -------------------------------------------------------------------------------
 ----                             MULTIGRID INFO                            ----
 -------------------------------------------------------------------------------
 count for grid        1:        1095307          cutoff [a.u.]          200.00
 count for grid        2:        1090523          cutoff [a.u.]           66.67
 count for grid        3:         714246          cutoff [a.u.]           22.22
 count for grid        4:         552715          cutoff [a.u.]            7.41
 total gridlevel count  :        3452791

 -------------------------------------------------------------------------------
 -                                                                             -
 -                         MESSAGE PASSING PERFORMANCE                         -
 -                                                                             -
 -------------------------------------------------------------------------------

 ROUTINE             CALLS      AVE VOLUME [Bytes]
 MP_Group                4
 MP_Bcast              250                2281456.
 MP_Allreduce         3665                  29446.
 MP_Sync               102
 MP_Alltoall          2962               16317151.
 MP_SendRecv           508                   6273.
 MP_ISendRecv        24892                  61740.
 MP_Wait             43978
 MP_comm_split          49
 MP_ISend            17988                 256002.
 MP_IRecv            17988                 256002.
 MP_Recv               183                1688832.
 MP_Write_All            3                1797408.
 -------------------------------------------------------------------------------


 -------------------------------------------------------------------------------
 -                                                                             -
 -                           R E F E R E N C E S                               -
 -                                                                             -
 -------------------------------------------------------------------------------
 
 CP2K version 2022.1, the CP2K developers group (2022).
 CP2K is freely available from https://www.cp2k.org/ .

 Kuehne,Thomas D.; Iannuzzi,Marcella; Del Ben,Mauro;
 Rybkin,Vladimir V.; Seewald,Patrick; Stein,Frederick; Laino,Teodoro;
 Khaliullin,Rustam Z.; Schuett,Ole; Schiffmann,Florian; Golze,Dorothea;
 Wilhelm,Jan; Chulkov,Sergey; Bani-Hashemian,Mohammad Hossein;
 Weber,Valery; Borstnik,Urban; Taillefumier,Mathieu;
 Jakobovits,Alice Shoshana; Lazzaro,Alfio; Pabst,Hans; Mueller,Tiziano;
 Schade,Robert; Guidon,Manuel; Andermatt,Samuel; Holmberg,Nico;
 Schenter,Gregory K.; Hehn,Anna; Bussy,Augustin; Belleflamme,Fabian;
 Tabacchi,Gloria; Gloess,Andreas; Lass,Michael; Bethune,Iain;
 Mundy,Christopher J.; Plessl,Christian; Watkins,Matt;
 VandeVondele,Joost; Krack,Matthias; Hutter,Juerg. 
 The Journal of Chemical Physics, 152 (19), (2020). 
 CP2K: An electronic structure and molecular dynamics software package -
 Quickstep: Efficient and accurate electronic structure calculations.
 https://doi.org/10.1063/5.0007045

 Goerigk, Lars; Hansen, Andreas; Bauer, Christoph; Ehrlich, Stephan;
 Najibi, Asim; Grimme, Stefan. , 19 (48), (2017). 
 A look at the density functional theory zoo with the advanced GMTKN55 database
 for general main group thermochemistry, kinetics and noncovalent interactions.
 https://doi.org/10.1039/C7CP04913G

 Bani-Hashemian, MH; Bruck, S; Luisier, M; VandeVondele, J. 
 JOURNAL OF CHEMICAL PHYSICS, 144 (4), 044113 (2016). 
 A generalized Poisson solver for first-principles device simulations.
 https://doi.org/10.1063/1.4940796

 Schuett, Ole; Messmer, Peter; Hutter, Juerg; VandeVondele, Joost. 
 Electronic Structure Calculations on Graphics Processing Units, John
 Wiley & Sons, Ltd, 173-190 (2016). 
 GPU-Accelerated Sparse Matrix-Matrix Multiplication for
 Linear Scaling Density Functional Theory.
 https://doi.org/10.1002/9781118670712.ch8

 Heinecke, A; Henry, G; Hutchinson, M; Pabst, H. 
 Proceedings of Intl. Supercomputing Conference, 981-991 (2016). 
 LIBXSMM: Accelerating Small Matrix Multiplications
 by Runtime Code Generation.
 https://doi.org/10.1109/SC.2016.83

 Borstnik, U; VandeVondele, J; Weber, V; Hutter, J. 
 PARALLEL COMPUTING, 40 (5-6), 47-58 (2014). 
 Sparse matrix multiplication: The distributed block-compressed sparse
 row library.
 https://doi.org/10.1016/j.parco.2014.03.012

 Hutter, J; Iannuzzi, M; Schiffmann, F; VandeVondele, J. 
 WIREs Comput Mol Sci., 4 (1), 15-25 (2014). 
 CP2K: atomistic simulations of condensed matter systems.
 https://doi.org/10.1002/wcms.1159

 Marek, A; Blum, V; Johanni, R; Havu, V; Lang, B; Auckenthaler, T;
 Heinecke, A; Bungartz, H; Lederer, H. 
 Journal of Physics: Condensed Matter, 26 (21), (2014). 
 The ELPA library: scalable parallel eigenvalue solutions for
 electronic structure
 theory and computational science.
 https://doi.org/10.1088/0953-8984/26/21/213201

 Grimme, S; Ehrlich, S; Goerigk, L. 
 JOURNAL OF COMPUTATIONAL CHEMISTRY, 32, 1456 (2011). 
 Effect of the damping function in dispersion corrected density functional theory.
 https://doi.org/10.1002/jcc.21759

 Grimme, S; Antony, J; Ehrlich, S; Krieg, H. 
 JOURNAL OF CHEMICAL PHYSICS, 132 (15), 154104 (2010). 
 A consistent and accurate ab initio parametrization of density
 functional dispersion correction (DFT-D) for the 94 elements H-Pu.
 https://doi.org/10.1063/1.3382344

 VandeVondele, J; Hutter, J. 
 JOURNAL OF CHEMICAL PHYSICS, 127 (11), 114105 (2007). 
 Gaussian basis sets for accurate calculations on molecular systems in
 gas and condensed phases.
 https://doi.org/10.1063/1.2770708

 Krack, M. 
 THEORETICAL CHEMISTRY ACCOUNTS, 114 (1-3), 145-152 (2005). 
 Pseudopotentials for H to Kr optimized for gradient-corrected
 exchange-correlation functionals.
 https://doi.org/10.1007/s00214-005-0655-y

 VandeVondele, J; Krack, M; Mohamed, F; Parrinello, M; Chassaing, T;
 Hutter, J. COMPUTER PHYSICS COMMUNICATIONS, 167 (2), 103-128 (2005). 
 QUICKSTEP: Fast and accurate density functional calculations using a
 mixed Gaussian and plane waves approach.
 https://doi.org/10.1016/j.cpc.2004.12.014

 Frigo, M; Johnson, SG. 
 PROCEEDINGS OF THE IEEE, 93 (2), 216-231 (2005). 
 The design and implementation of FFTW3.
 https://doi.org/10.1109/JPROC.2004.840301

 Hartwigsen, C; Goedecker, S; Hutter, J. 
 PHYSICAL REVIEW B, 58 (7), 3641-3662 (1998). 
 Relativistic separable dual-space Gaussian pseudopotentials from H to Rn.
 https://doi.org/10.1103/PhysRevB.58.3641

 Lippert, G; Hutter, J; Parrinello, M. 
 MOLECULAR PHYSICS, 92 (3), 477-487 (1997). 
 A hybrid Gaussian and plane wave density functional scheme.
 https://doi.org/10.1080/002689797170220

 Perdew, JP; Burke, K; Ernzerhof, M. 
 PHYSICAL REVIEW LETTERS, 77 (18), 3865-3868 (1996). 
 Generalized gradient approximation made simple.
 https://doi.org/10.1103/PhysRevLett.77.3865

 Goedecker, S; Teter, M; Hutter, J. 
 PHYSICAL REVIEW B, 54 (3), 1703-1710 (1996). 
 Separable dual-space Gaussian pseudopotentials.
 https://doi.org/10.1103/PhysRevB.54.1703


 -------------------------------------------------------------------------------
 -                                                                             -
 -                                T I M I N G                                  -
 -                                                                             -
 -------------------------------------------------------------------------------
 SUBROUTINE                       CALLS  ASD         SELF TIME        TOTAL TIME
                                MAXIMUM       AVERAGE  MAXIMUM  AVERAGE  MAXIMUM
 CP2K                                 1  1.0    0.021    0.031  346.564  346.565
 qs_forces                            1  2.0    0.002    0.002  346.245  346.246
 qs_energies                          1  3.0    0.000    0.001  339.987  339.990
 scf_env_do_scf                       1  4.0    0.000    0.001  331.781  331.917
 scf_env_do_scf_inner_loop           48  5.0    0.003    0.006  331.781  331.917
 rebuild_ks_matrix                   49  6.9    0.000    0.000  178.290  178.353
 qs_ks_build_kohn_sham_matrix        49  7.9    0.008    0.009  178.290  178.353
 qs_ks_update_qs_env                 48  6.0    0.000    0.000  174.251  174.313
 pw_transfer                       2552 12.2    0.186    0.252  111.538  113.865
 fft_wrap_pw1pw2                   2552 13.2    0.025    0.032  111.352  113.639
 fft_wrap_pw1pw2_200               2258 14.4    7.493    8.954  109.809  112.004
 pw_poisson_solve                    49  8.9    0.005    0.012   96.063   96.105
 qs_scf_new_mos                      48  6.0    0.002    0.005   93.650   93.786
 fft3d_ps                          2552 15.2   32.037   35.558   89.573   92.746
 implicit_poisson_solver_mixed_      49  9.9    2.016    2.478   90.968   91.028
 eigensolver                         48  7.0    0.004    0.006   87.998   88.293
 derive_fft                         294 12.1    0.019    0.022   63.725   63.885
 cp_fm_diag_elpa                     49  8.0    0.001    0.001   61.990   62.145
 cp_fm_redistribute_end              49  9.0    8.095   61.427    8.193   61.485
 cp_fm_diag_elpa_base                49  9.0   52.487   60.088   52.994   60.683
 mp_alltoall_z22v                  2552 17.2   48.187   59.445   48.187   59.445
 qs_rho_update_rho_low               49  6.0    0.000    0.001   56.336   56.346
 calculate_rho_elec                  49  7.0    0.095    0.117   56.336   56.346
 sum_up_and_integrate                49  8.9    0.266    0.325   55.077   55.136
 integrate_v_rspace                  49  9.9    0.002    0.004   54.812   54.947
 apply_P_operator                   245 11.1    1.304    1.462   54.301   54.483
 grid_collocate_task_list            49  8.0   35.433   44.244   35.433   44.244
 grid_integrate_task_list            49 10.9   32.848   40.270   32.848   40.270
 x_to_yz                           1471 16.4    6.214    8.136   36.264   38.131
 rs_pw_transfer                     396 10.4    0.005    0.005   25.334   29.858
 cp_fm_triangular_multiply          144  8.0   27.215   27.548   27.215   27.548
 yz_to_x                            787 16.4    2.140    2.511   20.079   27.262
 qs_vxc_create                       49  8.9    0.001    0.002   24.285   24.615
 xc_vxc_pw_create                    49  9.9    0.417    0.517   24.283   24.614
 density_rs2pw                       49  8.0    0.003    0.004   19.638   24.302
 xc_pw_derive                       294 11.9    0.004    0.005   17.131   18.947
 rs_pw_transfer_RS2PW_200            51  9.9    3.318    3.699   12.156   16.661
 mp_waitany                       17988 12.4   11.959   16.583   11.959   16.583
 apply_poisson_operator_fft          49 10.9    0.001    0.001   16.006   16.268
 apply_inv_laplace_operator_fft     149 11.6    0.374    0.415   14.598   15.116
 potential_pw2rs                     49 10.9    0.015    0.016   13.893   13.998
 mp_alltoall_d11v                   693 10.2    9.755   13.877    9.755   13.877
 xc_pw_divergence                    49 10.9    0.002    0.003   11.600   13.000
 xc_rho_set_and_dset_create          49 10.9    0.243    0.291   11.841   12.564
 rs_gather_matrices                  49 10.9    0.059    0.073    8.058   12.058
 ps_implicit_compute_error_fft       98 10.9    0.616    0.746   10.803   11.566
 ps_implicit_compute_veps            49 10.9    0.284    0.340   11.016   11.191
 pw_scatter_p                      1618 15.4    9.091   10.624    9.091   10.624
 gspace_mixing                       47  6.0    0.090    0.135    8.395    8.404
 rs_pw_transfer_PW2RS_200            51 12.8    3.839    4.030    8.015    8.239
 pw_derive                         1176 13.1    7.462    7.994    7.462    7.994
 -------------------------------------------------------------------------------

 The number of warnings for this run is : 1
 
 -------------------------------------------------------------------------------
  **** **** ******  **  PROGRAM ENDED AT                 2023-12-03 03:47:31.160
 ***** ** ***  *** **   PROGRAM RAN ON                                     cu001
 **    ****   ******    PROGRAM RAN BY                                     jxzhu
 ***** **    ** ** **   PROGRAM PROCESS ID                                 62324
  **** **  *******  **  PROGRAM STOPPED IN /public/home/jxzhu/tmp_calc/84ed6c30c
                                           20967eb80f6f397f5ab5ecb6e8bdd2f/calc/
                                           002600.000/search_lo.000000
