 DBCSR| CPU Multiplication driver                                           XSMM
 DBCSR| Multrec recursion limit                                              512
 DBCSR| Multiplication stack size                                           1000
 DBCSR| Maximum elements for images                                    UNLIMITED
 DBCSR| Multiplicative factor virtual images                                   1
 DBCSR| Use multiplication densification                                       T
 DBCSR| Multiplication size stacks                                             3
 DBCSR| Use memory pool for CPU allocation                                     F
 DBCSR| Number of 3D layers                                               SINGLE
 DBCSR| Use MPI memory allocation                                              F
 DBCSR| Use RMA algorithm                                                      F
 DBCSR| Use Communication thread                                               T
 DBCSR| Communication thread load                                             87
 DBCSR| MPI: My node id                                                        0
 DBCSR| MPI: Number of nodes                                                  64
 DBCSR| OMP: Current number of threads                                         1
 DBCSR| OMP: Max number of threads                                             1
 DBCSR| Split modifier for TAS multiplication algorithm                  1.0E+00


  **** **** ******  **  PROGRAM STARTED AT               2023-11-26 22:17:33.582
 ***** ** ***  *** **   PROGRAM STARTED ON                                 cu054
 **    ****   ******    PROGRAM STARTED BY                                 jxzhu
 ***** **    ** ** **   PROGRAM PROCESS ID                                 31130
  **** **  *******  **  PROGRAM STARTED IN /public/home/jxzhu/tmp_calc/af2075565
                                           805657d94fa4669dad6f4b174b0a4fb/calc/
                                           000100.000/pbc

 CP2K| version string:                                       CP2K version 2022.1
 CP2K| source code revision number:                                  git:2caeb6f
 CP2K| cp2kflags: omp libint fftw3 libxc elpa parallel mpi3 scalapack cosma xsmm
 CP2K|             plumed2 spglib mkl sirius libvori libbqb
 CP2K| is freely available from                            https://www.cp2k.org/
 CP2K| Program compiled at                           Mon Jul 3 17:37:06 CST 2023
 CP2K| Program compiled on                                                 mu003
 CP2K| Program compiled for                                                local
 CP2K| Data directory path                             /public/home/jxzhu/basis/
 CP2K| Input file name                                                 input.inp
 
 GLOBAL| Force Environment number                                              1
 GLOBAL| Basis set file name                                        BASIS_MOLOPT
 GLOBAL| Potential file name                                      GTH_POTENTIALS
 GLOBAL| MM Potential file name                                     MM_POTENTIAL
 GLOBAL| Coordinate file name                                          coord.xyz
 GLOBAL| Method name                                                        CP2K
 GLOBAL| Project name                                                       cp2k
 GLOBAL| Run type                                                   ENERGY_FORCE
 GLOBAL| FFT library                                                       FFTW3
 GLOBAL| Diagonalization library                                            ELPA
 GLOBAL| Minimum number of eigenvectors for ELPA usage                        16
 GLOBAL| Orthonormality check for eigenvectors                          DISABLED
 GLOBAL| Matrix multiplication library                                     COSMA
 GLOBAL| All-to-all communication in single precision                          F
 GLOBAL| FFTs using library dependent lengths                                  F
 GLOBAL| Grid backend                                                       AUTO
 GLOBAL| Global print level                                               MEDIUM
 GLOBAL| MPI I/O enabled                                                       T
 GLOBAL| Total number of message passing processes                            64
 GLOBAL| Number of threads for this process                                    1
 GLOBAL| This output is from process                                           0
 GLOBAL| Stack size for threads created by OpenMP (OMP_STACKSIZE)        default
 GLOBAL| CPU model name                 Intel(R) Xeon(R) Gold 6338 CPU @ 2.00GHz
 GLOBAL| CPUID                                                              1003

 MEMORY| system memory details [Kb]
 MEMORY|                        rank 0           min           max       average
 MEMORY| MemTotal            263619172     263619172     263619172     263619172
 MEMORY| MemFree             209659700     209659700     209664040     209661017
 MEMORY| Buffers                  3320          3320          3320          3320
 MEMORY| Cached                4966828       4966828       4966828       4966828
 MEMORY| Slab                  1901680       1901680       1901680       1901680
 MEMORY| SReclaimable           246720        246720        246720        246720
 MEMORY| MemLikelyFree       214876568     214876568     214880908     214877885


 *** Fundamental physical constants (SI units) ***

 *** Literature: B. J. Mohr and B. N. Taylor,
 ***             CODATA recommended values of the fundamental physical
 ***             constants: 2006, Web Version 5.1
 ***             http://physics.nist.gov/constants

 Speed of light in vacuum [m/s]                             2.99792458000000E+08
 Magnetic constant or permeability of vacuum [N/A**2]       1.25663706143592E-06
 Electric constant or permittivity of vacuum [F/m]          8.85418781762039E-12
 Planck constant (h) [J*s]                                  6.62606896000000E-34
 Planck constant (h-bar) [J*s]                              1.05457162825177E-34
 Elementary charge [C]                                      1.60217648700000E-19
 Electron mass [kg]                                         9.10938215000000E-31
 Electron g factor [ ]                                     -2.00231930436220E+00
 Proton mass [kg]                                           1.67262163700000E-27
 Fine-structure constant                                    7.29735253760000E-03
 Rydberg constant [1/m]                                     1.09737315685270E+07
 Avogadro constant [1/mol]                                  6.02214179000000E+23
 Boltzmann constant [J/K]                                   1.38065040000000E-23
 Atomic mass unit [kg]                                      1.66053878200000E-27
 Bohr radius [m]                                            5.29177208590000E-11

 *** Conversion factors ***

 [u] -> [a.u.]                                              1.82288848426455E+03
 [Angstrom] -> [Bohr] = [a.u.]                              1.88972613288564E+00
 [a.u.] = [Bohr] -> [Angstrom]                              5.29177208590000E-01
 [a.u.] -> [s]                                              2.41888432650478E-17
 [a.u.] -> [fs]                                             2.41888432650478E-02
 [a.u.] -> [J]                                              4.35974393937059E-18
 [a.u.] -> [N]                                              8.23872205491840E-08
 [a.u.] -> [K]                                              3.15774647902944E+05
 [a.u.] -> [kJ/mol]                                         2.62549961709828E+03
 [a.u.] -> [kcal/mol]                                       6.27509468713739E+02
 [a.u.] -> [Pa]                                             2.94210107994716E+13
 [a.u.] -> [bar]                                            2.94210107994716E+08
 [a.u.] -> [atm]                                            2.90362800883016E+08
 [a.u.] -> [eV]                                             2.72113838565563E+01
 [a.u.] -> [Hz]                                             6.57968392072181E+15
 [a.u.] -> [1/cm] (wave numbers)                            2.19474631370540E+05
 [a.u./Bohr**2] -> [1/cm]                                   5.14048714338585E+03
 

 CELL_TOP| Volume [angstrom^3]:                                     10221.806009
 CELL_TOP| Vector a [angstrom    16.869     0.000     0.000   |a| =    16.869000
 CELL_TOP| Vector b [angstrom    -8.434    14.609     0.000   |b| =    16.869015
 CELL_TOP| Vector c [angstrom     0.000     0.000    41.478   |c| =    41.478000
 CELL_TOP| Angle (b,c), alpha [degree]:                                90.000000
 CELL_TOP| Angle (a,c), beta  [degree]:                                90.000000
 CELL_TOP| Angle (a,b), gamma [degree]:                               119.999970
 CELL_TOP| Numerically orthorhombic:                                          NO
 
 GENERATE|  Preliminary Number of Bonds generated:                             0
 GENERATE|  Achieved consistency in connectivity generation.

 CELL| Volume [angstrom^3]:                                         10221.806009
 CELL| Vector a [angstrom]:      16.869     0.000     0.000   |a| =    16.869000
 CELL| Vector b [angstrom]:      -8.434    14.609     0.000   |b| =    16.869015
 CELL| Vector c [angstrom]:       0.000     0.000    41.478   |c| =    41.478000
 CELL| Angle (b,c), alpha [degree]:                                    90.000000
 CELL| Angle (a,c), beta  [degree]:                                    90.000000
 CELL| Angle (a,b), gamma [degree]:                                   119.999970
 CELL| Numerically orthorhombic:                                              NO

 CELL_REF| Volume [angstrom^3]:                                     10221.806009
 CELL_REF| Vector a [angstrom    16.869     0.000     0.000   |a| =    16.869000
 CELL_REF| Vector b [angstrom    -8.434    14.609     0.000   |b| =    16.869015
 CELL_REF| Vector c [angstrom     0.000     0.000    41.478   |c| =    41.478000
 CELL_REF| Angle (b,c), alpha [degree]:                                90.000000
 CELL_REF| Angle (a,c), beta  [degree]:                                90.000000
 CELL_REF| Angle (a,b), gamma [degree]:                               119.999970
 CELL_REF| Numerically orthorhombic:                                          NO

 *******************************************************************************
 *******************************************************************************
 **                                                                           **
 **     #####                         ##              ##                      **
 **    ##   ##            ##          ##              ##                      **
 **   ##     ##                       ##            ######                    **
 **   ##     ##  ##   ##  ##   #####  ##  ##   ####   ##    #####    #####    **
 **   ##     ##  ##   ##  ##  ##      ## ##   ##      ##   ##   ##  ##   ##   **
 **   ##  ## ##  ##   ##  ##  ##      ####     ###    ##   ######   ######    **
 **    ##  ###   ##   ##  ##  ##      ## ##      ##   ##   ##       ##        **
 **     #######   #####   ##   #####  ##  ##  ####    ##    #####   ##        **
 **           ##                                                    ##        **
 **                                                                           **
 **                                                ... make the atoms dance   **
 **                                                                           **
 **            Copyright (C) by CP2K developers group (2000-2022)             **
 **                      J. Chem. Phys. 152, 194103 (2020)                    **
 **                                                                           **
 *******************************************************************************

 DFT| Spin restricted Kohn-Sham (RKS) calculation                            RKS
 DFT| Multiplicity                                                             1
 DFT| Number of spin states                                                    1
 DFT| Charge                                                                   0
 DFT| Self-interaction correction (SIC)                                       NO
 DFT| Cutoffs: density                                              1.000000E-10
 DFT|          gradient                                             1.000000E-10
 DFT|          tau                                                  1.000000E-10
 DFT|          cutoff_smoothing_range                               0.000000E+00
 DFT| XC density smoothing                                                  NONE
 DFT| XC derivatives                                                          PW

 FUNCTIONAL| PBE:
 FUNCTIONAL| J.P.Perdew, K.Burke, M.Ernzerhof, Phys. Rev. Letter, vol. 77, n 18,
 FUNCTIONAL|  pp. 3865-3868, (1996){spin unpolarized}                           

 vdW POTENTIAL|                                                   Pair Potential
 vdW POTENTIAL|          DFT-D3 (Version 3.1)
 vdW POTENTIAL|          Potential Form: S. Grimme et al, JCP 132: 154104 (2010)
 vdW POTENTIAL|          Zero Damping
 vdW POTENTIAL|          Cutoff Radius [Bohr]:                             20.00
 vdW POTENTIAL|          s6 Scaling Factor:                               1.0000
 vdW POTENTIAL|          sr6 Scaling Factor:                              1.2170
 vdW POTENTIAL|          s8 Scaling Factor:                               0.7220
 vdW POTENTIAL|          Cutoff for CN calculation:                   0.1000E-05

 QS| Method:                                                                 GPW
 QS| Density plane wave grid type                        NON-SPHERICAL FULLSPACE
 QS| Number of grid levels:                                                    4
 QS| Density cutoff [a.u.]:                                                200.0
 QS| Multi grid cutoff [a.u.]: 1) grid level                               200.0
 QS|                           2) grid level                                66.7
 QS|                           3) grid level                                22.2
 QS|                           4) grid level                                 7.4
 QS| Grid level progression factor:                                          3.0
 QS| Relative density cutoff [a.u.]:                                        20.0
 QS| Interaction thresholds: eps_pgf_orb:                                3.2E-07
 QS|                         eps_filter_matrix:                          0.0E+00
 QS|                         eps_core_charge:                            1.0E-15
 QS|                         eps_rho_gspace:                             1.0E-13
 QS|                         eps_rho_rspace:                             1.0E-13
 QS|                         eps_gvg_rspace:                             3.2E-07
 QS|                         eps_ppl:                                    1.0E-02
 QS|                         eps_ppnl:                                   3.2E-09


 ATOMIC KIND INFORMATION

  1. Atomic kind: O                                     Number of atoms:     230

     Orbital Basis Set                                        DZVP-MOLOPT-SR-GTH

       Number of orbital shell sets:                                           1
       Number of orbital shells:                                               5
       Number of primitive Cartesian functions:                                5
       Number of Cartesian basis functions:                                   14
       Number of spherical basis functions:                                   13
       Norm type:                                                              2

       Normalised Cartesian orbitals:

                        Set   Shell   Orbital            Exponent    Coefficient

                          1       1    2s               10.389228       0.396646
                                                         3.849621       0.208811
                                                         1.388401      -0.301641
                                                         0.496955      -0.274061
                                                         0.162492      -0.033677

                          1       2    3s               10.389228       0.303673
                                                         3.849621       0.240943
                                                         1.388401      -0.313066
                                                         0.496955      -0.043055
                                                         0.162492       0.213991

                          1       3    3px              10.389228      -1.530415
                                                         3.849621      -1.371928
                                                         1.388401      -0.761951
                                                         0.496955      -0.253695
                                                         0.162492      -0.035541
                          1       3    3py              10.389228      -1.530415
                                                         3.849621      -1.371928
                                                         1.388401      -0.761951
                                                         0.496955      -0.253695
                                                         0.162492      -0.035541
                          1       3    3pz              10.389228      -1.530415
                                                         3.849621      -1.371928
                                                         1.388401      -0.761951
                                                         0.496955      -0.253695
                                                         0.162492      -0.035541

                          1       4    4px              10.389228      -0.565392
                                                         3.849621      -0.038231
                                                         1.388401      -0.382373
                                                         0.496955       0.179070
                                                         0.162492       0.122714
                          1       4    4py              10.389228      -0.565392
                                                         3.849621      -0.038231
                                                         1.388401      -0.382373
                                                         0.496955       0.179070
                                                         0.162492       0.122714
                          1       4    4pz              10.389228      -0.565392
                                                         3.849621      -0.038231
                                                         1.388401      -0.382373
                                                         0.496955       0.179070
                                                         0.162492       0.122714

                          1       5    4dx2             10.389228       1.867377
                                                         3.849621       0.670994
                                                         1.388401       1.353441
                                                         0.496955       0.273538
                                                         0.162492       0.006620
                          1       5    4dxy             10.389228       3.234392
                                                         3.849621       1.162195
                                                         1.388401       2.344229
                                                         0.496955       0.473781
                                                         0.162492       0.011466
                          1       5    4dxz             10.389228       3.234392
                                                         3.849621       1.162195
                                                         1.388401       2.344229
                                                         0.496955       0.473781
                                                         0.162492       0.011466
                          1       5    4dy2             10.389228       1.867377
                                                         3.849621       0.670994
                                                         1.388401       1.353441
                                                         0.496955       0.273538
                                                         0.162492       0.006620
                          1       5    4dyz             10.389228       3.234392
                                                         3.849621       1.162195
                                                         1.388401       2.344229
                                                         0.496955       0.473781
                                                         0.162492       0.011466
                          1       5    4dz2             10.389228       1.867377
                                                         3.849621       0.670994
                                                         1.388401       1.353441
                                                         0.496955       0.273538
                                                         0.162492       0.006620

       Atomic covalent radius [Angstrom]:                                  0.730

       Atomic van der Waals radius [Angstrom]:                             1.520

     GTH Potential information for                                    GTH-PBE-q6

       Description:                       Goedecker-Teter-Hutter pseudopotential
                                           Goedecker et al., PRB 54, 1703 (1996)
                                          Hartwigsen et al., PRB 58, 3641 (1998)
                                                      Krack, TCA 114, 145 (2005)

       Gaussian exponent of the core charge distribution:               8.360253
       Electronic configuration (s p d ...):                               2   4

       Parameters of the local part of the GTH pseudopotential:

                          rloc        C1          C2          C3          C4
                        0.244554  -16.667215    2.487311

       Parameters of the non-local part of the GTH pseudopotential:

                   l      r(l)      h(i,j,l)

                   0    0.220956   18.337458
                   1    0.211332

  2. Atomic kind: H                                     Number of atoms:     460

     Orbital Basis Set                                        DZVP-MOLOPT-SR-GTH

       Number of orbital shell sets:                                           1
       Number of orbital shells:                                               3
       Number of primitive Cartesian functions:                                5
       Number of Cartesian basis functions:                                    5
       Number of spherical basis functions:                                    5
       Norm type:                                                              2

       Normalised Cartesian orbitals:

                        Set   Shell   Orbital            Exponent    Coefficient

                          1       1    2s               10.068468      -0.133023
                                                         2.680223      -0.177618
                                                         0.791502      -0.258419
                                                         0.239116      -0.107525
                                                         0.082193      -0.014019

                          1       2    3s               10.068468       0.344673
                                                         2.680223       1.819821
                                                         0.791502      -0.999069
                                                         0.239116       0.017430
                                                         0.082193       0.082660

                          1       3    3px              10.068468       0.155326
                                                         2.680223       0.367157
                                                         0.791502       0.311480
                                                         0.239116       0.080105
                                                         0.082193       0.033440
                          1       3    3py              10.068468       0.155326
                                                         2.680223       0.367157
                                                         0.791502       0.311480
                                                         0.239116       0.080105
                                                         0.082193       0.033440
                          1       3    3pz              10.068468       0.155326
                                                         2.680223       0.367157
                                                         0.791502       0.311480
                                                         0.239116       0.080105
                                                         0.082193       0.033440

       Atomic covalent radius [Angstrom]:                                  0.320

       Atomic van der Waals radius [Angstrom]:                             1.090

     GTH Potential information for                                    GTH-PBE-q1

       Description:                       Goedecker-Teter-Hutter pseudopotential
                                           Goedecker et al., PRB 54, 1703 (1996)
                                          Hartwigsen et al., PRB 58, 3641 (1998)
                                                      Krack, TCA 114, 145 (2005)

       Gaussian exponent of the core charge distribution:              12.500000
       Electronic configuration (s p d ...):                                   1

       Parameters of the local part of the GTH pseudopotential:

                          rloc        C1          C2          C3          C4
                        0.200000   -4.178900    0.724463

  3. Atomic kind: Pt                                    Number of atoms:     216

     Orbital Basis Set                      DZVP-A5-Q10-323-MOL-T1-DERIVED_SET-1

       Number of orbital shell sets:                                           1
       Number of orbital shells:                                               6
       Number of primitive Cartesian functions:                                5
       Number of Cartesian basis functions:                                   23
       Number of spherical basis functions:                                   20
       Norm type:                                                              2

       Normalised Cartesian orbitals:

                        Set   Shell   Orbital            Exponent    Coefficient

                          1       1    2s                2.521825       0.177473
                                                         1.453920      -0.063399
                                                         0.614053      -0.407089
                                                         0.232656       0.262254
                                                         0.074788       0.047371

                          1       2    3s                2.521825      -0.049056
                                                         1.453920       0.044904
                                                         0.614053      -0.009756
                                                         0.232656      -0.144709
                                                         0.074788       0.144085

                          1       3    3px               2.521825      -0.317572
                                                         1.453920       0.534826
                                                         0.614053      -0.489458
                                                         0.232656       0.245631
                                                         0.074788       0.018221
                          1       3    3py               2.521825      -0.317572
                                                         1.453920       0.534826
                                                         0.614053      -0.489458
                                                         0.232656       0.245631
                                                         0.074788       0.018221
                          1       3    3pz               2.521825      -0.317572
                                                         1.453920       0.534826
                                                         0.614053      -0.489458
                                                         0.232656       0.245631
                                                         0.074788       0.018221

                          1       4    4dx2              2.521825       3.008522
                                                         1.453920      -1.224251
                                                         0.614053       0.225691
                                                         0.232656       0.125144
                                                         0.074788      -0.015348
                          1       4    4dxy              2.521825       5.210912
                                                         1.453920      -2.120465
                                                         0.614053       0.390909
                                                         0.232656       0.216756
                                                         0.074788      -0.026584
                          1       4    4dxz              2.521825       5.210912
                                                         1.453920      -2.120465
                                                         0.614053       0.390909
                                                         0.232656       0.216756
                                                         0.074788      -0.026584
                          1       4    4dy2              2.521825       3.008522
                                                         1.453920      -1.224251
                                                         0.614053       0.225691
                                                         0.232656       0.125144
                                                         0.074788      -0.015348
                          1       4    4dyz              2.521825       5.210912
                                                         1.453920      -2.120465
                                                         0.614053       0.390909
                                                         0.232656       0.216756
                                                         0.074788      -0.026584
                          1       4    4dz2              2.521825       3.008522
                                                         1.453920      -1.224251
                                                         0.614053       0.225691
                                                         0.232656       0.125144
                                                         0.074788      -0.015348

                          1       5    5dx2              2.521825       0.698026
                                                         1.453920      -1.511486
                                                         0.614053      -0.335394
                                                         0.232656      -0.025564
                                                         0.074788      -0.002699
                          1       5    5dxy              2.521825       1.209017
                                                         1.453920      -2.617970
                                                         0.614053      -0.580920
                                                         0.232656      -0.044277
                                                         0.074788      -0.004674
                          1       5    5dxz              2.521825       1.209017
                                                         1.453920      -2.617970
                                                         0.614053      -0.580920
                                                         0.232656      -0.044277
                                                         0.074788      -0.004674
                          1       5    5dy2              2.521825       0.698026
                                                         1.453920      -1.511486
                                                         0.614053      -0.335394
                                                         0.232656      -0.025564
                                                         0.074788      -0.002699
                          1       5    5dyz              2.521825       1.209017
                                                         1.453920      -2.617970
                                                         0.614053      -0.580920
                                                         0.232656      -0.044277
                                                         0.074788      -0.004674
                          1       5    5dz2              2.521825       0.698026
                                                         1.453920      -1.511486
                                                         0.614053      -0.335394
                                                         0.232656      -0.025564
                                                         0.074788      -0.002699

                          1       6    6dx2              2.521825       0.831079
                                                         1.453920      -0.709226
                                                         0.614053      -0.137351
                                                         0.232656       0.068642
                                                         0.074788       0.011745
                          1       6    6dxy              2.521825       1.439472
                                                         1.453920      -1.228415
                                                         0.614053      -0.237899
                                                         0.232656       0.118891
                                                         0.074788       0.020343
                          1       6    6dxz              2.521825       1.439472
                                                         1.453920      -1.228415
                                                         0.614053      -0.237899
                                                         0.232656       0.118891
                                                         0.074788       0.020343
                          1       6    6dy2              2.521825       0.831079
                                                         1.453920      -0.709226
                                                         0.614053      -0.137351
                                                         0.232656       0.068642
                                                         0.074788       0.011745
                          1       6    6dyz              2.521825       1.439472
                                                         1.453920      -1.228415
                                                         0.614053      -0.237899
                                                         0.232656       0.118891
                                                         0.074788       0.020343
                          1       6    6dz2              2.521825       0.831079
                                                         1.453920      -0.709226
                                                         0.614053      -0.137351
                                                         0.232656       0.068642
                                                         0.074788       0.011745

       Atomic covalent radius [Angstrom]:                                  1.300

       Atomic van der Waals radius [Angstrom]:                             1.750

     GTH Potential information for                                   GTH-PBE-q10

       Description:                       Goedecker-Teter-Hutter pseudopotential
                                           Goedecker et al., PRB 54, 1703 (1996)
                                          Hartwigsen et al., PRB 58, 3641 (1998)
                                                      Krack, TCA 114, 145 (2005)

       Gaussian exponent of the core charge distribution:               1.317676
       Electronic configuration (s p d ...):                           1   0   9

       Parameters of the local part of the GTH pseudopotential:

                          rloc        C1          C2          C3          C4
                        0.616000   11.313635

       Parameters of the non-local part of the GTH pseudopotential:

                   l      r(l)      h(i,j,l)

                   0    0.550904    4.733491   -1.784594
                                   -1.784594    2.303901
                   1    0.674138    2.534798   -1.778066
                                   -1.778066    2.103836
                   2    0.457392   -7.264011    2.558665
                                    2.558665   -2.901253


 MOLECULE KIND INFORMATION


 All atoms are their own molecule, skipping detailed information


 TOTAL NUMBERS AND MAXIMUM NUMBERS

  Total number of            - Atomic kinds:                                   3
                             - Atoms:                                        906
                             - Shell sets:                                   906
                             - Shells:                                      3826
                             - Primitive Cartesian functions:               4530
                             - Cartesian basis functions:                  10488
                             - Spherical basis functions:                   9610

  Maximum angular momentum of- Orbital basis functions:                        2
                             - Local part of the GTH pseudopotential:          2
                             - Non-local part of the GTH pseudopotential:      4


 MODULE QUICKSTEP:  ATOMIC COORDINATES IN angstrom

 Atom  Kind  Element       X           Y           Z          Z(eff)       Mass
    1   1 O    8       2.710000    7.120000   15.270000       6.0000     15.9994
    2   2 H    1       3.480000    7.520000   15.720000       1.0000      1.0079
    3   2 H    1       2.310000    6.450000   15.910001       1.0000      1.0079
    4   1 O    8      12.750001   -2.510000   13.810000       6.0000     15.9994
    5   2 H    1      13.550000   -2.510000   14.390000       1.0000      1.0079
    6   2 H    1      12.020000   -2.350000   14.440001       1.0000      1.0079
    7   1 O    8       3.450000    3.880000   22.810001       6.0000     15.9994
    8   2 H    1       3.730000    3.670000   21.900002       1.0000      1.0079
    9   2 H    1       2.410000    3.620000   22.850000       1.0000      1.0079
   10   1 O    8       3.680000    4.420000   26.930000       6.0000     15.9994
   11   2 H    1       3.880000    4.100000   26.020002       1.0000      1.0079
   12   2 H    1       3.050000    3.840000   27.410002       1.0000      1.0079
   13   1 O    8       8.150001    5.210000   26.470001       6.0000     15.9994
   14   2 H    1       8.470000    6.060000   26.840000       1.0000      1.0079
   15   2 H    1       7.330000    5.000000   27.040003       1.0000      1.0079
   16   1 O    8      -1.440000   12.770000    9.040001       6.0000     15.9994
   17   2 H    1      -0.820000   13.460001    8.740000       1.0000      1.0079
   18   2 H    1      -1.950000   12.600001    8.220000       1.0000      1.0079
   19   1 O    8       1.100000   11.760000    8.010000       6.0000     15.9994
   20   2 H    1       1.530000   10.980000    8.450001       1.0000      1.0079
   21   2 H    1       0.120000   11.680001    8.220000       1.0000      1.0079
   22   1 O    8       3.500000   15.590000   19.420002       6.0000     15.9994
   23   2 H    1       4.340000   15.190001   19.080002       1.0000      1.0079
   24   2 H    1      11.690001    1.690000   18.840000       1.0000      1.0079
   25   1 O    8      -4.620000    2.630000   22.100000       6.0000     15.9994
   26   2 H    1      -5.450000    2.800000   22.600000       1.0000      1.0079
   27   2 H    1      -4.790000    2.100000   21.230001       1.0000      1.0079
   28   1 O    8      15.740002   12.910000   32.690002       6.0000     15.9994
   29   2 H    1      15.470000   12.800001   33.620003       1.0000      1.0079
   30   2 H    1      15.160000   12.350000   32.120003       1.0000      1.0079
   31   1 O    8       4.420000    5.790000   13.320000       6.0000     15.9994
   32   2 H    1       4.080000    6.040000   14.220000       1.0000      1.0079
   33   2 H    1       3.940000    6.340000   12.640000       1.0000      1.0079
   34   1 O    8       4.050000   10.090000   22.650002       6.0000     15.9994
   35   2 H    1       4.420000    9.930000   23.549999       1.0000      1.0079
   36   2 H    1       4.760000    9.840000   22.040001       1.0000      1.0079
   37   1 O    8       6.690001    4.390000   15.810001       6.0000     15.9994
   38   2 H    1       7.340000    3.770000   15.360001       1.0000      1.0079
   39   2 H    1       6.810000    5.240001   15.340000       1.0000      1.0079
   40   1 O    8       8.330001   15.750000    9.620001       6.0000     15.9994
   41   2 H    1       8.040000   14.850000    9.330000       1.0000      1.0079
   42   2 H    1       7.610001   16.210001   10.140000       1.0000      1.0079
   43   1 O    8      14.330001    3.100000   25.860003       6.0000     15.9994
   44   2 H    1      14.360001    3.170000   26.840000       1.0000      1.0079
   45   2 H    1      15.100001    3.590000   25.459999       1.0000      1.0079
   46   1 O    8      -6.490001    3.790000   26.500000       6.0000     15.9994
   47   2 H    1      -7.420001    4.310000   26.510000       1.0000      1.0079
   48   2 H    1      -6.670001    2.790000   26.460001       1.0000      1.0079
   49   1 O    8      -7.950000    8.920000   18.740002       6.0000     15.9994
   50   2 H    1      -8.010000    8.210000   19.400002       1.0000      1.0079
   51   2 H    1      -8.160001    9.830000   19.150002       1.0000      1.0079
   52   1 O    8       5.380001    2.850000   24.720001       6.0000     15.9994
   53   2 H    1       5.140000    1.850000   24.790001       1.0000      1.0079
   54   2 H    1       4.800000    3.230000   24.020002       1.0000      1.0079
   55   1 O    8      -4.610000    9.880000   25.820000       6.0000     15.9994
   56   2 H    1      -4.100000    9.710001   26.670000       1.0000      1.0079
   57   2 H    1      -3.820000   10.170001   25.220001       1.0000      1.0079
   58   1 O    8      12.090001    9.820001   29.950001       6.0000     15.9994
   59   2 H    1      11.880001    9.480001   30.860003       1.0000      1.0079
   60   2 H    1      11.490001   10.640000   29.830000       1.0000      1.0079
   61   1 O    8      -2.310000   21.180000   23.130001       6.0000     15.9994
   62   2 H    1      -2.030000   20.200001   23.390003       1.0000      1.0079
   63   2 H    1      14.960001   21.530001   22.350002       1.0000      1.0079
   64   1 O    8      -1.970000    2.020000   11.320001       6.0000     15.9994
   65   2 H    1      -1.630000    2.870000   11.880001       1.0000      1.0079
   66   2 H    1      14.280001    1.550000   11.910001       1.0000      1.0079
   67   1 O    8      16.240002   -1.420000    8.870000       6.0000     15.9994
   68   2 H    1       7.360001   12.780001    9.800000       1.0000      1.0079
   69   2 H    1      15.500001   -1.410000    8.180000       1.0000      1.0079
   70   1 O    8      -4.290000   11.650001   19.790001       6.0000     15.9994
   71   2 H    1      -4.630000   10.730000   19.590000       1.0000      1.0079
   72   2 H    1      -3.300000   11.610001   19.770000       1.0000      1.0079
   73   1 O    8       2.420000    8.180000   21.800001       6.0000     15.9994
   74   2 H    1       2.350000    7.340000   22.380001       1.0000      1.0079
   75   2 H    1       3.030000    8.830000   22.240002       1.0000      1.0079
   76   1 O    8      -2.610000    9.470000   32.459999       6.0000     15.9994
   77   2 H    1      -2.020000    8.650001   32.230000       1.0000      1.0079
   78   2 H    1      -2.470000    9.730001   33.400002       1.0000      1.0079
   79   1 O    8       3.560000    3.290000   20.360001       6.0000     15.9994
   80   2 H    1       2.600000    3.420000   20.090000       1.0000      1.0079
   81   2 H    1       4.010000    3.830000   19.650002       1.0000      1.0079
   82   1 O    8       8.970000    5.930000   11.990000       6.0000     15.9994
   83   2 H    1       8.580000    6.110000   11.080000       1.0000      1.0079
   84   2 H    1       8.250000    6.040000   12.660000       1.0000      1.0079
   85   1 O    8      -5.890000   10.330000   10.830001       6.0000     15.9994
   86   2 H    1      -5.040000   10.400001   10.340000       1.0000      1.0079
   87   2 H    1      -5.920000   11.110001   11.460000       1.0000      1.0079
   88   1 O    8      10.270000    1.510000   13.180000       6.0000     15.9994
   89   2 H    1      -7.080000    1.020000   12.420001       1.0000      1.0079
   90   2 H    1      10.330000    2.470000   12.770000       1.0000      1.0079
   91   1 O    8       7.100000    6.550000   32.590000       6.0000     15.9994
   92   2 H    1       6.770000    7.050000   33.360001       1.0000      1.0079
   93   2 H    1       6.460000    5.720000   32.510002       1.0000      1.0079
   94   1 O    8       7.010000   10.050000   10.600000       6.0000     15.9994
   95   2 H    1       6.290000    9.630001   10.010000       1.0000      1.0079
   96   2 H    1       7.890000    9.960001   10.110001       1.0000      1.0079
   97   1 O    8       1.020000    1.300000   16.360001       6.0000     15.9994
   98   2 H    1       0.890000    1.100000   17.350002       1.0000      1.0079
   99   2 H    1       1.930000    1.650000   16.190001       1.0000      1.0079
  100   1 O    8       0.170000   -1.430000   33.330002       6.0000     15.9994
  101   2 H    1      -0.700000   -0.940000   33.190002       1.0000      1.0079
  102   2 H    1       0.960000   -0.830000   33.049999       1.0000      1.0079
  103   1 O    8      15.620001    4.430000   23.860001       6.0000     15.9994
  104   2 H    1      14.840001    4.660000   23.260002       1.0000      1.0079
  105   2 H    1      -0.840000    5.340000   24.090002       1.0000      1.0079
  106   1 O    8      -4.420000    5.560000   16.390001       6.0000     15.9994
  107   2 H    1      -3.680000    6.100000   16.720001       1.0000      1.0079
  108   2 H    1      -5.180000    5.690000   17.010000       1.0000      1.0079
  109   1 O    8      11.360001    3.650000    9.110001       6.0000     15.9994
  110   2 H    1      11.310000    3.870000   10.050000       1.0000      1.0079
  111   2 H    1      12.050000    2.940000    9.010000       1.0000      1.0079
  112   1 O    8       1.150000    3.860000   19.110001       6.0000     15.9994
  113   2 H    1       1.050000    2.880000   18.960001       1.0000      1.0079
  114   2 H    1       1.440000    4.340000   18.290001       1.0000      1.0079
  115   1 O    8       0.420000   14.290000   11.630001       6.0000     15.9994
  116   2 H    1       0.290000   14.470000   10.700001       1.0000      1.0079
  117   2 H    1      -0.500000   14.230001   11.900001       1.0000      1.0079
  118   1 O    8      -2.350000   10.830001   24.780003       6.0000     15.9994
  119   2 H    1      -2.290000   11.070000   23.810001       1.0000      1.0079
  120   2 H    1      -1.590000   10.210000   24.870003       1.0000      1.0079
  121   1 O    8      -4.970000    8.170000   22.120001       6.0000     15.9994
  122   2 H    1      -5.410000    7.310000   22.180002       1.0000      1.0079
  123   2 H    1      -4.030000    7.980001   22.450001       1.0000      1.0079
  124   1 O    8       1.750000    2.870000   28.260002       6.0000     15.9994
  125   2 H    1      -7.360001   18.060001   28.570002       1.0000      1.0079
  126   2 H    1       1.490000    2.350000   27.490002       1.0000      1.0079
  127   1 O    8      11.140001    1.240000   15.830001       6.0000     15.9994
  128   2 H    1      11.020000    0.270000   16.049999       1.0000      1.0079
  129   2 H    1       2.320000   16.030001   14.950001       1.0000      1.0079
  130   1 O    8       3.890000    0.650000   27.220001       6.0000     15.9994
  131   2 H    1       4.190001    1.320000   27.810001       1.0000      1.0079
  132   2 H    1       3.060000    0.980000   26.790001       1.0000      1.0079
  133   1 O    8       1.980000   13.860001   30.330002       6.0000     15.9994
  134   2 H    1       1.230000   13.470001   29.860001       1.0000      1.0079
  135   2 H    1       2.320000   14.460001   29.670002       1.0000      1.0079
  136   1 O    8       2.620000    7.760000   29.720001       6.0000     15.9994
  137   2 H    1       2.760000    7.480001   30.730001       1.0000      1.0079
  138   2 H    1       3.500000    8.030001   29.400002       1.0000      1.0079
  139   1 O    8       0.690000    7.110000   27.820000       6.0000     15.9994
  140   2 H    1      -0.180000    7.400000   28.330002       1.0000      1.0079
  141   2 H    1       1.410000    7.140000   28.580000       1.0000      1.0079
  142   1 O    8       4.940000   10.170001    9.060000       6.0000     15.9994
  143   2 H    1       4.020000    9.890000    8.920000       1.0000      1.0079
  144   2 H    1       5.220000   10.380001    8.150001       1.0000      1.0079
  145   1 O    8      -8.350000   21.960001   11.590000       6.0000     15.9994
  146   2 H    1       7.870001   21.800001   12.300000       1.0000      1.0079
  147   2 H    1      -8.530001   21.270000   10.880001       1.0000      1.0079
  148   1 O    8      -6.850000    5.660000   18.470001       6.0000     15.9994
  149   2 H    1      -6.220000    5.580000   19.200001       1.0000      1.0079
  150   2 H    1      -6.720000    4.720000   18.190001       1.0000      1.0079
  151   1 O    8      -0.160000    9.930000   11.360001       6.0000     15.9994
  152   2 H    1      -0.400000    9.930000   10.410000       1.0000      1.0079
  153   2 H    1       0.220000    8.970000   11.510000       1.0000      1.0079
  154   1 O    8      11.680001   -2.470000   32.260002       6.0000     15.9994
  155   2 H    1      11.420001   -2.120000   31.340000       1.0000      1.0079
  156   2 H    1      10.780001   -2.920000   32.520000       1.0000      1.0079
  157   1 O    8       2.920000    2.770000   30.820004       6.0000     15.9994
  158   2 H    1       2.750000    3.150000   29.960001       1.0000      1.0079
  159   2 H    1       3.770000    2.330000   30.720001       1.0000      1.0079
  160   1 O    8       3.830000    1.360000   14.870001       6.0000     15.9994
  161   2 H    1       4.330000    0.900000   15.570001       1.0000      1.0079
  162   2 H    1       3.750000    0.620000   14.200001       1.0000      1.0079
  163   1 O    8       4.270000    3.940000   16.180000       6.0000     15.9994
  164   2 H    1       5.280000    4.080000   16.150002       1.0000      1.0079
  165   2 H    1       4.160000    2.980000   15.820000       1.0000      1.0079
  166   1 O    8       3.980000   12.480001   10.150002       6.0000     15.9994
  167   2 H    1       4.330000   11.670000    9.780001       1.0000      1.0079
  168   2 H    1       3.340000   12.260000   10.860001       1.0000      1.0079
  169   1 O    8     -16.850000   15.390000   25.410002       6.0000     15.9994
  170   2 H    1       1.010000   15.420000   25.710001       1.0000      1.0079
  171   2 H    1       0.110000   15.870001   24.550001       1.0000      1.0079
  172   1 O    8       6.960001    5.390000   19.410002       6.0000     15.9994
  173   2 H    1       6.030001    5.230000   19.120001       1.0000      1.0079
  174   2 H    1       7.350000    4.510000   19.250000       1.0000      1.0079
  175   1 O    8       5.590000    4.440001   32.280003       6.0000     15.9994
  176   2 H    1       5.630000    3.490000   32.650002       1.0000      1.0079
  177   2 H    1       4.630000    4.790000   32.510002       1.0000      1.0079
  178   1 O    8       3.110000    6.270000   23.720001       6.0000     15.9994
  179   2 H    1       4.000000    6.640000   23.820002       1.0000      1.0079
  180   2 H    1       3.280000    5.530000   23.120001       1.0000      1.0079
  181   1 O    8      11.020000   11.320001   22.110003       6.0000     15.9994
  182   2 H    1      10.660001   10.400001   22.190001       1.0000      1.0079
  183   2 H    1      11.900001   11.300000   21.709999       1.0000      1.0079
  184   1 O    8       7.200000   10.670000   24.320002       6.0000     15.9994
  185   2 H    1       7.260000   11.410000   23.670002       1.0000      1.0079
  186   2 H    1       7.880001   10.150002   23.910000       1.0000      1.0079
  187   1 O    8      -8.060000   11.690001   18.900002       6.0000     15.9994
  188   2 H    1      -8.020000   11.840000   17.940001       1.0000      1.0079
  189   2 H    1      -7.210000   11.880001   19.280001       1.0000      1.0079
  190   1 O    8       6.390000   13.430000   26.500000       6.0000     15.9994
  191   2 H    1       6.080000   13.380001   27.430000       1.0000      1.0079
  192   2 H    1       5.760000   12.900001   25.910000       1.0000      1.0079
  193   1 O    8       7.670000   11.530000   29.860001       6.0000     15.9994
  194   2 H    1       8.660001   11.600000   29.830000       1.0000      1.0079
  195   2 H    1       7.530000   11.310000   30.830002       1.0000      1.0079
  196   1 O    8      -4.020000    1.250000   32.550003       6.0000     15.9994
  197   2 H    1      -4.940000    0.860000   32.760002       1.0000      1.0079
  198   2 H    1      -4.260000    2.180000   32.580002       1.0000      1.0079
  199   1 O    8      -3.890000    0.510000   12.630000       6.0000     15.9994
  200   2 H    1      -3.730000   -0.460000   12.820001       1.0000      1.0079
  201   2 H    1      -4.820000    0.690000   12.830001       1.0000      1.0079
  202   1 O    8      -3.040000   12.550001   26.840000       6.0000     15.9994
  203   2 H    1      -4.020000   12.590000   26.820002       1.0000      1.0079
  204   2 H    1      -2.750000   12.030001   26.010000       1.0000      1.0079
  205   1 O    8       7.620000    2.480000   14.230001       6.0000     15.9994
  206   2 H    1       0.040000   16.930000   13.820001       1.0000      1.0079
  207   2 H    1       7.130001    2.250000   13.420000       1.0000      1.0079
  208   1 O    8       0.930000   -3.470000   14.660001       6.0000     15.9994
  209   2 H    1       1.420000   -4.280000   14.850000       1.0000      1.0079
  210   2 H    1       1.470000   -3.040000   13.970001       1.0000      1.0079
  211   1 O    8       8.580000   -1.890000   24.170000       6.0000     15.9994
  212   2 H    1       9.190001   -1.910000   23.450001       1.0000      1.0079
  213   2 H    1       8.540000   -0.960000   24.480001       1.0000      1.0079
  214   1 O    8       7.040000    1.220000   16.610001       6.0000     15.9994
  215   2 H    1       7.240000    1.570000   15.690001       1.0000      1.0079
  216   2 H    1       7.630000    0.460000   16.920000       1.0000      1.0079
  217   1 O    8       3.510000   11.810001   28.540001       6.0000     15.9994
  218   2 H    1       2.610000   12.030001   28.870001       1.0000      1.0079
  219   2 H    1       3.420000   12.070000   27.610001       1.0000      1.0079
  220   1 O    8       1.880000    3.820000   11.440001       6.0000     15.9994
  221   2 H    1       2.640000    3.320000   11.750001       1.0000      1.0079
  222   2 H    1       1.610000    3.600000   10.460000       1.0000      1.0079
  223   1 O    8      -2.170000    7.500000   23.470001       6.0000     15.9994
  224   2 H    1      14.320001    7.200000   24.290001       1.0000      1.0079
  225   2 H    1      -1.460000    8.080000   23.840000       1.0000      1.0079
  226   1 O    8      -4.190001   17.400002    8.740000       6.0000     15.9994
  227   2 H    1      -4.420000   17.150000    7.800000       1.0000      1.0079
  228   2 H    1      12.200001   16.720001    9.320001       1.0000      1.0079
  229   1 O    8       2.630000   14.790001   26.320002       6.0000     15.9994
  230   2 H    1       3.490000   15.100001   25.910000       1.0000      1.0079
  231   2 H    1       2.760000   15.250001   27.180002       1.0000      1.0079
  232   1 O    8       9.460000    5.560000   33.220001       6.0000     15.9994
  233   2 H    1       8.630000    6.130000   33.040001       1.0000      1.0079
  234   2 H    1       9.120001    4.620000   33.400002       1.0000      1.0079
  235   1 O    8      -0.820000    8.440001   19.020000       6.0000     15.9994
  236   2 H    1      -0.810000    7.890000   19.790001       1.0000      1.0079
  237   2 H    1       0.060000    8.710001   18.760000       1.0000      1.0079
  238   1 O    8      14.350000   -1.850000   33.020000       6.0000     15.9994
  239   2 H    1       5.090000   12.410001   32.700001       1.0000      1.0079
  240   2 H    1      14.980001   -2.650000   33.020000       1.0000      1.0079
  241   1 O    8       4.110000   -0.100000   12.470001       6.0000     15.9994
  242   2 H    1       4.030000    0.500000   11.770000       1.0000      1.0079
  243   2 H    1       4.960000   -0.570000   12.300000       1.0000      1.0079
  244   1 O    8       2.870000    7.520000   12.020000       6.0000     15.9994
  245   2 H    1       3.200000    8.210000   12.690001       1.0000      1.0079
  246   2 H    1       2.010000    7.110000   12.330000       1.0000      1.0079
  247   1 O    8       8.910000   -2.900000   14.300001       6.0000     15.9994
  248   2 H    1       9.430000   -2.890000   13.460001       1.0000      1.0079
  249   2 H    1       8.010000   -2.510000   14.030001       1.0000      1.0079
  250   1 O    8       5.030000   15.220001   25.220001       6.0000     15.9994
  251   2 H    1       5.430000   16.060001   25.389999       1.0000      1.0079
  252   2 H    1       5.450000   14.540001   25.810001       1.0000      1.0079
  253   1 O    8      -4.730000   13.160001    8.860001       6.0000     15.9994
  254   2 H    1      -4.260000   13.510000    8.020000       1.0000      1.0079
  255   2 H    1      -4.200000   12.300000    9.100000       1.0000      1.0079
  256   1 O    8       5.190001   -2.570000   16.480001       6.0000     15.9994
  257   2 H    1       5.110001   -3.410000   16.010000       1.0000      1.0079
  258   2 H    1       5.730000   -2.770000   17.270000       1.0000      1.0079
  259   1 O    8      -9.540001    9.770000   27.680000       6.0000     15.9994
  260   2 H    1      -9.530001   10.350000   28.500002       1.0000      1.0079
  261   2 H    1      -9.620001   10.370001   26.950001       1.0000      1.0079
  262   1 O    8       0.790000   11.710000   18.630001       6.0000     15.9994
  263   2 H    1       1.210000   10.840001   18.450001       1.0000      1.0079
  264   2 H    1       1.280000   12.140001   19.310001       1.0000      1.0079
  265   1 O    8     -14.490002   -6.720000   12.580000       6.0000     15.9994
  266   2 H    1     -15.270000   -7.050000   12.120000       1.0000      1.0079
  267   2 H    1      -5.760000    8.670000   12.100000       1.0000      1.0079
  268   1 O    8      -4.850000   12.170000   32.590000       6.0000     15.9994
  269   2 H    1      -4.570000   11.720000   33.400002       1.0000      1.0079
  270   2 H    1      -4.600000   13.120001   32.670002       1.0000      1.0079
  271   1 O    8       6.040000   12.140001   19.730000       6.0000     15.9994
  272   2 H    1       6.330000   12.370001   20.690001       1.0000      1.0079
  273   2 H    1       6.920000   12.070000   19.330002       1.0000      1.0079
  274   1 O    8       7.950000    0.960000   21.190002       6.0000     15.9994
  275   2 H    1       8.490001    0.110000   21.070002       1.0000      1.0079
  276   2 H    1       7.010000    0.670000   21.610001       1.0000      1.0079
  277   1 O    8       5.340000   11.350001   17.120001       6.0000     15.9994
  278   2 H    1     -11.670000   10.360001   16.900002       1.0000      1.0079
  279   2 H    1       6.110000   11.750001   16.740000       1.0000      1.0079
  280   1 O    8      13.460001    4.870000   22.360001       6.0000     15.9994
  281   2 H    1      13.220000    3.830000   22.430000       1.0000      1.0079
  282   2 H    1      12.900001    5.120000   23.140001       1.0000      1.0079
  283   1 O    8       5.440001   -7.060000   17.700001       6.0000     15.9994
  284   2 H    1      -2.060000    7.630000   18.120001       1.0000      1.0079
  285   2 H    1       4.910000   -6.430000   18.210001       1.0000      1.0079
  286   1 O    8     -10.950001   18.120001   28.650002       6.0000     15.9994
  287   2 H    1       5.860000   17.240002   29.080002       1.0000      1.0079
  288   2 H    1     -11.800001   18.590000   28.750002       1.0000      1.0079
  289   1 O    8       5.630000   13.110001   28.970001       6.0000     15.9994
  290   2 H    1       4.730000   12.540001   28.960001       1.0000      1.0079
  291   2 H    1       6.410000   12.500000   29.300001       1.0000      1.0079
  292   1 O    8      -2.560000    3.750000   16.910002       6.0000     15.9994
  293   2 H    1      -2.740000    2.890000   16.570000       1.0000      1.0079
  294   2 H    1      -3.240000    4.280000   16.500000       1.0000      1.0079
  295   1 O    8       0.260000    8.270000   33.500000       6.0000     15.9994
  296   2 H    1       0.460000    9.110001   33.049999       1.0000      1.0079
  297   2 H    1       1.050000    7.710000   33.290001       1.0000      1.0079
  298   1 O    8       7.920001    7.290000   20.960003       6.0000     15.9994
  299   2 H    1       8.660001    6.910000   21.520002       1.0000      1.0079
  300   2 H    1       7.720000    6.600000   20.300003       1.0000      1.0079
  301   1 O    8       6.370000   -2.950000   22.080002       6.0000     15.9994
  302   2 H    1       6.200000   -1.980000   22.170000       1.0000      1.0079
  303   2 H    1       7.390000   -3.050000   22.020000       1.0000      1.0079
  304   1 O    8       5.440001    7.230001    9.600000       6.0000     15.9994
  305   2 H    1       5.460000    7.740001    8.770000       1.0000      1.0079
  306   2 H    1       4.770000    6.480000    9.360001       1.0000      1.0079
  307   1 O    8      -4.500000    5.640000   13.330001       6.0000     15.9994
  308   2 H    1      -4.700000    5.630000   14.380001       1.0000      1.0079
  309   2 H    1      -5.070000    6.470000   13.120001       1.0000      1.0079
  310   1 O    8      -5.000000   15.150002   21.190002       6.0000     15.9994
  311   2 H    1      -5.010000   14.800000   20.290001       1.0000      1.0079
  312   2 H    1      -4.900000   16.130001   20.910000       1.0000      1.0079
  313   1 O    8       6.320000    8.100000   30.120001       6.0000     15.9994
  314   2 H    1       6.520000    7.530000   30.980000       1.0000      1.0079
  315   2 H    1       7.140000    8.490001   29.930000       1.0000      1.0079
  316   1 O    8       7.210000    2.480000    9.320001       6.0000     15.9994
  317   2 H    1       6.360001    2.810000    8.980000       1.0000      1.0079
  318   2 H    1       7.810000    3.140000    8.990001       1.0000      1.0079
  319   1 O    8      -2.470000   10.670000   13.130001       6.0000     15.9994
  320   2 H    1      -1.700000   10.310000   12.620001       1.0000      1.0079
  321   2 H    1      -2.700000   10.000000   13.810000       1.0000      1.0079
  322   1 O    8      -2.210000    6.020000   11.940001       6.0000     15.9994
  323   2 H    1      -1.620000    5.180000   11.980001       1.0000      1.0079
  324   2 H    1      -2.960000    5.840001   12.490001       1.0000      1.0079
  325   1 O    8       7.310000   10.400001   32.300003       6.0000     15.9994
  326   2 H    1       6.610000    9.730001   32.400002       1.0000      1.0079
  327   2 H    1       8.200001   10.220001   32.730003       1.0000      1.0079
  328   1 O    8      -3.560000   14.590001   16.720001       6.0000     15.9994
  329   2 H    1      -2.640000   14.930000   16.570000       1.0000      1.0079
  330   2 H    1      -3.570000   13.670001   16.410000       1.0000      1.0079
  331   1 O    8      -1.330000    3.380000   32.730003       6.0000     15.9994
  332   2 H    1      -2.280000    3.730000   32.650002       1.0000      1.0079
  333   2 H    1      -0.720000    4.130000   32.590000       1.0000      1.0079
  334   1 O    8       2.830000    7.420001   32.400002       6.0000     15.9994
  335   2 H    1       3.280000    6.700000   32.860001       1.0000      1.0079
  336   2 H    1       3.490000    8.160001   32.400002       1.0000      1.0079
  337   1 O    8       8.900001   13.680000   25.910000       6.0000     15.9994
  338   2 H    1      16.380001   -1.280000   26.080000       1.0000      1.0079
  339   2 H    1      -7.810000   13.600000   24.910002       1.0000      1.0079
  340   1 O    8       3.080000   14.440001    8.300000       6.0000     15.9994
  341   2 H    1       3.130000   13.560000    8.800000       1.0000      1.0079
  342   2 H    1       3.890000   14.930000    8.640000       1.0000      1.0079
  343   1 O    8      13.420000    9.310000   15.490000       6.0000     15.9994
  344   2 H    1      12.420001    9.080001   15.480001       1.0000      1.0079
  345   2 H    1      13.710001    8.920000   16.360001       1.0000      1.0079
  346   1 O    8      11.540001    5.430000   24.530001       6.0000     15.9994
  347   2 H    1      11.370001    4.710000   25.120001       1.0000      1.0079
  348   2 H    1      11.240001    6.340000   24.910002       1.0000      1.0079
  349   1 O    8       6.880000    6.700000   13.910000       6.0000     15.9994
  350   2 H    1       6.050000    6.720000   13.430000       1.0000      1.0079
  351   2 H    1       7.370000    7.590001   13.830000       1.0000      1.0079
  352   1 O    8       7.910000    2.730000   18.970001       6.0000     15.9994
  353   2 H    1       7.390000    2.290000   18.240002       1.0000      1.0079
  354   2 H    1       7.930000    1.960000   19.690001       1.0000      1.0079
  355   1 O    8      -0.010000   13.570002   16.910002       6.0000     15.9994
  356   2 H    1      -0.030000   13.080001   16.070002       1.0000      1.0079
  357   2 H    1       0.290000   12.880001   17.510000       1.0000      1.0079
  358   1 O    8       4.500000    9.340000   13.530001       6.0000     15.9994
  359   2 H    1       5.500000    9.290000   13.150001       1.0000      1.0079
  360   2 H    1       4.320000   10.270000   13.620001       1.0000      1.0079
  361   1 O    8      -1.700000   15.580001   32.850002       6.0000     15.9994
  362   2 H    1      -1.450000   14.690001   32.770000       1.0000      1.0079
  363   2 H    1      -1.010000   16.140001   32.620003       1.0000      1.0079
  364   1 O    8       8.860001    3.050000   32.790001       6.0000     15.9994
  365   2 H    1       9.240000    2.290000   33.230003       1.0000      1.0079
  366   2 H    1       9.370001    3.240000   32.000000       1.0000      1.0079
  367   1 O    8      -0.530000    4.800000   15.260000       6.0000     15.9994
  368   2 H    1      -0.830000    5.760000   15.080000       1.0000      1.0079
  369   2 H    1      -1.220000    4.330000   15.830001       1.0000      1.0079
  370   1 O    8      -0.010000    4.690000   29.220001       6.0000     15.9994
  371   2 H    1       0.000000    5.490000   28.620003       1.0000      1.0079
  372   2 H    1      -0.920000    4.320000   29.130001       1.0000      1.0079
  373   1 O    8       1.040000   11.030001   26.010000       6.0000     15.9994
  374   2 H    1       0.660000   11.620001   25.350000       1.0000      1.0079
  375   2 H    1       0.760000   10.170001   25.620001       1.0000      1.0079
  376   1 O    8       3.610000    7.980001   19.420002       6.0000     15.9994
  377   2 H    1       3.220000    7.820001   20.300003       1.0000      1.0079
  378   2 H    1       4.530000    8.220000   19.590000       1.0000      1.0079
  379   1 O    8       9.800000    3.320000   30.350000       6.0000     15.9994
  380   2 H    1       8.900001    3.350000   30.020000       1.0000      1.0079
  381   2 H    1      10.250001    4.230000   30.470001       1.0000      1.0079
  382   1 O    8      -0.610000    3.870000   12.670001       6.0000     15.9994
  383   2 H    1       0.300000    3.760000   12.350000       1.0000      1.0079
  384   2 H    1      -0.590000    4.150000   13.630000       1.0000      1.0079
  385   1 O    8       1.780000    5.000000   16.820000       6.0000     15.9994
  386   2 H    1       2.520000    4.540000   16.380001       1.0000      1.0079
  387   2 H    1       0.960000    4.960000   16.230000       1.0000      1.0079
  388   1 O    8      -0.180000    5.990000    9.320001       6.0000     15.9994
  389   2 H    1      -0.050000    5.010000    9.190001       1.0000      1.0079
  390   2 H    1      -0.980000    6.170001    8.790001       1.0000      1.0079
  391   1 O    8      12.990000   10.610001    8.930000       6.0000     15.9994
  392   2 H    1      12.780001   10.520000    7.990000       1.0000      1.0079
  393   2 H    1      13.900002   10.140000    9.010000       1.0000      1.0079
  394   1 O    8       3.650000   11.980001   25.670002       6.0000     15.9994
  395   2 H    1      11.230000   -3.100000   25.690001       1.0000      1.0079
  396   2 H    1       3.380000   12.940001   25.590000       1.0000      1.0079
  397   1 O    8       1.530000   13.520001   20.320000       6.0000     15.9994
  398   2 H    1       2.160000   14.210001   20.030001       1.0000      1.0079
  399   2 H    1       1.850000   13.180000   21.160002       1.0000      1.0079
  400   1 O    8      -1.790000    7.080000   31.660002       6.0000     15.9994
  401   2 H    1      -0.880000    6.890000   32.029999       1.0000      1.0079
  402   2 H    1      -1.760000    7.110000   30.620001       1.0000      1.0079
  403   1 O    8       9.220000    9.080001    9.250001       6.0000     15.9994
  404   2 H    1       9.990001    9.320001    9.840000       1.0000      1.0079
  405   2 H    1       9.340000    9.690001    8.480000       1.0000      1.0079
  406   1 O    8      10.190001    5.870000   22.310001       6.0000     15.9994
  407   2 H    1      10.250001    5.530000   23.200001       1.0000      1.0079
  408   2 H    1      10.390000    5.030000   21.860001       1.0000      1.0079
  409   1 O    8      13.520001    1.500000    9.030001       6.0000     15.9994
  410   2 H    1      13.870001    1.730000    9.940001       1.0000      1.0079
  411   2 H    1      14.280001    1.590000    8.430000       1.0000      1.0079
  412   1 O    8      -6.450000    3.010000   17.980001       6.0000     15.9994
  413   2 H    1      -7.260000    2.600000   18.340000       1.0000      1.0079
  414   2 H    1      -6.330000    2.520000   17.120001       1.0000      1.0079
  415   1 O    8      -9.520000    9.240000   13.130001       6.0000     15.9994
  416   2 H    1      -8.940001    9.960001   13.490001       1.0000      1.0079
  417   2 H    1      -9.490001    9.300001   12.120000       1.0000      1.0079
  418   1 O    8       7.860000   12.550001   16.480001       6.0000     15.9994
  419   2 H    1       7.930000   13.480000   16.270000       1.0000      1.0079
  420   2 H    1       8.410000   12.110001   15.790001       1.0000      1.0079
  421   1 O    8      16.830002   -0.500000   12.090001       6.0000     15.9994
  422   2 H    1      16.049999   -1.000000   11.670000       1.0000      1.0079
  423   2 H    1      16.980001    0.200000   11.430000       1.0000      1.0079
  424   1 O    8       2.790000   15.990001   28.800001       6.0000     15.9994
  425   2 H    1       2.320000   16.580002   29.470001       1.0000      1.0079
  426   2 H    1      12.180000    1.430000   29.130001       1.0000      1.0079
  427   1 O    8      14.210001   14.490002   22.340002       6.0000     15.9994
  428   2 H    1      14.090000   14.520000   23.350000       1.0000      1.0079
  429   2 H    1      13.240002   14.610001   22.030001       1.0000      1.0079
  430   1 O    8      -7.100000   16.110001   26.180000       6.0000     15.9994
  431   2 H    1      -7.480001   15.240001   26.080000       1.0000      1.0079
  432   2 H    1      -7.400000   16.660002   25.430002       1.0000      1.0079
  433   1 O    8      -1.380000    2.030000   21.360001       6.0000     15.9994
  434   2 H    1      -0.620000    1.560000   20.960003       1.0000      1.0079
  435   2 H    1      -1.570000    2.790000   20.850000       1.0000      1.0079
  436   1 O    8      -7.150001   13.500000   22.950001       6.0000     15.9994
  437   2 H    1      -6.660000   12.700001   22.520000       1.0000      1.0079
  438   2 H    1       1.600000   -0.280000   22.580002       1.0000      1.0079
  439   1 O    8       0.180000    0.740000   18.930000       6.0000     15.9994
  440   2 H    1       0.930000    0.010000   19.040001       1.0000      1.0079
  441   2 H    1      -0.780000    0.340000   18.830002       1.0000      1.0079
  442   1 O    8      -1.060000    6.600000   20.940001       6.0000     15.9994
  443   2 H    1      -1.400000    6.720000   21.830002       1.0000      1.0079
  444   2 H    1      -1.460000    5.730000   20.620001       1.0000      1.0079
  445   1 O    8      -7.140000    6.390000   15.530001       6.0000     15.9994
  446   2 H    1      -7.310000    6.030001   16.440001       1.0000      1.0079
  447   2 H    1      -8.060000    6.570000   15.200001       1.0000      1.0079
  448   1 O    8      -2.970000    4.770000    8.000000       6.0000     15.9994
  449   2 H    1      -3.900000    4.490000    8.200001       1.0000      1.0079
  450   2 H    1      14.000001    5.700001    8.490001       1.0000      1.0079
  451   1 O    8       4.810000    7.960001   27.620001       6.0000     15.9994
  452   2 H    1       5.010000    8.230000   26.670000       1.0000      1.0079
  453   2 H    1       5.500000    8.340000   28.130001       1.0000      1.0079
  454   1 O    8      10.260000    0.510000   32.690002       6.0000     15.9994
  455   2 H    1      10.390000   -0.090000   31.930000       1.0000      1.0079
  456   2 H    1      10.130000   -0.140000   33.440002       1.0000      1.0079
  457   1 O    8       4.460000    5.090000   18.710001       6.0000     15.9994
  458   2 H    1       3.920000    5.930000   18.850000       1.0000      1.0079
  459   2 H    1       4.490000    4.830000   17.760002       1.0000      1.0079
  460   1 O    8      14.070001   11.930000   30.730001       6.0000     15.9994
  461   2 H    1      13.140000   11.940001   31.110001       1.0000      1.0079
  462   2 H    1      -2.640000   10.960001   30.750000       1.0000      1.0079
  463   1 O    8      -9.700001    3.600000   29.720001       6.0000     15.9994
  464   2 H    1     -10.080000    4.110000   28.930000       1.0000      1.0079
  465   2 H    1     -10.200001    3.930000   30.510002       1.0000      1.0079
  466   1 O    8       8.860001    4.420000    8.140000       6.0000     15.9994
  467   2 H    1       9.810000    4.160000    8.260000       1.0000      1.0079
  468   2 H    1       8.690001    5.410000    8.460000       1.0000      1.0079
  469   1 O    8      -2.840000    9.870001   28.060001       6.0000     15.9994
  470   2 H    1      -2.670000   10.830001   27.800003       1.0000      1.0079
  471   2 H    1      -3.560000   10.100000   28.730001       1.0000      1.0079
  472   1 O    8       0.750000    6.390000   24.940002       6.0000     15.9994
  473   2 H    1       1.630000    6.320000   24.530001       1.0000      1.0079
  474   2 H    1       0.940000    6.520000   25.890003       1.0000      1.0079
  475   1 O    8      10.830001    4.000000   12.050000       6.0000     15.9994
  476   2 H    1      10.240001    4.760000   11.960001       1.0000      1.0079
  477   2 H    1      11.490001    4.470000   12.570001       1.0000      1.0079
  478   1 O    8      -5.580000   13.730000   18.850000       6.0000     15.9994
  479   2 H    1      -5.150001   12.840000   19.130001       1.0000      1.0079
  480   2 H    1      -4.890000   14.050001   18.180000       1.0000      1.0079
  481   1 O    8       9.070001   17.400002   23.270000       6.0000     15.9994
  482   2 H    1       8.280001   18.010002   23.280001       1.0000      1.0079
  483   2 H    1       8.760000   16.690001   22.670002       1.0000      1.0079
  484   1 O    8       4.860000   14.490002   22.560001       6.0000     15.9994
  485   2 H    1       5.140000   15.360001   22.120001       1.0000      1.0079
  486   2 H    1       5.020000   14.760000   23.540001       1.0000      1.0079
  487   1 O    8      14.150001   23.950003   20.240002       6.0000     15.9994
  488   2 H    1      15.100001   23.640001   20.240002       1.0000      1.0079
  489   2 H    1      14.140000   24.860001   19.790001       1.0000      1.0079
  490   1 O    8       6.490001   12.490001   11.160001       6.0000     15.9994
  491   2 H    1       6.700000   11.540001   11.020000       1.0000      1.0079
  492   2 H    1       5.520000   12.620001   10.840001       1.0000      1.0079
  493   1 O    8       2.890000    4.460000   32.670002       6.0000     15.9994
  494   2 H    1      -5.470000   18.620001   33.580002       1.0000      1.0079
  495   2 H    1       2.880000    3.630000   32.060001       1.0000      1.0079
  496   1 O    8       2.880000   -0.440000   29.860001       6.0000     15.9994
  497   2 H    1      -6.220000   14.730001   30.300003       1.0000      1.0079
  498   2 H    1      -5.420001   14.580001   28.980003       1.0000      1.0079
  499   1 O    8      11.040001    5.560000   31.260002       6.0000     15.9994
  500   2 H    1      10.490000    5.480001   32.060001       1.0000      1.0079
  501   2 H    1      12.010001    5.500000   31.500000       1.0000      1.0079
  502   1 O    8       8.780001    0.150000    8.680000       6.0000     15.9994
  503   2 H    1       8.310000    1.000000    8.940001       1.0000      1.0079
  504   2 H    1       9.750000    0.260000    8.710001       1.0000      1.0079
  505   1 O    8       6.320000    2.180000   11.980001       6.0000     15.9994
[...]
    899      3      Pt          0.00437730    -0.01311432    -0.00140329
    900      3      Pt          0.00652204     0.00437473     0.01300176
    901      3      Pt          0.00781645    -0.01022945    -0.00891368
    902      3      Pt         -0.01151532     0.01383200     0.00424329
    903      3      Pt         -0.01828036     0.01144042    -0.00995133
    904      3      Pt         -0.00142646    -0.01278758     0.00248670
    905      3      Pt          0.00403245    -0.00547005    -0.00469935
    906      3      Pt         -0.01466728     0.00323474    -0.00577082
 SUM OF ATOMIC FORCES          -0.01475939    -0.01011451     0.00054885     0.01790095

 STRESS| Analytical stress tensor [GPa]
 STRESS|                        x                   y                   z
 STRESS|      x       -2.57916179436E+00   2.34662147713E-01   4.67631309884E-02
 STRESS|      y        2.34662147713E-01  -2.55806708595E+00   1.88494844765E-01
 STRESS|      z        4.67631309884E-02   1.88494844765E-01  -3.14089481909E-01
 STRESS| 1/3 Trace                                            -1.81710612074E+00
 STRESS| Determinant                                          -1.95359337627E+00

 STRESS| Eigenvectors and eigenvalues of the analytical stress tensor [GPa]
 STRESS|                        1                   2                   3
 STRESS| Eigenvalues  -2.80733728413E+00  -2.34754922187E+00  -2.96431856222E-01
 STRESS|      x           0.712427586641      0.701135977772      0.029245075940
 STRESS|      y          -0.700627037427      0.708321882839      0.086034090436
 STRESS|      z           0.039606668866     -0.081782950334      0.995862872496

 -------------------------------------------------------------------------------
 -                                                                             -
 -                                DBCSR STATISTICS                             -
 -                                                                             -
 -------------------------------------------------------------------------------
 COUNTER                                    TOTAL       BLAS       SMM       ACC
 flops     5 x     5 x   288          87534820800       0.0%    100.0%      0.0%
 flops     5 x     5 x   292          88750582200       0.0%    100.0%      0.0%
 flops     5 x    13 x   288          98839802880       0.0%    100.0%      0.0%
 flops    13 x     5 x   288          98894390400       0.0%    100.0%      0.0%
 flops     5 x    13 x   292         100212577920       0.0%    100.0%      0.0%
 flops    13 x     5 x   292         100267923600       0.0%    100.0%      0.0%
 flops    20 x    13 x   288         100307600640       0.0%    100.0%      0.0%
 flops    13 x    20 x   288         100683648000       0.0%    100.0%      0.0%
 flops    20 x    13 x   292         101700761760       0.0%    100.0%      0.0%
 flops    13 x    20 x   292         102082032000       0.0%    100.0%      0.0%
 flops    13 x    13 x   288         105428516544       0.0%    100.0%      0.0%
 flops    13 x    13 x   292         106892801496       0.0%    100.0%      0.0%
 flops     5 x    20 x   288         110294784000       0.0%    100.0%      0.0%
 flops    20 x     5 x   288         110341440000       0.0%    100.0%      0.0%
 flops     5 x    20 x   292         111826656000       0.0%    100.0%      0.0%
 flops    20 x     5 x   292         111873960000       0.0%    100.0%      0.0%
 flops    20 x    20 x   288         437372006400       0.0%    100.0%      0.0%
 flops    20 x    20 x   292         443446617600       0.0%    100.0%      0.0%
 flops     5 x     5 x   320         583565472000       0.0%    100.0%      0.0%
 flops     5 x    13 x   320         658932019200       0.0%    100.0%      0.0%
 flops    13 x     5 x   320         659295936000       0.0%    100.0%      0.0%
 flops    20 x    13 x   320         668717337600       0.0%    100.0%      0.0%
 flops    13 x    20 x   320         671224320000       0.0%    100.0%      0.0%
 flops    13 x    13 x   320         702856776960       0.0%    100.0%      0.0%
 flops     5 x    20 x   320         735298560000       0.0%    100.0%      0.0%
 flops    20 x     5 x   320         735609600000       0.0%    100.0%      0.0%
 flops    20 x    20 x   320        2915813376000       0.0%    100.0%      0.0%
 flops inhomo. stacks                           0       0.0%      0.0%      0.0%
 flops total                        10.848064E+12       0.0%    100.0%      0.0%
 flops max/rank                    176.302980E+09       0.0%    100.0%      0.0%
 matmuls inhomo. stacks                         0       0.0%      0.0%      0.0%
 matmuls total                          156112920       0.0%    100.0%      0.0%
 number of processed stacks                414720       0.0%    100.0%      0.0%
 average stack size                                     0.0     376.4       0.0
 marketing flops                    30.827302E+12
 -------------------------------------------------------------------------------
 # multiplications                             81
 max memory usage/rank               1.861362E+09
 # max total images/rank                        1
 # max 3D layers                                1
 # MPI messages exchanged                   72576
 MPI messages size (bytes):
  total size                       217.954714E+09
  min size                           2.762496E+06
  max size                           3.077120E+06
  average size                       3.003124E+06
 MPI breakdown and total messages size (bytes):
             size <=      128                   0                        0
       128 < size <=     8192                   0                        0
      8192 < size <=    32768                   0                        0
     32768 < size <=   131072                   0                        0
    131072 < size <=  4194304               72576             217954800000
   4194304 < size <= 16777216                   0                        0
  16777216 < size                               0                        0
 -------------------------------------------------------------------------------
 -                                                                             -
 -                      DBCSR MESSAGE PASSING PERFORMANCE                      -
 -                                                                             -
 -------------------------------------------------------------------------------
 ROUTINE             CALLS      AVE VOLUME [Bytes]
 MP_Bcast               28                     12.
 MP_Allreduce          641                     10.
 MP_Alltoall          2268                1978189.
 MP_ISend             2592                1329597.
 MP_IRecv             2592                1310413.
 -------------------------------------------------------------------------------

 -------------------------------------------------------------------------------
 -                                                                             -
 -                                DBM STATISTICS                               -
 -                                                                             -
 -------------------------------------------------------------------------------
    M  x    N  x    K                                          COUNT     PERCENT
 -------------------------------------------------------------------------------

 -------------------------------------------------------------------------------
 -                                                                             -
 -                                GRID STATISTICS                              -
 -                                                                             -
 -------------------------------------------------------------------------------
 LP    KERNEL             BACKEND                              COUNT     PERCENT
 3     collocate general  REF                               56358261      18.92%
 3     integrate general  REF                               55720464      18.71%
 2     collocate general  REF                               52782030      17.72%
 2     integrate general  REF                               52130400      17.50%
 4     collocate general  REF                               39650229      13.31%
 4     integrate general  REF                               39160720      13.15%
 6     integrate general  REF                                 695781       0.23%
 5     integrate general  REF                                 651630       0.22%
 7     integrate general  REF                                 489509       0.16%
 0     collocate general  REF                                 115968       0.04%
 0     integrate general  REF                                  57984       0.02%
 -------------------------------------------------------------------------------

 MEMORY| Estimated peak process memory [MiB]                                2099

 -------------------------------------------------------------------------------
 ----                             MULTIGRID INFO                            ----
 -------------------------------------------------------------------------------
 count for grid        1:         730954          cutoff [a.u.]          200.00
 count for grid        2:         807034          cutoff [a.u.]           66.67
 count for grid        3:         741135          cutoff [a.u.]           22.22
 count for grid        4:         830956          cutoff [a.u.]            7.41
 total gridlevel count  :        3110079

 -------------------------------------------------------------------------------
 -                                                                             -
 -                         MESSAGE PASSING PERFORMANCE                         -
 -                                                                             -
 -------------------------------------------------------------------------------

 ROUTINE             CALLS      AVE VOLUME [Bytes]
 MP_Group                4
 MP_Bcast              262                2253303.
 MP_Allreduce         1365                   1836.
 MP_Sync                84
 MP_Alltoall          1798               13810808.
 MP_SendRecv           252                  14262.
 MP_ISendRecv        20412                 113680.
 MP_Wait             45668
 MP_ISend            23616                 340043.
 MP_IRecv            23616                 340043.
 MP_Recv               308                2460160.
 MP_Write_All            3                1540656.
 -------------------------------------------------------------------------------


 -------------------------------------------------------------------------------
 -                                                                             -
 -                           R E F E R E N C E S                               -
 -                                                                             -
 -------------------------------------------------------------------------------
 
 CP2K version 2022.1, the CP2K developers group (2022).
 CP2K is freely available from https://www.cp2k.org/ .

 Kuehne,Thomas D.; Iannuzzi,Marcella; Del Ben,Mauro;
 Rybkin,Vladimir V.; Seewald,Patrick; Stein,Frederick; Laino,Teodoro;
 Khaliullin,Rustam Z.; Schuett,Ole; Schiffmann,Florian; Golze,Dorothea;
 Wilhelm,Jan; Chulkov,Sergey; Bani-Hashemian,Mohammad Hossein;
 Weber,Valery; Borstnik,Urban; Taillefumier,Mathieu;
 Jakobovits,Alice Shoshana; Lazzaro,Alfio; Pabst,Hans; Mueller,Tiziano;
 Schade,Robert; Guidon,Manuel; Andermatt,Samuel; Holmberg,Nico;
 Schenter,Gregory K.; Hehn,Anna; Bussy,Augustin; Belleflamme,Fabian;
 Tabacchi,Gloria; Gloess,Andreas; Lass,Michael; Bethune,Iain;
 Mundy,Christopher J.; Plessl,Christian; Watkins,Matt;
 VandeVondele,Joost; Krack,Matthias; Hutter,Juerg. 
 The Journal of Chemical Physics, 152 (19), (2020). 
 CP2K: An electronic structure and molecular dynamics software package -
 Quickstep: Efficient and accurate electronic structure calculations.
 https://doi.org/10.1063/5.0007045

 Goerigk, Lars; Hansen, Andreas; Bauer, Christoph; Ehrlich, Stephan;
 Najibi, Asim; Grimme, Stefan. , 19 (48), (2017). 
 A look at the density functional theory zoo with the advanced GMTKN55 database
 for general main group thermochemistry, kinetics and noncovalent interactions.
 https://doi.org/10.1039/C7CP04913G

 Schuett, Ole; Messmer, Peter; Hutter, Juerg; VandeVondele, Joost. 
 Electronic Structure Calculations on Graphics Processing Units, John
 Wiley & Sons, Ltd, 173-190 (2016). 
 GPU-Accelerated Sparse Matrix-Matrix Multiplication for
 Linear Scaling Density Functional Theory.
 https://doi.org/10.1002/9781118670712.ch8

 Heinecke, A; Henry, G; Hutchinson, M; Pabst, H. 
 Proceedings of Intl. Supercomputing Conference, 981-991 (2016). 
 LIBXSMM: Accelerating Small Matrix Multiplications
 by Runtime Code Generation.
 https://doi.org/10.1109/SC.2016.83

 Borstnik, U; VandeVondele, J; Weber, V; Hutter, J. 
 PARALLEL COMPUTING, 40 (5-6), 47-58 (2014). 
 Sparse matrix multiplication: The distributed block-compressed sparse
 row library.
 https://doi.org/10.1016/j.parco.2014.03.012

 Hutter, J; Iannuzzi, M; Schiffmann, F; VandeVondele, J. 
 WIREs Comput Mol Sci., 4 (1), 15-25 (2014). 
 CP2K: atomistic simulations of condensed matter systems.
 https://doi.org/10.1002/wcms.1159

 Marek, A; Blum, V; Johanni, R; Havu, V; Lang, B; Auckenthaler, T;
 Heinecke, A; Bungartz, H; Lederer, H. 
 Journal of Physics: Condensed Matter, 26 (21), (2014). 
 The ELPA library: scalable parallel eigenvalue solutions for
 electronic structure
 theory and computational science.
 https://doi.org/10.1088/0953-8984/26/21/213201

 Grimme, S; Ehrlich, S; Goerigk, L. 
 JOURNAL OF COMPUTATIONAL CHEMISTRY, 32, 1456 (2011). 
 Effect of the damping function in dispersion corrected density functional theory.
 https://doi.org/10.1002/jcc.21759

 Grimme, S; Antony, J; Ehrlich, S; Krieg, H. 
 JOURNAL OF CHEMICAL PHYSICS, 132 (15), 154104 (2010). 
 A consistent and accurate ab initio parametrization of density
 functional dispersion correction (DFT-D) for the 94 elements H-Pu.
 https://doi.org/10.1063/1.3382344

 VandeVondele, J; Hutter, J. 
 JOURNAL OF CHEMICAL PHYSICS, 127 (11), 114105 (2007). 
 Gaussian basis sets for accurate calculations on molecular systems in
 gas and condensed phases.
 https://doi.org/10.1063/1.2770708

 Krack, M. 
 THEORETICAL CHEMISTRY ACCOUNTS, 114 (1-3), 145-152 (2005). 
 Pseudopotentials for H to Kr optimized for gradient-corrected
 exchange-correlation functionals.
 https://doi.org/10.1007/s00214-005-0655-y

 VandeVondele, J; Krack, M; Mohamed, F; Parrinello, M; Chassaing, T;
 Hutter, J. COMPUTER PHYSICS COMMUNICATIONS, 167 (2), 103-128 (2005). 
 QUICKSTEP: Fast and accurate density functional calculations using a
 mixed Gaussian and plane waves approach.
 https://doi.org/10.1016/j.cpc.2004.12.014

 Frigo, M; Johnson, SG. 
 PROCEEDINGS OF THE IEEE, 93 (2), 216-231 (2005). 
 The design and implementation of FFTW3.
 https://doi.org/10.1109/JPROC.2004.840301

 Hartwigsen, C; Goedecker, S; Hutter, J. 
 PHYSICAL REVIEW B, 58 (7), 3641-3662 (1998). 
 Relativistic separable dual-space Gaussian pseudopotentials from H to Rn.
 https://doi.org/10.1103/PhysRevB.58.3641

 Lippert, G; Hutter, J; Parrinello, M. 
 MOLECULAR PHYSICS, 92 (3), 477-487 (1997). 
 A hybrid Gaussian and plane wave density functional scheme.
 https://doi.org/10.1080/002689797170220

 Perdew, JP; Burke, K; Ernzerhof, M. 
 PHYSICAL REVIEW LETTERS, 77 (18), 3865-3868 (1996). 
 Generalized gradient approximation made simple.
 https://doi.org/10.1103/PhysRevLett.77.3865

 Goedecker, S; Teter, M; Hutter, J. 
 PHYSICAL REVIEW B, 54 (3), 1703-1710 (1996). 
 Separable dual-space Gaussian pseudopotentials.
 https://doi.org/10.1103/PhysRevB.54.1703


 -------------------------------------------------------------------------------
 -                                                                             -
 -                                T I M I N G                                  -
 -                                                                             -
 -------------------------------------------------------------------------------
 SUBROUTINE                       CALLS  ASD         SELF TIME        TOTAL TIME
                                MAXIMUM       AVERAGE  MAXIMUM  AVERAGE  MAXIMUM
 CP2K                                 1  1.0    0.027    0.041  958.469  958.473
 qs_forces                            1  2.0    0.002    0.003  958.088  958.092
 qs_energies                          1  3.0    0.000    0.001  945.659  945.664
 scf_env_do_scf                       1  4.0    0.000    0.000  937.421  937.670
 scf_env_do_scf_inner_loop           80  5.0    0.004    0.013  937.421  937.670
 qs_scf_new_mos                      80  6.0    0.005    0.018  382.082  382.763
 eigensolver                         80  7.0    0.007    0.011  354.655  354.989
 rebuild_ks_matrix                   81  7.0    0.000    0.000  296.246  296.587
 qs_ks_build_kohn_sham_matrix        81  8.0    0.012    0.014  296.246  296.587
 qs_ks_update_qs_env                 80  6.0    0.001    0.001  288.280  288.617
 qs_rho_update_rho_low               81  6.0    0.001    0.001  252.704  252.734
 calculate_rho_elec                  81  7.0    0.189    0.229  252.703  252.733
 sum_up_and_integrate                81  9.0    0.340    0.431  248.576  248.917
 integrate_v_rspace                  81 10.0    0.003    0.003  248.236  248.624
 grid_collocate_task_list            81  8.0  222.285  228.555  222.285  228.555
 grid_integrate_task_list            81 11.0  216.607  222.435  216.607  222.435
 cp_fm_diag_elpa                     80  8.0    0.001    0.001  208.153  208.657
 cp_fm_diag_elpa_base                80  9.0  204.926  205.627  207.786  207.860
 cp_fm_triangular_multiply          240  8.0  143.531  145.236  143.531  145.236
 pw_transfer                       1620 10.9    0.115    0.144   44.861   45.690
 fft_wrap_pw1pw2                   1458 12.0    0.014    0.017   44.351   45.177
 rs_pw_transfer                     652 10.5    0.007    0.008   39.182   43.751
 fft_wrap_pw1pw2_200                972 13.3    4.000    4.327   42.712   43.514
 qs_vxc_create                       81  9.0    0.003    0.003   42.014   42.250
 xc_vxc_pw_create                    81 10.0    0.743    0.777   42.011   42.248
 fft3d_ps                          1458 14.0   16.111   18.280   32.740   34.006
 density_rs2pw                       81  8.0    0.005    0.006   27.897   32.419
 xc_pw_derive                       486 12.0    0.008    0.010   26.731   27.979
 xc_rho_set_and_dset_create          81 11.0    0.393    0.427   22.492   24.007
 potential_pw2rs                     81 11.0    0.030    0.036   23.418   23.496
 mp_waitany                       23616 12.4   16.868   21.858   16.868   21.858
 calculate_dm_sparse                 80  7.0    0.025    0.031   19.783   20.461
 cp_dbcsr_plus_fm_fm_t_native        81  8.0    0.004    0.009   19.724   20.460
 rs_pw_transfer_RS2PW_200            83 10.0    5.232    5.643   15.449   19.946
 -------------------------------------------------------------------------------

 The number of warnings for this run is : 1
 
 -------------------------------------------------------------------------------
  **** **** ******  **  PROGRAM ENDED AT                 2023-11-26 22:33:34.804
 ***** ** ***  *** **   PROGRAM RAN ON                                     cu054
 **    ****   ******    PROGRAM RAN BY                                     jxzhu
 ***** **    ** ** **   PROGRAM PROCESS ID                                 31130
  **** **  *******  **  PROGRAM STOPPED IN /public/home/jxzhu/tmp_calc/af2075565
                                           805657d94fa4669dad6f4b174b0a4fb/calc/
                                           000100.000/pbc
