 DBCSR| CPU Multiplication driver                                           XSMM
 DBCSR| Multrec recursion limit                                              512
 DBCSR| Multiplication stack size                                           1000
 DBCSR| Maximum elements for images                                    UNLIMITED
 DBCSR| Multiplicative factor virtual images                                   1
 DBCSR| Use multiplication densification                                       T
 DBCSR| Multiplication size stacks                                             3
 DBCSR| Use memory pool for CPU allocation                                     F
 DBCSR| Number of 3D layers                                               SINGLE
 DBCSR| Use MPI memory allocation                                              F
 DBCSR| Use RMA algorithm                                                      F
 DBCSR| Use Communication thread                                               T
 DBCSR| Communication thread load                                             87
 DBCSR| MPI: My node id                                                        0
 DBCSR| MPI: Number of nodes                                                 128
 DBCSR| OMP: Current number of threads                                         1
 DBCSR| OMP: Max number of threads                                             1
 DBCSR| Split modifier for TAS multiplication algorithm                  1.0E+00


  **** **** ******  **  PROGRAM STARTED AT               2023-12-02 17:10:12.365
 ***** ** ***  *** **   PROGRAM STARTED ON                                 cu062
 **    ****   ******    PROGRAM STARTED BY                                 jxzhu
 ***** **    ** ** **   PROGRAM PROCESS ID                                 51137
  **** **  *******  **  PROGRAM STARTED IN /public/home/jxzhu/tmp_calc/70e139975
                                           5474a605f634a1a3456ef2f7545c01a/calc/
                                           001900.000/search_lo.000001

 CP2K| version string:                                       CP2K version 2022.1
 CP2K| source code revision number:                                  git:2caeb6f
 CP2K| cp2kflags: omp libint fftw3 libxc elpa parallel mpi3 scalapack cosma xsmm
 CP2K|             plumed2 spglib mkl sirius libvori libbqb
 CP2K| is freely available from                            https://www.cp2k.org/
 CP2K| Program compiled at                           Mon Jul 3 17:37:06 CST 2023
 CP2K| Program compiled on                                                 mu003
 CP2K| Program compiled for                                                local
 CP2K| Data directory path                             /public/home/jxzhu/basis/
 CP2K| Input file name                                                 input.inp
 
 GLOBAL| Force Environment number                                              1
 GLOBAL| Basis set file name                                        BASIS_MOLOPT
 GLOBAL| Potential file name                                      GTH_POTENTIALS
 GLOBAL| MM Potential file name                                     MM_POTENTIAL
 GLOBAL| Coordinate file name                                          coord.xyz
 GLOBAL| Method name                                                        CP2K
 GLOBAL| Project name                                                       cp2k
 GLOBAL| Run type                                                   ENERGY_FORCE
 GLOBAL| FFT library                                                       FFTW3
 GLOBAL| Diagonalization library                                            ELPA
 GLOBAL| Minimum number of eigenvectors for ELPA usage                        16
 GLOBAL| Orthonormality check for eigenvectors                          DISABLED
 GLOBAL| Matrix multiplication library                                     COSMA
 GLOBAL| All-to-all communication in single precision                          F
 GLOBAL| FFTs using library dependent lengths                                  T
 GLOBAL| Grid backend                                                       AUTO
 GLOBAL| Global print level                                               MEDIUM
 GLOBAL| MPI I/O enabled                                                       T
 GLOBAL| Total number of message passing processes                           128
 GLOBAL| Number of threads for this process                                    1
 GLOBAL| This output is from process                                           0
 GLOBAL| Stack size for threads created by OpenMP (OMP_STACKSIZE)        default
 GLOBAL| CPU model name                 Intel(R) Xeon(R) Gold 6338 CPU @ 2.00GHz
 GLOBAL| CPUID                                                              1003

 MEMORY| system memory details [Kb]
 MEMORY|                        rank 0           min           max       average
 MEMORY| MemTotal            263619172     263619168     263619172     263619170
 MEMORY| MemFree             190206720     190206720     193773528     191990245
 MEMORY| Buffers                  3320            44          3320          1682
 MEMORY| Cached                1806060        985892       1806060       1395976
 MEMORY| Slab                  2046408       1831568       2046408       1938988
 MEMORY| SReclaimable           250612        228488        250612        239550
 MEMORY| MemLikelyFree       192266712     192266712     194987952     193627453


 *** Fundamental physical constants (SI units) ***

 *** Literature: B. J. Mohr and B. N. Taylor,
 ***             CODATA recommended values of the fundamental physical
 ***             constants: 2006, Web Version 5.1
 ***             http://physics.nist.gov/constants

 Speed of light in vacuum [m/s]                             2.99792458000000E+08
 Magnetic constant or permeability of vacuum [N/A**2]       1.25663706143592E-06
 Electric constant or permittivity of vacuum [F/m]          8.85418781762039E-12
 Planck constant (h) [J*s]                                  6.62606896000000E-34
 Planck constant (h-bar) [J*s]                              1.05457162825177E-34
 Elementary charge [C]                                      1.60217648700000E-19
 Electron mass [kg]                                         9.10938215000000E-31
 Electron g factor [ ]                                     -2.00231930436220E+00
 Proton mass [kg]                                           1.67262163700000E-27
 Fine-structure constant                                    7.29735253760000E-03
 Rydberg constant [1/m]                                     1.09737315685270E+07
 Avogadro constant [1/mol]                                  6.02214179000000E+23
 Boltzmann constant [J/K]                                   1.38065040000000E-23
 Atomic mass unit [kg]                                      1.66053878200000E-27
 Bohr radius [m]                                            5.29177208590000E-11

 *** Conversion factors ***

 [u] -> [a.u.]                                              1.82288848426455E+03
 [Angstrom] -> [Bohr] = [a.u.]                              1.88972613288564E+00
 [a.u.] = [Bohr] -> [Angstrom]                              5.29177208590000E-01
 [a.u.] -> [s]                                              2.41888432650478E-17
 [a.u.] -> [fs]                                             2.41888432650478E-02
 [a.u.] -> [J]                                              4.35974393937059E-18
 [a.u.] -> [N]                                              8.23872205491840E-08
 [a.u.] -> [K]                                              3.15774647902944E+05
 [a.u.] -> [kJ/mol]                                         2.62549961709828E+03
 [a.u.] -> [kcal/mol]                                       6.27509468713739E+02
 [a.u.] -> [Pa]                                             2.94210107994716E+13
 [a.u.] -> [bar]                                            2.94210107994716E+08
 [a.u.] -> [atm]                                            2.90362800883016E+08
 [a.u.] -> [eV]                                             2.72113838565563E+01
 [a.u.] -> [Hz]                                             6.57968392072181E+15
 [a.u.] -> [1/cm] (wave numbers)                            2.19474631370540E+05
 [a.u./Bohr**2] -> [1/cm]                                   5.14048714338585E+03
 

 CELL_TOP| Volume [angstrom^3]:                                     17614.982639
 CELL_TOP| Vector a [angstrom    16.869     0.000     0.000   |a| =    16.869000
 CELL_TOP| Vector b [angstrom    -8.434    14.609     0.000   |b| =    16.869015
 CELL_TOP| Vector c [angstrom     0.000     0.000    71.478   |c| =    71.478000
 CELL_TOP| Angle (b,c), alpha [degree]:                                90.000000
 CELL_TOP| Angle (a,c), beta  [degree]:                                90.000000
 CELL_TOP| Angle (a,b), gamma [degree]:                               119.999970
 CELL_TOP| Numerically orthorhombic:                                          NO
 
 GENERATE|  Preliminary Number of Bonds generated:                             0
 GENERATE|  Achieved consistency in connectivity generation.

 CELL| Volume [angstrom^3]:                                         17614.982639
 CELL| Vector a [angstrom]:      16.869     0.000     0.000   |a| =    16.869000
 CELL| Vector b [angstrom]:      -8.434    14.609     0.000   |b| =    16.869015
 CELL| Vector c [angstrom]:       0.000     0.000    71.478   |c| =    71.478000
 CELL| Angle (b,c), alpha [degree]:                                    90.000000
 CELL| Angle (a,c), beta  [degree]:                                    90.000000
 CELL| Angle (a,b), gamma [degree]:                                   119.999970
 CELL| Numerically orthorhombic:                                              NO

 CELL_REF| Volume [angstrom^3]:                                     17614.982639
 CELL_REF| Vector a [angstrom    16.869     0.000     0.000   |a| =    16.869000
 CELL_REF| Vector b [angstrom    -8.434    14.609     0.000   |b| =    16.869015
 CELL_REF| Vector c [angstrom     0.000     0.000    71.478   |c| =    71.478000
 CELL_REF| Angle (b,c), alpha [degree]:                                90.000000
 CELL_REF| Angle (a,c), beta  [degree]:                                90.000000
 CELL_REF| Angle (a,b), gamma [degree]:                               119.999970
 CELL_REF| Numerically orthorhombic:                                          NO

 *******************************************************************************
 *******************************************************************************
 **                                                                           **
 **     #####                         ##              ##                      **
 **    ##   ##            ##          ##              ##                      **
 **   ##     ##                       ##            ######                    **
 **   ##     ##  ##   ##  ##   #####  ##  ##   ####   ##    #####    #####    **
 **   ##     ##  ##   ##  ##  ##      ## ##   ##      ##   ##   ##  ##   ##   **
 **   ##  ## ##  ##   ##  ##  ##      ####     ###    ##   ######   ######    **
 **    ##  ###   ##   ##  ##  ##      ## ##      ##   ##   ##       ##        **
 **     #######   #####   ##   #####  ##  ##  ####    ##    #####   ##        **
 **           ##                                                    ##        **
 **                                                                           **
 **                                                ... make the atoms dance   **
 **                                                                           **
 **            Copyright (C) by CP2K developers group (2000-2022)             **
 **                      J. Chem. Phys. 152, 194103 (2020)                    **
 **                                                                           **
 *******************************************************************************

 DFT| Spin restricted Kohn-Sham (RKS) calculation                            RKS
 DFT| Multiplicity                                                             1
 DFT| Number of spin states                                                    1
 DFT| Charge                                                                   0
 DFT| Self-interaction correction (SIC)                                       NO
 DFT| Cutoffs: density                                              1.000000E-10
 DFT|          gradient                                             1.000000E-10
 DFT|          tau                                                  1.000000E-10
 DFT|          cutoff_smoothing_range                               0.000000E+00
 DFT| XC density smoothing                                                  NONE
 DFT| XC derivatives                                                          PW

 FUNCTIONAL| PBE:
 FUNCTIONAL| J.P.Perdew, K.Burke, M.Ernzerhof, Phys. Rev. Letter, vol. 77, n 18,
 FUNCTIONAL|  pp. 3865-3868, (1996){spin unpolarized}                           

 vdW POTENTIAL|                                                   Pair Potential
 vdW POTENTIAL|          DFT-D3 (Version 3.1)
 vdW POTENTIAL|          Potential Form: S. Grimme et al, JCP 132: 154104 (2010)
 vdW POTENTIAL|          Zero Damping
 vdW POTENTIAL|          Cutoff Radius [Bohr]:                             20.00
 vdW POTENTIAL|          s6 Scaling Factor:                               1.0000
 vdW POTENTIAL|          sr6 Scaling Factor:                              1.2170
 vdW POTENTIAL|          s8 Scaling Factor:                               0.7220
 vdW POTENTIAL|          Cutoff for CN calculation:                   0.1000E-05

 QS| Method:                                                                 GPW
 QS| Density plane wave grid type                        NON-SPHERICAL FULLSPACE
 QS| Number of grid levels:                                                    4
 QS| Density cutoff [a.u.]:                                                200.0
 QS| Multi grid cutoff [a.u.]: 1) grid level                               200.0
 QS|                           2) grid level                                66.7
 QS|                           3) grid level                                22.2
 QS|                           4) grid level                                 7.4
 QS| Grid level progression factor:                                          3.0
 QS| Relative density cutoff [a.u.]:                                        20.0
 QS| Interaction thresholds: eps_pgf_orb:                                3.2E-07
 QS|                         eps_filter_matrix:                          0.0E+00
 QS|                         eps_core_charge:                            1.0E-15
 QS|                         eps_rho_gspace:                             1.0E-13
 QS|                         eps_rho_rspace:                             1.0E-13
 QS|                         eps_gvg_rspace:                             3.2E-07
 QS|                         eps_ppl:                                    1.0E-02
 QS|                         eps_ppnl:                                   3.2E-09


 ATOMIC KIND INFORMATION

  1. Atomic kind: O                                     Number of atoms:     100

     Orbital Basis Set                                        DZVP-MOLOPT-SR-GTH

       Number of orbital shell sets:                                           1
       Number of orbital shells:                                               5
       Number of primitive Cartesian functions:                                5
       Number of Cartesian basis functions:                                   14
       Number of spherical basis functions:                                   13
       Norm type:                                                              2

       Normalised Cartesian orbitals:

                        Set   Shell   Orbital            Exponent    Coefficient

                          1       1    2s               10.389228       0.396646
                                                         3.849621       0.208811
                                                         1.388401      -0.301641
                                                         0.496955      -0.274061
                                                         0.162492      -0.033677

                          1       2    3s               10.389228       0.303673
                                                         3.849621       0.240943
                                                         1.388401      -0.313066
                                                         0.496955      -0.043055
                                                         0.162492       0.213991

                          1       3    3px              10.389228      -1.530415
                                                         3.849621      -1.371928
                                                         1.388401      -0.761951
                                                         0.496955      -0.253695
                                                         0.162492      -0.035541
                          1       3    3py              10.389228      -1.530415
                                                         3.849621      -1.371928
                                                         1.388401      -0.761951
                                                         0.496955      -0.253695
                                                         0.162492      -0.035541
                          1       3    3pz              10.389228      -1.530415
                                                         3.849621      -1.371928
                                                         1.388401      -0.761951
                                                         0.496955      -0.253695
                                                         0.162492      -0.035541

                          1       4    4px              10.389228      -0.565392
                                                         3.849621      -0.038231
                                                         1.388401      -0.382373
                                                         0.496955       0.179070
                                                         0.162492       0.122714
                          1       4    4py              10.389228      -0.565392
                                                         3.849621      -0.038231
                                                         1.388401      -0.382373
                                                         0.496955       0.179070
                                                         0.162492       0.122714
                          1       4    4pz              10.389228      -0.565392
                                                         3.849621      -0.038231
                                                         1.388401      -0.382373
                                                         0.496955       0.179070
                                                         0.162492       0.122714

                          1       5    4dx2             10.389228       1.867377
                                                         3.849621       0.670994
                                                         1.388401       1.353441
                                                         0.496955       0.273538
                                                         0.162492       0.006620
                          1       5    4dxy             10.389228       3.234392
                                                         3.849621       1.162195
                                                         1.388401       2.344229
                                                         0.496955       0.473781
                                                         0.162492       0.011466
                          1       5    4dxz             10.389228       3.234392
                                                         3.849621       1.162195
                                                         1.388401       2.344229
                                                         0.496955       0.473781
                                                         0.162492       0.011466
                          1       5    4dy2             10.389228       1.867377
                                                         3.849621       0.670994
                                                         1.388401       1.353441
                                                         0.496955       0.273538
                                                         0.162492       0.006620
                          1       5    4dyz             10.389228       3.234392
                                                         3.849621       1.162195
                                                         1.388401       2.344229
                                                         0.496955       0.473781
                                                         0.162492       0.011466
                          1       5    4dz2             10.389228       1.867377
                                                         3.849621       0.670994
                                                         1.388401       1.353441
                                                         0.496955       0.273538
                                                         0.162492       0.006620

       Atomic covalent radius [Angstrom]:                                  0.730

       Atomic van der Waals radius [Angstrom]:                             1.520

     GTH Potential information for                                    GTH-PBE-q6

       Description:                       Goedecker-Teter-Hutter pseudopotential
                                           Goedecker et al., PRB 54, 1703 (1996)
                                          Hartwigsen et al., PRB 58, 3641 (1998)
                                                      Krack, TCA 114, 145 (2005)

       Gaussian exponent of the core charge distribution:               8.360253
       Electronic configuration (s p d ...):                               2   4

       Parameters of the local part of the GTH pseudopotential:

                          rloc        C1          C2          C3          C4
                        0.244554  -16.667215    2.487311

       Parameters of the non-local part of the GTH pseudopotential:

                   l      r(l)      h(i,j,l)

                   0    0.220956   18.337458
                   1    0.211332

  2. Atomic kind: H                                     Number of atoms:     200

     Orbital Basis Set                                        DZVP-MOLOPT-SR-GTH

       Number of orbital shell sets:                                           1
       Number of orbital shells:                                               3
       Number of primitive Cartesian functions:                                5
       Number of Cartesian basis functions:                                    5
       Number of spherical basis functions:                                    5
       Norm type:                                                              2

       Normalised Cartesian orbitals:

                        Set   Shell   Orbital            Exponent    Coefficient

                          1       1    2s               10.068468      -0.133023
                                                         2.680223      -0.177618
                                                         0.791502      -0.258419
                                                         0.239116      -0.107525
                                                         0.082193      -0.014019

                          1       2    3s               10.068468       0.344673
                                                         2.680223       1.819821
                                                         0.791502      -0.999069
                                                         0.239116       0.017430
                                                         0.082193       0.082660

                          1       3    3px              10.068468       0.155326
                                                         2.680223       0.367157
                                                         0.791502       0.311480
                                                         0.239116       0.080105
                                                         0.082193       0.033440
                          1       3    3py              10.068468       0.155326
                                                         2.680223       0.367157
                                                         0.791502       0.311480
                                                         0.239116       0.080105
                                                         0.082193       0.033440
                          1       3    3pz              10.068468       0.155326
                                                         2.680223       0.367157
                                                         0.791502       0.311480
                                                         0.239116       0.080105
                                                         0.082193       0.033440

       Atomic covalent radius [Angstrom]:                                  0.320

       Atomic van der Waals radius [Angstrom]:                             1.090

     GTH Potential information for                                    GTH-PBE-q1

       Description:                       Goedecker-Teter-Hutter pseudopotential
                                           Goedecker et al., PRB 54, 1703 (1996)
                                          Hartwigsen et al., PRB 58, 3641 (1998)
                                                      Krack, TCA 114, 145 (2005)

       Gaussian exponent of the core charge distribution:              12.500000
       Electronic configuration (s p d ...):                                   1

       Parameters of the local part of the GTH pseudopotential:

                          rloc        C1          C2          C3          C4
                        0.200000   -4.178900    0.724463

  3. Atomic kind: Pt                                    Number of atoms:     216

     Orbital Basis Set                      DZVP-A5-Q10-323-MOL-T1-DERIVED_SET-1

       Number of orbital shell sets:                                           1
       Number of orbital shells:                                               6
       Number of primitive Cartesian functions:                                5
       Number of Cartesian basis functions:                                   23
       Number of spherical basis functions:                                   20
       Norm type:                                                              2

       Normalised Cartesian orbitals:

                        Set   Shell   Orbital            Exponent    Coefficient

                          1       1    2s                2.521825       0.177473
                                                         1.453920      -0.063399
                                                         0.614053      -0.407089
                                                         0.232656       0.262254
                                                         0.074788       0.047371

                          1       2    3s                2.521825      -0.049056
                                                         1.453920       0.044904
                                                         0.614053      -0.009756
                                                         0.232656      -0.144709
                                                         0.074788       0.144085

                          1       3    3px               2.521825      -0.317572
                                                         1.453920       0.534826
                                                         0.614053      -0.489458
                                                         0.232656       0.245631
                                                         0.074788       0.018221
                          1       3    3py               2.521825      -0.317572
                                                         1.453920       0.534826
                                                         0.614053      -0.489458
                                                         0.232656       0.245631
                                                         0.074788       0.018221
                          1       3    3pz               2.521825      -0.317572
                                                         1.453920       0.534826
                                                         0.614053      -0.489458
                                                         0.232656       0.245631
                                                         0.074788       0.018221

                          1       4    4dx2              2.521825       3.008522
                                                         1.453920      -1.224251
                                                         0.614053       0.225691
                                                         0.232656       0.125144
                                                         0.074788      -0.015348
                          1       4    4dxy              2.521825       5.210912
                                                         1.453920      -2.120465
                                                         0.614053       0.390909
                                                         0.232656       0.216756
                                                         0.074788      -0.026584
                          1       4    4dxz              2.521825       5.210912
                                                         1.453920      -2.120465
                                                         0.614053       0.390909
                                                         0.232656       0.216756
                                                         0.074788      -0.026584
                          1       4    4dy2              2.521825       3.008522
                                                         1.453920      -1.224251
                                                         0.614053       0.225691
                                                         0.232656       0.125144
                                                         0.074788      -0.015348
                          1       4    4dyz              2.521825       5.210912
                                                         1.453920      -2.120465
                                                         0.614053       0.390909
                                                         0.232656       0.216756
                                                         0.074788      -0.026584
                          1       4    4dz2              2.521825       3.008522
                                                         1.453920      -1.224251
                                                         0.614053       0.225691
                                                         0.232656       0.125144
                                                         0.074788      -0.015348

                          1       5    5dx2              2.521825       0.698026
                                                         1.453920      -1.511486
                                                         0.614053      -0.335394
                                                         0.232656      -0.025564
                                                         0.074788      -0.002699
                          1       5    5dxy              2.521825       1.209017
                                                         1.453920      -2.617970
                                                         0.614053      -0.580920
                                                         0.232656      -0.044277
                                                         0.074788      -0.004674
                          1       5    5dxz              2.521825       1.209017
                                                         1.453920      -2.617970
                                                         0.614053      -0.580920
                                                         0.232656      -0.044277
                                                         0.074788      -0.004674
                          1       5    5dy2              2.521825       0.698026
                                                         1.453920      -1.511486
                                                         0.614053      -0.335394
                                                         0.232656      -0.025564
                                                         0.074788      -0.002699
                          1       5    5dyz              2.521825       1.209017
                                                         1.453920      -2.617970
                                                         0.614053      -0.580920
                                                         0.232656      -0.044277
                                                         0.074788      -0.004674
                          1       5    5dz2              2.521825       0.698026
                                                         1.453920      -1.511486
                                                         0.614053      -0.335394
                                                         0.232656      -0.025564
                                                         0.074788      -0.002699

                          1       6    6dx2              2.521825       0.831079
                                                         1.453920      -0.709226
                                                         0.614053      -0.137351
                                                         0.232656       0.068642
                                                         0.074788       0.011745
                          1       6    6dxy              2.521825       1.439472
                                                         1.453920      -1.228415
                                                         0.614053      -0.237899
                                                         0.232656       0.118891
                                                         0.074788       0.020343
                          1       6    6dxz              2.521825       1.439472
                                                         1.453920      -1.228415
                                                         0.614053      -0.237899
                                                         0.232656       0.118891
                                                         0.074788       0.020343
                          1       6    6dy2              2.521825       0.831079
                                                         1.453920      -0.709226
                                                         0.614053      -0.137351
                                                         0.232656       0.068642
                                                         0.074788       0.011745
                          1       6    6dyz              2.521825       1.439472
                                                         1.453920      -1.228415
                                                         0.614053      -0.237899
                                                         0.232656       0.118891
                                                         0.074788       0.020343
                          1       6    6dz2              2.521825       0.831079
                                                         1.453920      -0.709226
                                                         0.614053      -0.137351
                                                         0.232656       0.068642
                                                         0.074788       0.011745

       Atomic covalent radius [Angstrom]:                                  1.300

       Atomic van der Waals radius [Angstrom]:                             1.750

     GTH Potential information for                                   GTH-PBE-q10

       Description:                       Goedecker-Teter-Hutter pseudopotential
                                           Goedecker et al., PRB 54, 1703 (1996)
                                          Hartwigsen et al., PRB 58, 3641 (1998)
                                                      Krack, TCA 114, 145 (2005)

       Gaussian exponent of the core charge distribution:               1.317676
       Electronic configuration (s p d ...):                           1   0   9

       Parameters of the local part of the GTH pseudopotential:

                          rloc        C1          C2          C3          C4
                        0.616000   11.313635

       Parameters of the non-local part of the GTH pseudopotential:

                   l      r(l)      h(i,j,l)

                   0    0.550904    4.733491   -1.784594
                                   -1.784594    2.303901
                   1    0.674138    2.534798   -1.778066
                                   -1.778066    2.103836
                   2    0.457392   -7.264011    2.558665
                                    2.558665   -2.901253


 MOLECULE KIND INFORMATION


 All atoms are their own molecule, skipping detailed information


 TOTAL NUMBERS AND MAXIMUM NUMBERS

  Total number of            - Atomic kinds:                                   3
                             - Atoms:                                        516
                             - Shell sets:                                   516
                             - Shells:                                      2396
                             - Primitive Cartesian functions:               2580
                             - Cartesian basis functions:                   7368
                             - Spherical basis functions:                   6620

  Maximum angular momentum of- Orbital basis functions:                        2
                             - Local part of the GTH pseudopotential:          2
                             - Non-local part of the GTH pseudopotential:      4


 MODULE QUICKSTEP:  ATOMIC COORDINATES IN angstrom

 Atom  Kind  Element       X           Y           Z          Z(eff)       Mass
    1   1 O    8       0.630000  -11.090001   29.817997       6.0000     15.9994
    2   2 H    1       0.600000  -11.260000   28.797998       1.0000      1.0079
    3   2 H    1      -0.160000  -11.670000   30.147997       1.0000      1.0079
    4   1 O    8       8.950001    9.690001   33.237997       6.0000     15.9994
    5   2 H    1       8.370000    9.100000   32.697998       1.0000      1.0079
    6   2 H    1       8.580000    9.440001   34.167998       1.0000      1.0079
    7   1 O    8      -5.960000  -26.900002   37.907998       6.0000     15.9994
    8   2 H    1      -5.850000  -27.580002   38.697997       1.0000      1.0079
    9   2 H    1      -6.780000  -27.150002   37.407998       1.0000      1.0079
   10   1 O    8      12.820001    6.990001   33.147998       6.0000     15.9994
   11   2 H    1      12.180000    7.770000   33.307998       1.0000      1.0079
   12   2 H    1      12.260000    6.300001   33.627998       1.0000      1.0079
   13   1 O    8       4.420000   31.250002   29.317997       6.0000     15.9994
   14   2 H    1       5.160000   30.710001   29.517997       1.0000      1.0079
   15   2 H    1      12.080001   16.020000   29.657997       1.0000      1.0079
   16   1 O    8     -25.420000  -17.530001   38.687997       6.0000     15.9994
   17   2 H    1     -25.910000  -18.340000   38.407998       1.0000      1.0079
   18   2 H    1     -25.890003  -16.740000   38.487998       1.0000      1.0079
   19   1 O    8      24.360001   18.480000   33.337999       6.0000     15.9994
   20   2 H    1      24.840002   19.290001   33.757998       1.0000      1.0079
   21   2 H    1      23.660002   18.090002   33.897998       1.0000      1.0079
   22   1 O    8      -3.710000    4.560000   36.537998       6.0000     15.9994
   23   2 H    1      -3.980000    3.760000   37.027997       1.0000      1.0079
   24   2 H    1      -4.440001    4.730000   35.857998       1.0000      1.0079
   25   1 O    8       6.450000  -15.490000   38.917999       6.0000     15.9994
   26   2 H    1       6.130000  -15.790001   39.787998       1.0000      1.0079
   27   2 H    1       5.780000  -15.830001   38.307998       1.0000      1.0079
   28   1 O    8      34.180000  -23.020000   30.077998       6.0000     15.9994
   29   2 H    1      33.720001  -23.870001   30.127998       1.0000      1.0079
   30   2 H    1      51.200005  -22.860001   29.087998       1.0000      1.0079
   31   1 O    8      -2.180000  -43.260002   37.037998       6.0000     15.9994
   32   2 H    1      -2.730000  -42.860001   36.327998       1.0000      1.0079
   33   2 H    1      -2.190000  -44.230003   36.757999       1.0000      1.0079
   34   1 O    8      14.100000   -9.840000   29.197997       6.0000     15.9994
   35   2 H    1      14.050001  -10.800000   29.537998       1.0000      1.0079
   36   2 H    1      14.910001   -9.470000   29.577998       1.0000      1.0079
   37   1 O    8      -8.260000   14.280001   29.017997       6.0000     15.9994
   38   2 H    1      -9.030001   14.960001   29.357997       1.0000      1.0079
   39   2 H    1      -8.550000   13.350000   29.287998       1.0000      1.0079
   40   1 O    8      -4.350000   -3.280000   30.037998       6.0000     15.9994
   41   2 H    1      -4.090000   -2.770000   29.247998       1.0000      1.0079
   42   2 H    1      -4.200000   -2.650000   30.767997       1.0000      1.0079
   43   1 O    8     -22.270000  -11.960001   32.197997       6.0000     15.9994
   44   2 H    1     -22.900002  -12.250000   32.957998       1.0000      1.0079
   45   2 H    1     -22.660000  -12.040001   31.327998       1.0000      1.0079
   46   1 O    8       4.710000   -3.700000   32.617997       6.0000     15.9994
   47   2 H    1       3.940000   -4.260000   32.987997       1.0000      1.0079
   48   2 H    1       4.460000   -3.270000   31.757997       1.0000      1.0079
   49   1 O    8      28.110001    3.030000   32.887998       6.0000     15.9994
   50   2 H    1      28.260002    3.060000   31.957998       1.0000      1.0079
   51   2 H    1      10.810001    2.150000   32.917998       1.0000      1.0079
   52   1 O    8       0.180000    9.710001   29.017997       6.0000     15.9994
   53   2 H    1      -0.720000    9.360001   29.517997       1.0000      1.0079
   54   2 H    1       1.030000    9.440001   29.357997       1.0000      1.0079
   55   1 O    8      23.740002   15.730000   30.117997       6.0000     15.9994
   56   2 H    1      23.690002   15.220001   31.007998       1.0000      1.0079
   57   2 H    1      22.889999   15.580001   29.657997       1.0000      1.0079
   58   1 O    8     -21.260002    8.970000   38.947997       6.0000     15.9994
   59   2 H    1     -20.610001    9.610001   38.597999       1.0000      1.0079
   60   2 H    1     -21.020000    8.900001   39.887998       1.0000      1.0079
   61   1 O    8      14.330001   23.760002   30.217997       6.0000     15.9994
   62   2 H    1      14.130001   24.710003   30.257997       1.0000      1.0079
   63   2 H    1      14.780001   23.630001   29.377998       1.0000      1.0079
   64   1 O    8       0.460000    0.100000   37.777999       6.0000     15.9994
   65   2 H    1       0.080000   -0.320000   38.567998       1.0000      1.0079
   66   2 H    1      -7.300000   15.440001   37.947997       1.0000      1.0079
   67   1 O    8       6.250000   23.610001   29.967998       6.0000     15.9994
   68   2 H    1       5.650000   22.790001   29.897998       1.0000      1.0079
   69   2 H    1       6.480000   23.780001   30.927998       1.0000      1.0079
   70   1 O    8       6.060000    9.370001   38.937997       6.0000     15.9994
   71   2 H    1       6.590000    8.770000   39.477998       1.0000      1.0079
   72   2 H    1       6.060000    8.950001   38.017997       1.0000      1.0079
   73   1 O    8     -19.980001   34.060001   29.227997       6.0000     15.9994
   74   2 H    1      -3.480000   34.959999   29.397998       1.0000      1.0079
   75   2 H    1     -19.180000   34.040001   29.777997       1.0000      1.0079
   76   1 O    8      10.130000   -6.460000   32.527997       6.0000     15.9994
   77   2 H    1      10.610001   -6.110000   31.717998       1.0000      1.0079
   78   2 H    1       9.420000   -7.030000   32.227998       1.0000      1.0079
   79   1 O    8      -3.690000   -1.570000   31.927998       6.0000     15.9994
   80   2 H    1      -4.280000   -1.840000   32.797998       1.0000      1.0079
   81   2 H    1      -4.080000   -0.830000   31.507997       1.0000      1.0079
   82   1 O    8       2.070000   -0.490000   32.287998       6.0000     15.9994
   83   2 H    1       1.550000    0.240000   32.597998       1.0000      1.0079
   84   2 H    1       1.310000   -1.180000   32.367998       1.0000      1.0079
   85   1 O    8      -1.340000  -11.900001   31.227997       6.0000     15.9994
   86   2 H    1      -1.580000  -11.090001   31.737997       1.0000      1.0079
   87   2 H    1      -2.040000  -12.510000   31.527997       1.0000      1.0079
   88   1 O    8     -19.550001   42.299999   34.027998       6.0000     15.9994
   89   2 H    1     -20.320000   42.900005   34.297998       1.0000      1.0079
   90   2 H    1     -20.010002   41.560001   33.517997       1.0000      1.0079
   91   1 O    8      12.750001    6.280000   38.697997       6.0000     15.9994
   92   2 H    1      13.080001    7.210000   38.497997       1.0000      1.0079
   93   2 H    1      12.980001    5.670000   37.877998       1.0000      1.0079
   94   1 O    8     -35.240002    0.090000   32.437998       6.0000     15.9994
   95   2 H    1     -35.820004   -0.720000   32.247998       1.0000      1.0079
   96   2 H    1     -35.870003    0.730000   32.917998       1.0000      1.0079
   97   1 O    8      11.310000   14.480001   29.847997       6.0000     15.9994
   98   2 H    1      10.640000   14.540001   29.137998       1.0000      1.0079
   99   2 H    1      10.820000   14.470000   30.677997       1.0000      1.0079
  100   1 O    8      19.030001  -10.150002   39.587999       6.0000     15.9994
  101   2 H    1      11.160001    5.130000   39.187997       1.0000      1.0079
  102   2 H    1      19.090000  -10.990001   39.097999       1.0000      1.0079
  103   1 O    8     -34.510002   -0.750000   35.157997       6.0000     15.9994
  104   2 H    1     -34.040001   -0.420000   35.947997       1.0000      1.0079
  105   2 H    1     -34.580002    0.060000   34.597997       1.0000      1.0079
  106   1 O    8      11.180000    5.190001   34.467998       6.0000     15.9994
  107   2 H    1      27.100000    5.420001   34.577998       1.0000      1.0079
  108   2 H    1      11.130000    4.340000   33.977997       1.0000      1.0079
  109   1 O    8       6.590000   37.440002   32.687997       6.0000     15.9994
  110   2 H    1       6.300001   37.610001   31.707998       1.0000      1.0079
  111   2 H    1      22.730000   37.890003   33.247998       1.0000      1.0079
  112   1 O    8       0.110000    6.110000   34.697997       6.0000     15.9994
  113   2 H    1       1.110000    6.030001   34.687998       1.0000      1.0079
  114   2 H    1      -0.020000    5.730000   35.637997       1.0000      1.0079
  115   1 O    8       7.340000  -10.700001   30.747998       6.0000     15.9994
  116   2 H    1       7.330000  -10.640000   31.717998       1.0000      1.0079
  117   2 H    1       6.870000  -11.470001   30.397997       1.0000      1.0079
  118   1 O    8      20.090000  -11.610001   30.357997       6.0000     15.9994
  119   2 H    1      19.050001  -11.510000   30.177998       1.0000      1.0079
  120   2 H    1      29.030001    3.510000   29.697997       1.0000      1.0079
  121   1 O    8      -9.360001   -7.300000   38.797998       6.0000     15.9994
  122   2 H    1      -9.320001   -6.670001   38.107997       1.0000      1.0079
  123   2 H    1      -8.540000   -7.150001   39.287998       1.0000      1.0079
  124   1 O    8      15.100001    7.990000   34.107997       6.0000     15.9994
  125   2 H    1      -1.250000    7.250000   34.477998       1.0000      1.0079
  126   2 H    1      14.200001    7.600000   33.907997       1.0000      1.0079
  127   1 O    8     -26.030003   11.940001   30.007998       6.0000     15.9994
  128   2 H    1     -25.470001   11.130000   29.707998       1.0000      1.0079
  129   2 H    1     -25.870001   12.080001   30.957998       1.0000      1.0079
  130   1 O    8     -21.180000   11.960001   30.057998       6.0000     15.9994
  131   2 H    1     -21.840000   12.670001   29.877998       1.0000      1.0079
  132   2 H    1     -20.950001   11.550001   29.177998       1.0000      1.0079
  133   1 O    8       2.550000   -1.700000   37.227998       6.0000     15.9994
  134   2 H    1       3.050000   -1.850000   38.047998       1.0000      1.0079
  135   2 H    1       1.640000   -1.290000   37.377998       1.0000      1.0079
  136   1 O    8      29.820002    1.250000   36.417998       6.0000     15.9994
  137   2 H    1      29.950001    0.320000   36.757999       1.0000      1.0079
  138   2 H    1      29.110003    1.610000   36.917998       1.0000      1.0079
  139   1 O    8      -5.270000   23.650000   39.387998       6.0000     15.9994
  140   2 H    1      -4.320000   23.700001   39.637998       1.0000      1.0079
  141   2 H    1      -5.700001   22.930002   39.877998       1.0000      1.0079
  142   1 O    8       4.940000    9.470000   34.407998       6.0000     15.9994
  143   2 H    1       4.010000    9.750000   34.217998       1.0000      1.0079
  144   2 H    1       5.530000   10.270000   34.587999       1.0000      1.0079
  145   1 O    8      22.040001   30.510002   32.547997       6.0000     15.9994
  146   2 H    1      21.200001   30.900002   32.287998       1.0000      1.0079
  147   2 H    1      21.960001   29.560001   32.577998       1.0000      1.0079
  148   1 O    8       1.220000   38.580002   35.177997       6.0000     15.9994
  149   2 H    1       1.330000   39.500004   34.867998       1.0000      1.0079
  150   2 H    1       1.280000   38.090004   34.357998       1.0000      1.0079
  151   1 O    8      11.240001   20.400002   35.347998       6.0000     15.9994
  152   2 H    1      11.380000   21.230001   35.977998       1.0000      1.0079
  153   2 H    1      11.790000   20.450001   34.527997       1.0000      1.0079
  154   1 O    8     -16.710001   14.730001   28.957998       6.0000     15.9994
  155   2 H    1     -17.600000   14.370001   29.217998       1.0000      1.0079
  156   2 H    1     -16.020000   14.080001   29.237997       1.0000      1.0079
  157   1 O    8       0.770000   12.870001   35.767997       6.0000     15.9994
  158   2 H    1       0.980000   13.610001   35.127998       1.0000      1.0079
  159   2 H    1       1.380000   12.980001   36.507997       1.0000      1.0079
  160   1 O    8       8.220000    9.440001   35.637997       6.0000     15.9994
  161   2 H    1       9.000000    9.240000   36.317998       1.0000      1.0079
  162   2 H    1       7.410001    8.820001   35.817997       1.0000      1.0079
  163   1 O    8       8.710001    5.930000   34.957998       6.0000     15.9994
  164   2 H    1       8.000000    6.540000   34.667997       1.0000      1.0079
  165   2 H    1       8.290001    5.080000   35.267998       1.0000      1.0079
  166   1 O    8      17.690001   11.430000   32.327998       6.0000     15.9994
  167   2 H    1      17.880001   11.650001   31.377998       1.0000      1.0079
  168   2 H    1      16.860001   10.840001   32.207998       1.0000      1.0079
  169   1 O    8     -22.050001   10.360001   36.037998       6.0000     15.9994
  170   2 H    1     -22.480001    9.940001   36.777998       1.0000      1.0079
  171   2 H    1     -22.570002   11.250000   36.017998       1.0000      1.0079
  172   1 O    8      27.610001   27.390001   37.847999       6.0000     15.9994
  173   2 H    1      27.710001   28.270000   38.337999       1.0000      1.0079
  174   2 H    1      27.140003   26.820002   38.587999       1.0000      1.0079
  175   1 O    8      18.340000   -4.470000   29.987997       6.0000     15.9994
  176   2 H    1      18.820002   -4.410000   29.107997       1.0000      1.0079
  177   2 H    1      19.120001   -4.310000   30.567997       1.0000      1.0079
  178   1 O    8       5.250000  -12.270001   33.647997       6.0000     15.9994
  179   2 H    1       4.950000  -12.630000   34.487998       1.0000      1.0079
  180   2 H    1      21.340000  -11.840000   33.237997       1.0000      1.0079
  181   1 O    8      10.150002  -21.730001   29.417998       6.0000     15.9994
  182   2 H    1      10.010000  -20.780001   29.537998       1.0000      1.0079
  183   2 H    1       9.320001  -22.150002   29.847997       1.0000      1.0079
  184   1 O    8      32.490002    9.880000   32.257998       6.0000     15.9994
  185   2 H    1      31.620003   10.280000   32.437998       1.0000      1.0079
  186   2 H    1      15.690001    9.230001   32.997998       1.0000      1.0079
  187   1 O    8      -8.780001  -23.270000   30.427998       6.0000     15.9994
  188   2 H    1      -9.240000  -23.500002   31.257998       1.0000      1.0079
  189   2 H    1      -8.280001  -24.139999   30.237997       1.0000      1.0079
  190   1 O    8      23.350000   -2.040000   36.727998       6.0000     15.9994
  191   2 H    1      22.930002   -2.230000   35.857998       1.0000      1.0079
  192   2 H    1      24.310001   -2.000000   36.347998       1.0000      1.0079
  193   1 O    8     -14.650001   34.620003   38.467998       6.0000     15.9994
  194   2 H    1     -15.550001   34.320000   38.647998       1.0000      1.0079
  195   2 H    1     -14.810000   35.570000   38.217998       1.0000      1.0079
  196   1 O    8       7.120000   23.600002   36.607997       6.0000     15.9994
  197   2 H    1       6.470000   23.250000   35.897997       1.0000      1.0079
  198   2 H    1       7.950000   23.630001   36.127998       1.0000      1.0079
  199   1 O    8      13.520001   19.970001   37.447997       6.0000     15.9994
  200   2 H    1      12.560000   19.960001   37.557998       1.0000      1.0079
  201   2 H    1      13.900002   20.010002   38.317998       1.0000      1.0079
  202   1 O    8      30.590002   16.970001   35.047998       6.0000     15.9994
  203   2 H    1      29.720001   17.380001   35.207998       1.0000      1.0079
  204   2 H    1      30.590002   16.510000   34.157997       1.0000      1.0079
  205   1 O    8      11.810001   29.470001   39.437999       6.0000     15.9994
  206   2 H    1      11.790000   29.520000   40.457998       1.0000      1.0079
  207   2 H    1      12.740001   29.400002   39.187997       1.0000      1.0079
  208   1 O    8     -14.210001    8.970000   30.047998       6.0000     15.9994
  209   2 H    1     -13.520001    9.620001   29.937997       1.0000      1.0079
  210   2 H    1     -13.910000    8.020000   30.037998       1.0000      1.0079
  211   1 O    8      23.870001  -12.280001   37.397998       6.0000     15.9994
  212   2 H    1      23.070002  -12.710000   36.957998       1.0000      1.0079
  213   2 H    1      24.580002  -12.840000   37.537998       1.0000      1.0079
  214   1 O    8       7.950000    4.640000   38.967998       6.0000     15.9994
  215   2 H    1       8.950001    4.530000   38.947997       1.0000      1.0079
  216   2 H    1       7.660000    3.720000   39.157998       1.0000      1.0079
  217   1 O    8       3.580000   28.760002   35.067998       6.0000     15.9994
  218   2 H    1       2.990000   29.210003   34.427998       1.0000      1.0079
  219   2 H    1       3.040000   28.260002   35.737998       1.0000      1.0079
  220   1 O    8      15.960001   13.740001   39.667999       6.0000     15.9994
  221   2 H    1      15.760001   13.400001   38.807998       1.0000      1.0079
  222   2 H    1      16.040001   14.750000   39.657998       1.0000      1.0079
  223   1 O    8      -9.120001   19.620001   36.887998       6.0000     15.9994
  224   2 H    1      -9.480001   18.730001   36.827998       1.0000      1.0079
  225   2 H    1      -9.620001   20.160000   37.517997       1.0000      1.0079
  226   1 O    8     -18.810001   25.930002   35.227998       6.0000     15.9994
  227   2 H    1     -18.380001   26.860001   35.257997       1.0000      1.0079
  228   2 H    1     -18.100000   25.220001   35.377998       1.0000      1.0079
  229   1 O    8       1.820000    2.840000   29.827998       6.0000     15.9994
  230   2 H    1       2.190000    3.400000   29.077998       1.0000      1.0079
  231   2 H    1       0.880000    2.930000   29.777997       1.0000      1.0079
  232   1 O    8      10.530001  -12.480001   38.117997       6.0000     15.9994
  233   2 H    1      11.370001  -12.920000   38.207998       1.0000      1.0079
  234   2 H    1      10.300001  -12.180000   39.077998       1.0000      1.0079
  235   1 O    8      -1.170000   47.820000   35.997998       6.0000     15.9994
  236   2 H    1      -1.950000   47.230000   35.737998       1.0000      1.0079
  237   2 H    1      -1.310000   47.970005   36.897998       1.0000      1.0079
  238   1 O    8      34.350002   16.350000   35.987998       6.0000     15.9994
  239   2 H    1      33.990002   17.200001   35.697997       1.0000      1.0079
  240   2 H    1      33.510002   15.890001   36.347998       1.0000      1.0079
  241   1 O    8     -13.850001   11.950001   33.597997       6.0000     15.9994
  242   2 H    1     -14.270000   12.440001   34.387997       1.0000      1.0079
  243   2 H    1     -14.570000   11.590000   33.037998       1.0000      1.0079
  244   1 O    8     -20.540001   27.730003   36.927998       6.0000     15.9994
  245   2 H    1     -20.090000   27.050001   36.387998       1.0000      1.0079
  246   2 H    1     -21.320002   27.270002   37.347999       1.0000      1.0079
  247   1 O    8      26.639999   16.470001   34.067998       6.0000     15.9994
  248   2 H    1      27.040003   17.130001   34.707998       1.0000      1.0079
  249   2 H    1      25.840000   16.980001   33.707998       1.0000      1.0079
  250   1 O    8      -4.440001    0.460000   29.847997       6.0000     15.9994
  251   2 H    1      -3.990000    0.390000   28.907997       1.0000      1.0079
  252   2 H    1      -4.780000    1.390000   30.037998       1.0000      1.0079
  253   1 O    8     -13.200001    6.440001   30.097998       6.0000     15.9994
  254   2 H    1     -12.830001    6.130000   29.257998       1.0000      1.0079
  255   2 H    1     -14.150001    6.090000   30.027997       1.0000      1.0079
  256   1 O    8      -7.150001   -2.310000   29.837998       6.0000     15.9994
  257   2 H    1      -7.720000   -2.880000   29.337997       1.0000      1.0079
  258   2 H    1      -6.240000   -2.460000   29.627998       1.0000      1.0079
  259   1 O    8       9.780001    8.360001   37.517997       6.0000     15.9994
  260   2 H    1      10.230000    8.450001   38.367999       1.0000      1.0079
  261   2 H    1       9.260000    7.550001   37.677999       1.0000      1.0079
  262   1 O    8      19.620001    3.180000   35.727998       6.0000     15.9994
  263   2 H    1      27.510002  -11.670000   36.497999       1.0000      1.0079
  264   2 H    1      19.450001    4.170000   35.827998       1.0000      1.0079
  265   1 O    8      -6.970000    0.610000   33.507998       6.0000     15.9994
  266   2 H    1      -7.710000    0.260000   32.947997       1.0000      1.0079
  267   2 H    1      -7.360001    1.140000   34.277998       1.0000      1.0079
  268   1 O    8      16.950001   26.730001   32.677997       6.0000     15.9994
  269   2 H    1      16.270000   27.050001   33.277997       1.0000      1.0079
  270   2 H    1      17.210001   25.790003   32.957998       1.0000      1.0079
  271   1 O    8       4.380000    0.610000   38.857997       6.0000     15.9994
  272   2 H    1       4.240000   -0.330000   39.327998       1.0000      1.0079
  273   2 H    1       5.210000    0.620000   38.287998       1.0000      1.0079
  274   1 O    8     -21.110001    6.850000   30.307997       6.0000     15.9994
  275   2 H    1     -22.000000    7.310000   30.047998       1.0000      1.0079
  276   2 H    1     -21.080000    6.760001   31.297997       1.0000      1.0079
  277   1 O    8      23.570002   -4.070000   39.117997       6.0000     15.9994
  278   2 H    1      23.950003   -4.930000   38.737998       1.0000      1.0079
  279   2 H    1      23.660002   -3.390000   38.407998       1.0000      1.0079
  280   1 O    8      -4.380000   19.930002   32.637998       6.0000     15.9994
  281   2 H    1      12.550001   20.360001   31.737997       1.0000      1.0079
  282   2 H    1      12.160001   19.020000   32.407997       1.0000      1.0079
  283   1 O    8       6.160001    7.990000   36.367997       6.0000     15.9994
  284   2 H    1       5.930000    7.110000   36.787998       1.0000      1.0079
  285   2 H    1       5.360000    8.390000   35.947997       1.0000      1.0079
  286   1 O    8      36.500000    7.880001   36.867997       6.0000     15.9994
  287   2 H    1      36.100002    8.500000   36.227997       1.0000      1.0079
  288   2 H    1      36.780003    8.410000   37.637998       1.0000      1.0079
  289   1 O    8      15.170001   20.250000   32.557998       6.0000     15.9994
  290   2 H    1      15.260000   21.250000   32.747999       1.0000      1.0079
  291   2 H    1      14.220000   20.200001   32.527997       1.0000      1.0079
  292   1 O    8     -10.490000  -29.640003   29.967998       6.0000     15.9994
  293   2 H    1     -10.100000  -29.730000   30.877998       1.0000      1.0079
  294   2 H    1     -11.030001  -30.460003   29.857997       1.0000      1.0079
  295   1 O    8      -9.250001   28.490002   32.347997       6.0000     15.9994
  296   2 H    1      -8.660001   27.660000   32.327998       1.0000      1.0079
  297   2 H    1      -9.820001   28.230001   33.117997       1.0000      1.0079
  298   1 O    8     -30.760002   -5.370000   33.537998       6.0000     15.9994
  299   2 H    1     -30.730001   -5.010000   34.507998       1.0000      1.0079
  300   2 H    1     -14.840001   -5.220000   33.227998       1.0000      1.0079
  301   3 Pt  78       1.630000    0.730000   15.230000      10.0000    195.0840
  302   3 Pt  78       4.460000    0.740000   15.290001      10.0000    195.0840
  303   3 Pt  78       7.390000    0.850000   15.279999      10.0000    195.0840
  304   3 Pt  78      10.180000    0.820000   15.299999      10.0000    195.0840
  305   3 Pt  78      12.850000    0.820000   15.329998      10.0000    195.0840
  306   3 Pt  78      15.700001    0.840000   15.259998      10.0000    195.0840
  307   3 Pt  78       3.000000    3.190000   15.089996      10.0000    195.0840
  308   3 Pt  78       5.830000    3.310000   15.249996      10.0000    195.0840
  309   3 Pt  78       8.660001    3.320000   15.249996      10.0000    195.0840
  310   3 Pt  78      11.440001    3.350000   15.160000      10.0000    195.0840
  311   3 Pt  78      14.160000    3.300000   15.329998      10.0000    195.0840
  312   3 Pt  78       0.140000    3.190000   15.179996      10.0000    195.0840
  313   3 Pt  78       4.330000    5.620000   15.139999      10.0000    195.0840
  314   3 Pt  78       7.250000    5.680000   15.179996      10.0000    195.0840
  315   3 Pt  78      10.010000    5.860000   15.179996      10.0000    195.0840
  316   3 Pt  78      12.880001    5.690000   15.259998      10.0000    195.0840
  317   3 Pt  78      -1.160000    5.590000   15.279999      10.0000    195.0840
  318   3 Pt  78       1.510000    5.600000   15.009998      10.0000    195.0840
  319   3 Pt  78       5.870000    8.130000   15.270000      10.0000    195.0840
  320   3 Pt  78       8.630000    8.190001   15.130001      10.0000    195.0840
  321   3 Pt  78      11.480000    8.160001   15.000000      10.0000    195.0840
  322   3 Pt  78      -2.590000    8.030001   15.179996      10.0000    195.0840
  323   3 Pt  78       0.060000    8.060000   15.189999      10.0000    195.0840
  324   3 Pt  78       3.040000    8.010000   15.249996      10.0000    195.0840
  325   3 Pt  78       7.160000   10.610001   15.130001      10.0000    195.0840
  326   3 Pt  78      10.020000   10.530001   15.139999      10.0000    195.0840
  327   3 Pt  78      -4.020000   10.470000   15.149998      10.0000    195.0840
  328   3 Pt  78      -1.230000   10.559999   15.290001      10.0000    195.0840
  329   3 Pt  78       1.570000   10.430001   15.299999      10.0000    195.0840
  330   3 Pt  78       4.400000   10.540000   15.169998      10.0000    195.0840
  331   3 Pt  78       8.620001   12.960000   15.089996      10.0000    195.0840
  332   3 Pt  78      -5.360000   12.890000   15.239998      10.0000    195.0840
  333   3 Pt  78      -2.580000   12.980001   15.399998      10.0000    195.0840
  334   3 Pt  78       0.280000   12.960000   15.249996      10.0000    195.0840
  335   3 Pt  78       2.980000   12.980001   15.209999      10.0000    195.0840
  336   3 Pt  78       5.850000   12.990000   15.299999      10.0000    195.0840
  337   3 Pt  78       0.200000    1.650000   17.639999      10.0000    195.0840
  338   3 Pt  78       3.070000    1.650000   17.560001      10.0000    195.0840
  339   3 Pt  78       5.980001    1.510000   17.549999      10.0000    195.0840
  340   3 Pt  78       8.760000    1.570000   17.630001      10.0000    195.0840
  341   3 Pt  78      11.510000    1.780000   17.519997      10.0000    195.0840
  342   3 Pt  78      14.240000    1.700000   17.649998      10.0000    195.0840
  343   3 Pt  78       1.660000    4.170000   17.489998      10.0000    195.0840
  344   3 Pt  78       4.550000    3.990000   17.549999      10.0000    195.0840
  345   3 Pt  78       7.270000    4.020000   17.560001      10.0000    195.0840
  346   3 Pt  78      10.040001    4.140000   17.469997      10.0000    195.0840
  347   3 Pt  78      12.870001    4.040000   17.630001      10.0000    195.0840
  348   3 Pt  78      -1.110000    4.020000   17.660000      10.0000    195.0840
  349   3 Pt  78       3.100000    6.490001   17.480000      10.0000    195.0840
  350   3 Pt  78       5.820000    6.420000   17.529999      10.0000    195.0840
  351   3 Pt  78       8.570001    6.450000   17.529999      10.0000    195.0840
  352   3 Pt  78      11.460000    6.460000   17.480000      10.0000    195.0840
  353   3 Pt  78      -2.590000    6.340000   17.570000      10.0000    195.0840
  354   3 Pt  78       0.270000    6.500000   17.639999      10.0000    195.0840
  355   3 Pt  78       4.450000    8.960000   17.570000      10.0000    195.0840
  356   3 Pt  78       7.180000    8.870000   17.469997      10.0000    195.0840
  357   3 Pt  78       9.940001    8.770000   17.560001      10.0000    195.0840
  358   3 Pt  78      -3.990000    8.830000   17.419998      10.0000    195.0840
  359   3 Pt  78      -1.130000    8.790001   17.599998      10.0000    195.0840
  360   3 Pt  78       1.600000    8.920000   17.609997      10.0000    195.0840
  361   3 Pt  78       5.920000   11.420001   17.539997      10.0000    195.0840
  362   3 Pt  78       8.590000   11.260000   17.369999      10.0000    195.0840
  363   3 Pt  78      -5.460000   11.170001   17.449997      10.0000    195.0840
  364   3 Pt  78      -2.590000   11.180000   17.630001      10.0000    195.0840
  365   3 Pt  78       0.190000   11.380000   17.630001      10.0000    195.0840
  366   3 Pt  78       3.080000   11.350001   17.549999      10.0000    195.0840
  367   3 Pt  78       7.240000   13.860001   17.579998      10.0000    195.0840
  368   3 Pt  78      -6.690001   13.730000   17.439999      10.0000    195.0840
  369   3 Pt  78      -3.920000   13.670001   17.579998      10.0000    195.0840
  370   3 Pt  78      -1.100000   13.780001   17.519997      10.0000    195.0840
  371   3 Pt  78       1.660000   13.760000   17.719997      10.0000    195.0840
  372   3 Pt  78       4.410000   13.810000   17.639999      10.0000    195.0840
  373   3 Pt  78      -8.270000   14.510001   19.840000      10.0000    195.0840
  374   3 Pt  78      -5.420001   14.560001   19.779999      10.0000    195.0840
  375   3 Pt  78      -2.530000   14.400001   19.829998      10.0000    195.0840
  376   3 Pt  78       0.150000   14.430000   19.950001      10.0000    195.0840
  377   3 Pt  78       3.020000   14.520000   19.889999      10.0000    195.0840
  378   3 Pt  78       5.820000   14.550000   19.959999      10.0000    195.0840
  379   3 Pt  78       1.570000    2.430000   19.789997      10.0000    195.0840
  380   3 Pt  78       4.430000    2.390000   19.869999      10.0000    195.0840
  381   3 Pt  78       7.220001    2.360000   19.980000      10.0000    195.0840
  382   3 Pt  78      10.010000    2.240000   19.899998      10.0000    195.0840
  383   3 Pt  78      12.860001    2.350000   19.989998      10.0000    195.0840
  384   3 Pt  78      -1.210000    2.350000   19.959999      10.0000    195.0840
  385   3 Pt  78       3.130000    4.810000   19.820000      10.0000    195.0840
  386   3 Pt  78       5.900001    4.840000   19.880001      10.0000    195.0840
  387   3 Pt  78       8.700001    4.790000   19.929996      10.0000    195.0840
  388   3 Pt  78      11.330000    4.850000   19.950001      10.0000    195.0840
  389   3 Pt  78      -2.610000    4.770000   19.929996      10.0000    195.0840
  390   3 Pt  78       0.230000    4.720000   19.859997      10.0000    195.0840
  391   3 Pt  78       4.380000    7.290000   19.840000      10.0000    195.0840
  392   3 Pt  78       7.230001    7.230001   19.869999      10.0000    195.0840
  393   3 Pt  78      10.040001    7.360001   19.820000      10.0000    195.0840
  394   3 Pt  78      -4.050000    7.220001   19.889999      10.0000    195.0840
  395   3 Pt  78      -1.180000    7.170000   19.919998      10.0000    195.0840
  396   3 Pt  78       1.600000    7.160000   19.849998      10.0000    195.0840
  397   3 Pt  78       5.800000    9.720000   19.880001      10.0000    195.0840
  398   3 Pt  78       8.660001    9.720000   19.789997      10.0000    195.0840
  399   3 Pt  78      -5.390000    9.670001   19.730000      10.0000    195.0840
  400   3 Pt  78      -2.590000    9.570000   19.840000      10.0000    195.0840
  401   3 Pt  78       0.270000    9.620001   19.880001      10.0000    195.0840
  402   3 Pt  78       3.030000    9.670001   19.929996      10.0000    195.0840
  403   3 Pt  78       7.190001   12.150001   19.869999      10.0000    195.0840
  404   3 Pt  78      -6.920000   12.090001   19.750000      10.0000    195.0840
  405   3 Pt  78      -4.020000   11.990000   19.849998      10.0000    195.0840
  406   3 Pt  78      -1.200000   12.010001   19.859997      10.0000    195.0840
  407   3 Pt  78       1.580000   12.110001   19.939999      10.0000    195.0840
  408   3 Pt  78       4.350000   12.110001   19.919998      10.0000    195.0840
  409   3 Pt  78       1.550000    0.700000   22.087997      10.0000    195.0840
  410   3 Pt  78       4.440001    0.620000   22.037997      10.0000    195.0840
  411   3 Pt  78       7.210000    0.710000   22.167997      10.0000    195.0840
  412   3 Pt  78       9.980000    0.650000   22.257997      10.0000    195.0840
  413   3 Pt  78      12.780001    0.620000   22.287997      10.0000    195.0840
  414   3 Pt  78      15.550001    0.700000   22.217997      10.0000    195.0840
  415   3 Pt  78       2.990000    3.050000   22.147997      10.0000    195.0840
  416   3 Pt  78       5.750000    3.100000   22.247997      10.0000    195.0840
  417   3 Pt  78       8.540000    3.210000   22.177997      10.0000    195.0840
  418   3 Pt  78      11.360001    3.080000   22.197997      10.0000    195.0840
  419   3 Pt  78      14.140000    3.100000   22.287997      10.0000    195.0840
  420   3 Pt  78       0.190000    3.070000   22.217997      10.0000    195.0840
  421   3 Pt  78       4.400000    5.560000   22.187997      10.0000    195.0840
  422   3 Pt  78       7.140000    5.680000   22.177997      10.0000    195.0840
  423   3 Pt  78       9.920000    5.660000   22.237997      10.0000    195.0840
  424   3 Pt  78      12.740001    5.490000   22.167997      10.0000    195.0840
  425   3 Pt  78      -1.210000    5.530000   22.177997      10.0000    195.0840
  426   3 Pt  78       1.630000    5.450000   22.167997      10.0000    195.0840
  427   3 Pt  78       5.770000    8.060000   22.137997      10.0000    195.0840
  428   3 Pt  78       8.620001    8.090000   22.137997      10.0000    195.0840
  429   3 Pt  78      11.400002    8.020000   22.137997      10.0000    195.0840
  430   3 Pt  78      -2.730000    7.980001   22.137997      10.0000    195.0840
  431   3 Pt  78       0.180000    7.900000   22.167997      10.0000    195.0840
  432   3 Pt  78       3.050000    7.990000   22.237997      10.0000    195.0840
  433   3 Pt  78       7.170000   10.510000   22.127997      10.0000    195.0840
  434   3 Pt  78       9.950001   10.420000   22.027997      10.0000    195.0840
  435   3 Pt  78      -4.000000   10.420000   22.077997      10.0000    195.0840
  436   3 Pt  78      -1.230000   10.370001   22.187997      10.0000    195.0840
  437   3 Pt  78       1.510000   10.480001   22.207997      10.0000    195.0840
  438   3 Pt  78       4.300000   10.420000   22.147997      10.0000    195.0840
  439   3 Pt  78       8.560000   12.900001   22.177997      10.0000    195.0840
  440   3 Pt  78      -5.520000   12.800001   21.947997      10.0000    195.0840
  441   3 Pt  78      -2.670000   12.810000   22.237997      10.0000    195.0840
  442   3 Pt  78       0.040000   12.850000   22.247997      10.0000    195.0840
  443   3 Pt  78       2.860000   12.970000   22.287997      10.0000    195.0840
  444   3 Pt  78       5.690000   12.890000   22.287997      10.0000    195.0840
  445   3 Pt  78       0.010000    1.530000   24.587997      10.0000    195.0840
  446   3 Pt  78       2.960000    1.430000   24.557997      10.0000    195.0840
  447   3 Pt  78       5.710001    1.410000   24.537997      10.0000    195.0840
  448   3 Pt  78       8.430000    1.480000   24.447997      10.0000    195.0840
  449   3 Pt  78      11.280001    1.520000   24.477997      10.0000    195.0840
  450   3 Pt  78      14.130001    1.530000   24.577997      10.0000    195.0840
  451   3 Pt  78       1.590000    3.770000   24.537997      10.0000    195.0840
  452   3 Pt  78       4.400000    3.870000   24.557997      10.0000    195.0840
  453   3 Pt  78       7.030000    4.040000   24.437997      10.0000    195.0840
  454   3 Pt  78       9.880000    4.070000   24.527997      10.0000    195.0840
  455   3 Pt  78      12.660000    3.970000   24.567997      10.0000    195.0840
  456   3 Pt  78      -1.270000    3.950000   24.527997      10.0000    195.0840
  457   3 Pt  78       3.010000    6.360001   24.527997      10.0000    195.0840
  458   3 Pt  78       5.720000    6.350000   24.497997      10.0000    195.0840
  459   3 Pt  78       8.460000    6.470000   24.547997      10.0000    195.0840
  460   3 Pt  78      11.290001    6.480000   24.457997      10.0000    195.0840
  461   3 Pt  78      -2.660000    6.370000   24.567997      10.0000    195.0840
  462   3 Pt  78       0.160000    6.270000   24.447997      10.0000    195.0840
  463   3 Pt  78       4.460000    8.810000   24.477997      10.0000    195.0840
  464   3 Pt  78       7.200000    8.850000   24.427997      10.0000    195.0840
  465   3 Pt  78       9.990001    8.810000   24.457997      10.0000    195.0840
  466   3 Pt  78      -4.200000    8.840000   24.557997      10.0000    195.0840
  467   3 Pt  78      -1.330000    8.730000   24.467997      10.0000    195.0840
  468   3 Pt  78       1.570000    8.840000   24.537997      10.0000    195.0840
  469   3 Pt  78       5.730000   11.240001   24.417997      10.0000    195.0840
  470   3 Pt  78       8.580000   11.220001   24.417997      10.0000    195.0840
  471   3 Pt  78      -5.540000   11.220001   24.367997      10.0000    195.0840
  472   3 Pt  78      -2.780000   11.130000   24.487997      10.0000    195.0840
  473   3 Pt  78      -0.030000   11.170001   24.517997      10.0000    195.0840
  474   3 Pt  78       2.980000   11.240001   24.417997      10.0000    195.0840
  475   3 Pt  78       7.190001   13.720001   24.527997      10.0000    195.0840
  476   3 Pt  78      -6.920000   13.620001   24.467997      10.0000    195.0840
  477   3 Pt  78      -4.140000   13.560000   24.387997      10.0000    195.0840
  478   3 Pt  78      -1.370000   13.620001   24.497997      10.0000    195.0840
  479   3 Pt  78       1.460000   13.600000   24.487997      10.0000    195.0840
  480   3 Pt  78       4.260000   13.740001   24.607997      10.0000    195.0840
  481   3 Pt  78      -8.430000   14.390000   26.847997      10.0000    195.0840
  482   3 Pt  78      -5.500000   14.500000   26.687997      10.0000    195.0840
  483   3 Pt  78      -2.750000   14.380001   26.707997      10.0000    195.0840
  484   3 Pt  78       0.070000   14.580001   26.777997      10.0000    195.0840
  485   3 Pt  78       2.910000   14.580001   26.877997      10.0000    195.0840
  486   3 Pt  78       5.670000   14.550000   26.897997      10.0000    195.0840
  487   3 Pt  78       1.420000    2.260000   26.777997      10.0000    195.0840
  488   3 Pt  78       4.260000    2.260000   26.907997      10.0000    195.0840
  489   3 Pt  78       7.130001    2.400000   26.817997      10.0000    195.0840
  490   3 Pt  78       9.760000    2.350000   26.827998      10.0000    195.0840
  491   3 Pt  78      12.660000    2.370000   26.927997      10.0000    195.0840
  492   3 Pt  78      -1.320000    2.300000   26.917998      10.0000    195.0840
  493   3 Pt  78       2.900000    4.730000   26.997998      10.0000    195.0840
  494   3 Pt  78       5.700001    4.830000   26.907997      10.0000    195.0840
  495   3 Pt  78       8.400001    4.790000   26.807998      10.0000    195.0840
  496   3 Pt  78      11.300000    4.670000   26.887997      10.0000    195.0840
  497   3 Pt  78      -2.730000    4.720000   26.997998      10.0000    195.0840
  498   3 Pt  78       0.230000    4.600000   26.767998      10.0000    195.0840
  499   3 Pt  78       4.330000    7.280001   26.827998      10.0000    195.0840
  500   3 Pt  78       7.110000    7.300000   26.877997      10.0000    195.0840
  501   3 Pt  78       9.890000    7.200000   26.927997      10.0000    195.0840
  502   3 Pt  78      -4.090000    7.280001   26.897997      10.0000    195.0840
  503   3 Pt  78      -1.220000    7.170000   26.787998      10.0000    195.0840
  504   3 Pt  78       1.440000    7.090001   26.757997      10.0000    195.0840
  505   3 Pt  78       5.700001    9.680000   26.857998      10.0000    195.0840
[...]
 flops    13 x    32 x    13           5928747136       0.0%    100.0%      0.0%
 flops    13 x    13 x   124           6473811344       0.0%    100.0%      0.0%
 flops     5 x     5 x    96           6559987200       0.0%    100.0%      0.0%
 flops     5 x    13 x    96           8347223040       0.0%    100.0%      0.0%
 flops    13 x     5 x    96           8354860800       0.0%    100.0%      0.0%
 flops    13 x    32 x    20           8491824640       0.0%    100.0%      0.0%
 flops    20 x    32 x    13           8491824640       0.0%    100.0%      0.0%
 flops    20 x    32 x     5           9030732800       0.0%    100.0%      0.0%
 flops     5 x    32 x    20           9030732800       0.0%    100.0%      0.0%
 flops    13 x    20 x   124           9168282240       0.0%    100.0%      0.0%
 flops    20 x    13 x   124           9172666880       0.0%    100.0%      0.0%
 flops     5 x    20 x   124           9749078400       0.0%    100.0%      0.0%
 flops    20 x     5 x   124           9755824000       0.0%    100.0%      0.0%
 flops    13 x    13 x    96          10023965952       0.0%    100.0%      0.0%
 flops    13 x    20 x    96          14196049920       0.0%    100.0%      0.0%
 flops    20 x    13 x    96          14202839040       0.0%    100.0%      0.0%
 flops     5 x    20 x    96          15095347200       0.0%    100.0%      0.0%
 flops    20 x     5 x    96          15105792000       0.0%    100.0%      0.0%
 flops     5 x     5 x   128          56853222400       0.0%    100.0%      0.0%
 flops     5 x    13 x   128          72342599680       0.0%    100.0%      0.0%
 flops    13 x     5 x   128          72408793600       0.0%    100.0%      0.0%
 flops    20 x    32 x    20          72858009600       0.0%    100.0%      0.0%
 flops    20 x    20 x   124          79044940800       0.0%    100.0%      0.0%
 flops    13 x    13 x   128          86874371584       0.0%    100.0%      0.0%
 flops    20 x    20 x    96         122392166400       0.0%    100.0%      0.0%
 flops    13 x    20 x   128         123032432640       0.0%    100.0%      0.0%
 flops    20 x    13 x   128         123091271680       0.0%    100.0%      0.0%
 flops     5 x    20 x   128         130826342400       0.0%    100.0%      0.0%
 flops    20 x     5 x   128         130916864000       0.0%    100.0%      0.0%
 flops    20 x    20 x   128        1060732108800       0.0%    100.0%      0.0%
 flops inhomo. stacks                           0       0.0%      0.0%      0.0%
 flops total                         2.339300E+12       0.0%    100.0%      0.0%
 flops max/rank                     21.597122E+09       0.0%    100.0%      0.0%
 matmuls inhomo. stacks                         0       0.0%      0.0%      0.0%
 matmuls total                           66271016       0.0%    100.0%      0.0%
 number of processed stacks                645274       0.0%    100.0%      0.0%
 average stack size                                     0.0     102.7       0.0
 marketing flops                     4.763889E+12
 -------------------------------------------------------------------------------
 # multiplications                             35
 max memory usage/rank               1.618485E+09
 # max total images/rank                        2
 # max 3D layers                                1
 # MPI messages exchanged                  129920
 MPI messages size (bytes):
  total size                        83.095847E+09
  min size                         276.480000E+03
  max size                           2.272904E+06
  average size                     639.592438E+03
 MPI breakdown and total messages size (bytes):
             size <=      128                   0                        0
       128 < size <=     8192                   0                        0
      8192 < size <=    32768                   0                        0
     32768 < size <=   131072                   0                        0
    131072 < size <=  4194304              129920              83095846080
   4194304 < size <= 16777216                   0                        0
  16777216 < size                               0                        0
 -------------------------------------------------------------------------------

 *** WARNING in dbcsr_mm.F:290 :: Using a non-square number of MPI ranks ***
 *** might lead to poor performance. Used ranks: 128 Suggested: 121 256  ***

 -------------------------------------------------------------------------------
 -                                                                             -
 -                      DBCSR MESSAGE PASSING PERFORMANCE                      -
 -                                                                             -
 -------------------------------------------------------------------------------
 ROUTINE             CALLS      AVE VOLUME [Bytes]
 MP_Bcast               46                     12.
 MP_Allreduce          348                     13.
 MP_Alltoall           973                 577887.
 MP_ISend             2240                 302692.
 MP_IRecv             2240                 296249.
 -------------------------------------------------------------------------------

 -------------------------------------------------------------------------------
 -                                                                             -
 -                                DBM STATISTICS                               -
 -                                                                             -
 -------------------------------------------------------------------------------
    M  x    N  x    K                                          COUNT     PERCENT
 -------------------------------------------------------------------------------

 -------------------------------------------------------------------------------
 -                                                                             -
 -                                GRID STATISTICS                              -
 -                                                                             -
 -------------------------------------------------------------------------------
 LP    KERNEL             BACKEND                              COUNT     PERCENT
 4     collocate general  REF                               13408395      22.10%
 4     integrate general  REF                               13284135      21.90%
 3     collocate general  REF                                9307815      15.34%
 3     integrate general  REF                                9252574      15.25%
 2     collocate general  REF                                7484862      12.34%
 2     integrate general  REF                                7258048      11.96%
 5     integrate general  REF                                 406315       0.67%
 0     collocate general  REF                                 132096       0.22%
 0     integrate general  REF                                  66048       0.11%
 1     integrate general  REF                                  66048       0.11%
 -------------------------------------------------------------------------------

 MEMORY| Estimated peak process memory [MiB]                                1796

 -------------------------------------------------------------------------------
 ----                             MULTIGRID INFO                            ----
 -------------------------------------------------------------------------------
 count for grid        1:        1097074          cutoff [a.u.]          200.00
 count for grid        2:        1091916          cutoff [a.u.]           66.67
 count for grid        3:         716588          cutoff [a.u.]           22.22
 count for grid        4:         554964          cutoff [a.u.]            7.41
 total gridlevel count  :        3460542

 -------------------------------------------------------------------------------
 -                                                                             -
 -                         MESSAGE PASSING PERFORMANCE                         -
 -                                                                             -
 -------------------------------------------------------------------------------

 ROUTINE             CALLS      AVE VOLUME [Bytes]
 MP_Group                4
 MP_Bcast             2191                 308160.
 MP_Allreduce         3274                  33132.
 MP_Sync                72
 MP_Alltoall          2002               16776340.
 MP_SendRecv           508                   6168.
 MP_ISendRecv        16764                  61740.
 MP_Wait             29802
 MP_comm_split          34
 MP_ISend            12292                 256214.
 MP_IRecv            12292                 256214.
 MP_Recv               122                1694720.
 MP_Write_All            3                1797408.
 -------------------------------------------------------------------------------


 -------------------------------------------------------------------------------
 -                                                                             -
 -                           R E F E R E N C E S                               -
 -                                                                             -
 -------------------------------------------------------------------------------
 
 CP2K version 2022.1, the CP2K developers group (2022).
 CP2K is freely available from https://www.cp2k.org/ .

 Kuehne,Thomas D.; Iannuzzi,Marcella; Del Ben,Mauro;
 Rybkin,Vladimir V.; Seewald,Patrick; Stein,Frederick; Laino,Teodoro;
 Khaliullin,Rustam Z.; Schuett,Ole; Schiffmann,Florian; Golze,Dorothea;
 Wilhelm,Jan; Chulkov,Sergey; Bani-Hashemian,Mohammad Hossein;
 Weber,Valery; Borstnik,Urban; Taillefumier,Mathieu;
 Jakobovits,Alice Shoshana; Lazzaro,Alfio; Pabst,Hans; Mueller,Tiziano;
 Schade,Robert; Guidon,Manuel; Andermatt,Samuel; Holmberg,Nico;
 Schenter,Gregory K.; Hehn,Anna; Bussy,Augustin; Belleflamme,Fabian;
 Tabacchi,Gloria; Gloess,Andreas; Lass,Michael; Bethune,Iain;
 Mundy,Christopher J.; Plessl,Christian; Watkins,Matt;
 VandeVondele,Joost; Krack,Matthias; Hutter,Juerg. 
 The Journal of Chemical Physics, 152 (19), (2020). 
 CP2K: An electronic structure and molecular dynamics software package -
 Quickstep: Efficient and accurate electronic structure calculations.
 https://doi.org/10.1063/5.0007045

 Goerigk, Lars; Hansen, Andreas; Bauer, Christoph; Ehrlich, Stephan;
 Najibi, Asim; Grimme, Stefan. , 19 (48), (2017). 
 A look at the density functional theory zoo with the advanced GMTKN55 database
 for general main group thermochemistry, kinetics and noncovalent interactions.
 https://doi.org/10.1039/C7CP04913G

 Bani-Hashemian, MH; Bruck, S; Luisier, M; VandeVondele, J. 
 JOURNAL OF CHEMICAL PHYSICS, 144 (4), 044113 (2016). 
 A generalized Poisson solver for first-principles device simulations.
 https://doi.org/10.1063/1.4940796

 Schuett, Ole; Messmer, Peter; Hutter, Juerg; VandeVondele, Joost. 
 Electronic Structure Calculations on Graphics Processing Units, John
 Wiley & Sons, Ltd, 173-190 (2016). 
 GPU-Accelerated Sparse Matrix-Matrix Multiplication for
 Linear Scaling Density Functional Theory.
 https://doi.org/10.1002/9781118670712.ch8

 Heinecke, A; Henry, G; Hutchinson, M; Pabst, H. 
 Proceedings of Intl. Supercomputing Conference, 981-991 (2016). 
 LIBXSMM: Accelerating Small Matrix Multiplications
 by Runtime Code Generation.
 https://doi.org/10.1109/SC.2016.83

 Borstnik, U; VandeVondele, J; Weber, V; Hutter, J. 
 PARALLEL COMPUTING, 40 (5-6), 47-58 (2014). 
 Sparse matrix multiplication: The distributed block-compressed sparse
 row library.
 https://doi.org/10.1016/j.parco.2014.03.012

 Hutter, J; Iannuzzi, M; Schiffmann, F; VandeVondele, J. 
 WIREs Comput Mol Sci., 4 (1), 15-25 (2014). 
 CP2K: atomistic simulations of condensed matter systems.
 https://doi.org/10.1002/wcms.1159

 Marek, A; Blum, V; Johanni, R; Havu, V; Lang, B; Auckenthaler, T;
 Heinecke, A; Bungartz, H; Lederer, H. 
 Journal of Physics: Condensed Matter, 26 (21), (2014). 
 The ELPA library: scalable parallel eigenvalue solutions for
 electronic structure
 theory and computational science.
 https://doi.org/10.1088/0953-8984/26/21/213201

 Grimme, S; Ehrlich, S; Goerigk, L. 
 JOURNAL OF COMPUTATIONAL CHEMISTRY, 32, 1456 (2011). 
 Effect of the damping function in dispersion corrected density functional theory.
 https://doi.org/10.1002/jcc.21759

 Grimme, S; Antony, J; Ehrlich, S; Krieg, H. 
 JOURNAL OF CHEMICAL PHYSICS, 132 (15), 154104 (2010). 
 A consistent and accurate ab initio parametrization of density
 functional dispersion correction (DFT-D) for the 94 elements H-Pu.
 https://doi.org/10.1063/1.3382344

 VandeVondele, J; Hutter, J. 
 JOURNAL OF CHEMICAL PHYSICS, 127 (11), 114105 (2007). 
 Gaussian basis sets for accurate calculations on molecular systems in
 gas and condensed phases.
 https://doi.org/10.1063/1.2770708

 Krack, M. 
 THEORETICAL CHEMISTRY ACCOUNTS, 114 (1-3), 145-152 (2005). 
 Pseudopotentials for H to Kr optimized for gradient-corrected
 exchange-correlation functionals.
 https://doi.org/10.1007/s00214-005-0655-y

 VandeVondele, J; Krack, M; Mohamed, F; Parrinello, M; Chassaing, T;
 Hutter, J. COMPUTER PHYSICS COMMUNICATIONS, 167 (2), 103-128 (2005). 
 QUICKSTEP: Fast and accurate density functional calculations using a
 mixed Gaussian and plane waves approach.
 https://doi.org/10.1016/j.cpc.2004.12.014

 Frigo, M; Johnson, SG. 
 PROCEEDINGS OF THE IEEE, 93 (2), 216-231 (2005). 
 The design and implementation of FFTW3.
 https://doi.org/10.1109/JPROC.2004.840301

 Hartwigsen, C; Goedecker, S; Hutter, J. 
 PHYSICAL REVIEW B, 58 (7), 3641-3662 (1998). 
 Relativistic separable dual-space Gaussian pseudopotentials from H to Rn.
 https://doi.org/10.1103/PhysRevB.58.3641

 Lippert, G; Hutter, J; Parrinello, M. 
 MOLECULAR PHYSICS, 92 (3), 477-487 (1997). 
 A hybrid Gaussian and plane wave density functional scheme.
 https://doi.org/10.1080/002689797170220

 Perdew, JP; Burke, K; Ernzerhof, M. 
 PHYSICAL REVIEW LETTERS, 77 (18), 3865-3868 (1996). 
 Generalized gradient approximation made simple.
 https://doi.org/10.1103/PhysRevLett.77.3865

 Goedecker, S; Teter, M; Hutter, J. 
 PHYSICAL REVIEW B, 54 (3), 1703-1710 (1996). 
 Separable dual-space Gaussian pseudopotentials.
 https://doi.org/10.1103/PhysRevB.54.1703


 -------------------------------------------------------------------------------
 -                                                                             -
 -                                T I M I N G                                  -
 -                                                                             -
 -------------------------------------------------------------------------------
 SUBROUTINE                       CALLS  ASD         SELF TIME        TOTAL TIME
                                MAXIMUM       AVERAGE  MAXIMUM  AVERAGE  MAXIMUM
 CP2K                                 1  1.0    0.031    0.053  236.747  236.749
 qs_forces                            1  2.0    0.002    0.002  236.402  236.404
 qs_energies                          1  3.0    0.000    0.001  230.050  230.055
 scf_env_do_scf                       1  4.0    0.000    0.000  220.748  220.893
 scf_env_do_scf_inner_loop           32  5.0    0.002    0.004  220.745  220.890
 rebuild_ks_matrix                   33  6.9    0.000    0.000  120.046  120.090
 qs_ks_build_kohn_sham_matrix        33  7.9    0.005    0.008  120.046  120.090
 qs_ks_update_qs_env                 32  6.0    0.000    0.000  115.814  115.857
 pw_transfer                       1720 12.2    0.125    0.158   75.179   76.783
 fft_wrap_pw1pw2                   1720 13.2    0.016    0.021   75.054   76.631
 fft_wrap_pw1pw2_200               1522 14.4    5.071    5.932   74.064   75.523
 pw_poisson_solve                    33  8.9    0.003    0.010   64.498   64.521
 fft3d_ps                          1720 15.2   21.624   23.883   60.384   62.761
 qs_scf_new_mos                      32  6.0    0.001    0.004   62.668   62.755
 implicit_poisson_solver_mixed_      33  9.9    1.358    1.655   61.024   61.067
 eigensolver                         32  7.0    0.003    0.004   59.103   59.298
 derive_fft                         198 12.1    0.012    0.015   42.717   42.864
 cp_fm_diag_elpa                     34  8.1    0.000    0.001   41.772   41.884
 cp_fm_redistribute_end              34  9.1    5.564   41.377    5.633   41.417
 cp_fm_diag_elpa_base                34  9.0   35.242   40.450   35.582   40.798
 mp_alltoall_z22v                  1720 17.2   32.474   39.959   32.474   39.959
 qs_rho_update_rho_low               33  6.0    0.000    0.000   38.016   38.024
 calculate_rho_elec                  33  7.0    0.064    0.083   38.016   38.024
 sum_up_and_integrate                33  8.9    0.179    0.226   37.350   37.394
 integrate_v_rspace                  33  9.9    0.001    0.002   37.170   37.267
 apply_P_operator                   165 11.1    0.879    0.987   36.436   36.591
 grid_collocate_task_list            33  8.0   24.060   30.126   24.060   30.126
 grid_integrate_task_list            33 10.9   22.405   27.405   22.405   27.405
 x_to_yz                            991 16.4    4.195    5.486   24.580   25.554
 rs_pw_transfer                     268 10.4    0.003    0.004   17.322   20.259
 cp_fm_triangular_multiply           96  8.0   18.821   19.033   18.821   19.033
 yz_to_x                            531 16.4    1.458    1.696   13.423   18.240
 qs_vxc_create                       33  8.9    0.001    0.001   16.274   16.474
 xc_vxc_pw_create                    33  9.9    0.282    0.348   16.273   16.473
 density_rs2pw                       33  8.0    0.002    0.002   13.204   15.997
 xc_pw_derive                       198 11.9    0.003    0.004   11.491   12.715
 mp_waitany                       12292 12.3    8.146   11.384    8.146   11.384
 rs_pw_transfer_RS2PW_200            35  9.9    2.260    2.587    8.216   11.160
 apply_poisson_operator_fft          33 10.9    0.000    0.000   10.670   10.882
 apply_inv_laplace_operator_fft     101 11.6    0.255    0.294    9.831   10.215
 potential_pw2rs                     33 10.9    0.010    0.011    9.392    9.471
 mp_alltoall_d11v                   484 10.3    6.359    9.286    6.359    9.286
 xc_pw_divergence                    33 10.9    0.002    0.002    7.738    8.680
 xc_rho_set_and_dset_create          33 10.9    0.164    0.188    7.964    8.441
 rs_gather_matrices                  33 10.9    0.037    0.049    5.361    8.237
 ps_implicit_compute_error_fft       66 10.9    0.416    0.514    7.182    7.704
 ps_implicit_compute_veps            33 10.9    0.192    0.228    7.354    7.468
 pw_scatter_p                      1090 15.3    6.118    7.071    6.118    7.071
 scf_post_calculation_gpw             1  4.0    0.000    0.001    5.849    5.854
 write_available_results              1  5.0    0.000    0.001    5.848    5.854
 rs_pw_transfer_PW2RS_200            35 12.7    2.639    2.791    5.551    5.713
 pw_derive                          792 13.0    5.031    5.372    5.031    5.372
 gspace_mixing                       31  6.0    0.059    0.072    5.227    5.228
 -------------------------------------------------------------------------------

 The number of warnings for this run is : 1
 
 -------------------------------------------------------------------------------
  **** **** ******  **  PROGRAM ENDED AT                 2023-12-02 17:14:15.042
 ***** ** ***  *** **   PROGRAM RAN ON                                     cu062
 **    ****   ******    PROGRAM RAN BY                                     jxzhu
 ***** **    ** ** **   PROGRAM PROCESS ID                                 51137
  **** **  *******  **  PROGRAM STOPPED IN /public/home/jxzhu/tmp_calc/70e139975
                                           5474a605f634a1a3456ef2f7545c01a/calc/
                                           001900.000/search_lo.000001
