 DBCSR| CPU Multiplication driver                                           XSMM
 DBCSR| Multrec recursion limit                                              512
 DBCSR| Multiplication stack size                                           1000
 DBCSR| Maximum elements for images                                    UNLIMITED
 DBCSR| Multiplicative factor virtual images                                   1
 DBCSR| Use multiplication densification                                       T
 DBCSR| Multiplication size stacks                                             3
 DBCSR| Use memory pool for CPU allocation                                     F
 DBCSR| Number of 3D layers                                               SINGLE
 DBCSR| Use MPI memory allocation                                              F
 DBCSR| Use RMA algorithm                                                      F
 DBCSR| Use Communication thread                                               T
 DBCSR| Communication thread load                                             87
 DBCSR| MPI: My node id                                                        0
 DBCSR| MPI: Number of nodes                                                 128
 DBCSR| OMP: Current number of threads                                         1
 DBCSR| OMP: Max number of threads                                             1
 DBCSR| Split modifier for TAS multiplication algorithm                  1.0E+00


  **** **** ******  **  PROGRAM STARTED AT               2023-12-01 23:40:40.288
 ***** ** ***  *** **   PROGRAM STARTED ON                                 cu064
 **    ****   ******    PROGRAM STARTED BY                                 jxzhu
 ***** **    ** ** **   PROGRAM PROCESS ID                                  8440
  **** **  *******  **  PROGRAM STARTED IN /public/home/jxzhu/tmp_calc/3edb35e2c
                                           f1a23eae6d286f9f7c88bafec2d2c0b/calc/
                                           000300.000/search_lo.000000

 CP2K| version string:                                       CP2K version 2022.1
 CP2K| source code revision number:                                  git:2caeb6f
 CP2K| cp2kflags: omp libint fftw3 libxc elpa parallel mpi3 scalapack cosma xsmm
 CP2K|             plumed2 spglib mkl sirius libvori libbqb
 CP2K| is freely available from                            https://www.cp2k.org/
 CP2K| Program compiled at                           Mon Jul 3 17:37:06 CST 2023
 CP2K| Program compiled on                                                 mu003
 CP2K| Program compiled for                                                local
 CP2K| Data directory path                             /public/home/jxzhu/basis/
 CP2K| Input file name                                                 input.inp
 
 GLOBAL| Force Environment number                                              1
 GLOBAL| Basis set file name                                        BASIS_MOLOPT
 GLOBAL| Potential file name                                      GTH_POTENTIALS
 GLOBAL| MM Potential file name                                     MM_POTENTIAL
 GLOBAL| Coordinate file name                                          coord.xyz
 GLOBAL| Method name                                                        CP2K
 GLOBAL| Project name                                                       cp2k
 GLOBAL| Run type                                                   ENERGY_FORCE
 GLOBAL| FFT library                                                       FFTW3
 GLOBAL| Diagonalization library                                            ELPA
 GLOBAL| Minimum number of eigenvectors for ELPA usage                        16
 GLOBAL| Orthonormality check for eigenvectors                          DISABLED
 GLOBAL| Matrix multiplication library                                     COSMA
 GLOBAL| All-to-all communication in single precision                          F
 GLOBAL| FFTs using library dependent lengths                                  T
 GLOBAL| Grid backend                                                       AUTO
 GLOBAL| Global print level                                               MEDIUM
 GLOBAL| MPI I/O enabled                                                       T
 GLOBAL| Total number of message passing processes                           128
 GLOBAL| Number of threads for this process                                    1
 GLOBAL| This output is from process                                           0
 GLOBAL| Stack size for threads created by OpenMP (OMP_STACKSIZE)        default
 GLOBAL| CPU model name                 Intel(R) Xeon(R) Gold 6338 CPU @ 2.00GHz
 GLOBAL| CPUID                                                              1003

 MEMORY| system memory details [Kb]
 MEMORY|                        rank 0           min           max       average
 MEMORY| MemTotal            263619172     263619172     263619172     263619172
 MEMORY| MemFree             200064732     197155176     200064732     198609960
 MEMORY| Buffers                    64            36            64            50
 MEMORY| Cached                1370432        923576       1370432       1147004
 MEMORY| Slab                  1836740       1722504       1836740       1779622
 MEMORY| SReclaimable           247352        218508        247352        232930
 MEMORY| MemLikelyFree       201682580     198297296     201682580     199989944


 *** Fundamental physical constants (SI units) ***

 *** Literature: B. J. Mohr and B. N. Taylor,
 ***             CODATA recommended values of the fundamental physical
 ***             constants: 2006, Web Version 5.1
 ***             http://physics.nist.gov/constants

 Speed of light in vacuum [m/s]                             2.99792458000000E+08
 Magnetic constant or permeability of vacuum [N/A**2]       1.25663706143592E-06
 Electric constant or permittivity of vacuum [F/m]          8.85418781762039E-12
 Planck constant (h) [J*s]                                  6.62606896000000E-34
 Planck constant (h-bar) [J*s]                              1.05457162825177E-34
 Elementary charge [C]                                      1.60217648700000E-19
 Electron mass [kg]                                         9.10938215000000E-31
 Electron g factor [ ]                                     -2.00231930436220E+00
 Proton mass [kg]                                           1.67262163700000E-27
 Fine-structure constant                                    7.29735253760000E-03
 Rydberg constant [1/m]                                     1.09737315685270E+07
 Avogadro constant [1/mol]                                  6.02214179000000E+23
 Boltzmann constant [J/K]                                   1.38065040000000E-23
 Atomic mass unit [kg]                                      1.66053878200000E-27
 Bohr radius [m]                                            5.29177208590000E-11

 *** Conversion factors ***

 [u] -> [a.u.]                                              1.82288848426455E+03
 [Angstrom] -> [Bohr] = [a.u.]                              1.88972613288564E+00
 [a.u.] = [Bohr] -> [Angstrom]                              5.29177208590000E-01
 [a.u.] -> [s]                                              2.41888432650478E-17
 [a.u.] -> [fs]                                             2.41888432650478E-02
 [a.u.] -> [J]                                              4.35974393937059E-18
 [a.u.] -> [N]                                              8.23872205491840E-08
 [a.u.] -> [K]                                              3.15774647902944E+05
 [a.u.] -> [kJ/mol]                                         2.62549961709828E+03
 [a.u.] -> [kcal/mol]                                       6.27509468713739E+02
 [a.u.] -> [Pa]                                             2.94210107994716E+13
 [a.u.] -> [bar]                                            2.94210107994716E+08
 [a.u.] -> [atm]                                            2.90362800883016E+08
 [a.u.] -> [eV]                                             2.72113838565563E+01
 [a.u.] -> [Hz]                                             6.57968392072181E+15
 [a.u.] -> [1/cm] (wave numbers)                            2.19474631370540E+05
 [a.u./Bohr**2] -> [1/cm]                                   5.14048714338585E+03
 

 CELL_TOP| Volume [angstrom^3]:                                     17614.982639
 CELL_TOP| Vector a [angstrom    16.869     0.000     0.000   |a| =    16.869000
 CELL_TOP| Vector b [angstrom    -8.434    14.609     0.000   |b| =    16.869015
 CELL_TOP| Vector c [angstrom     0.000     0.000    71.478   |c| =    71.478000
 CELL_TOP| Angle (b,c), alpha [degree]:                                90.000000
 CELL_TOP| Angle (a,c), beta  [degree]:                                90.000000
 CELL_TOP| Angle (a,b), gamma [degree]:                               119.999970
 CELL_TOP| Numerically orthorhombic:                                          NO
 
 GENERATE|  Preliminary Number of Bonds generated:                             0
 GENERATE|  Achieved consistency in connectivity generation.

 CELL| Volume [angstrom^3]:                                         17614.982639
 CELL| Vector a [angstrom]:      16.869     0.000     0.000   |a| =    16.869000
 CELL| Vector b [angstrom]:      -8.434    14.609     0.000   |b| =    16.869015
 CELL| Vector c [angstrom]:       0.000     0.000    71.478   |c| =    71.478000
 CELL| Angle (b,c), alpha [degree]:                                    90.000000
 CELL| Angle (a,c), beta  [degree]:                                    90.000000
 CELL| Angle (a,b), gamma [degree]:                                   119.999970
 CELL| Numerically orthorhombic:                                              NO

 CELL_REF| Volume [angstrom^3]:                                     17614.982639
 CELL_REF| Vector a [angstrom    16.869     0.000     0.000   |a| =    16.869000
 CELL_REF| Vector b [angstrom    -8.434    14.609     0.000   |b| =    16.869015
 CELL_REF| Vector c [angstrom     0.000     0.000    71.478   |c| =    71.478000
 CELL_REF| Angle (b,c), alpha [degree]:                                90.000000
 CELL_REF| Angle (a,c), beta  [degree]:                                90.000000
 CELL_REF| Angle (a,b), gamma [degree]:                               119.999970
 CELL_REF| Numerically orthorhombic:                                          NO

 *******************************************************************************
 *******************************************************************************
 **                                                                           **
 **     #####                         ##              ##                      **
 **    ##   ##            ##          ##              ##                      **
 **   ##     ##                       ##            ######                    **
 **   ##     ##  ##   ##  ##   #####  ##  ##   ####   ##    #####    #####    **
 **   ##     ##  ##   ##  ##  ##      ## ##   ##      ##   ##   ##  ##   ##   **
 **   ##  ## ##  ##   ##  ##  ##      ####     ###    ##   ######   ######    **
 **    ##  ###   ##   ##  ##  ##      ## ##      ##   ##   ##       ##        **
 **     #######   #####   ##   #####  ##  ##  ####    ##    #####   ##        **
 **           ##                                                    ##        **
 **                                                                           **
 **                                                ... make the atoms dance   **
 **                                                                           **
 **            Copyright (C) by CP2K developers group (2000-2022)             **
 **                      J. Chem. Phys. 152, 194103 (2020)                    **
 **                                                                           **
 *******************************************************************************

 DFT| Spin restricted Kohn-Sham (RKS) calculation                            RKS
 DFT| Multiplicity                                                             1
 DFT| Number of spin states                                                    1
 DFT| Charge                                                                   0
 DFT| Self-interaction correction (SIC)                                       NO
 DFT| Cutoffs: density                                              1.000000E-10
 DFT|          gradient                                             1.000000E-10
 DFT|          tau                                                  1.000000E-10
 DFT|          cutoff_smoothing_range                               0.000000E+00
 DFT| XC density smoothing                                                  NONE
 DFT| XC derivatives                                                          PW

 FUNCTIONAL| PBE:
 FUNCTIONAL| J.P.Perdew, K.Burke, M.Ernzerhof, Phys. Rev. Letter, vol. 77, n 18,
 FUNCTIONAL|  pp. 3865-3868, (1996){spin unpolarized}                           

 vdW POTENTIAL|                                                   Pair Potential
 vdW POTENTIAL|          DFT-D3 (Version 3.1)
 vdW POTENTIAL|          Potential Form: S. Grimme et al, JCP 132: 154104 (2010)
 vdW POTENTIAL|          Zero Damping
 vdW POTENTIAL|          Cutoff Radius [Bohr]:                             20.00
 vdW POTENTIAL|          s6 Scaling Factor:                               1.0000
 vdW POTENTIAL|          sr6 Scaling Factor:                              1.2170
 vdW POTENTIAL|          s8 Scaling Factor:                               0.7220
 vdW POTENTIAL|          Cutoff for CN calculation:                   0.1000E-05

 QS| Method:                                                                 GPW
 QS| Density plane wave grid type                        NON-SPHERICAL FULLSPACE
 QS| Number of grid levels:                                                    4
 QS| Density cutoff [a.u.]:                                                200.0
 QS| Multi grid cutoff [a.u.]: 1) grid level                               200.0
 QS|                           2) grid level                                66.7
 QS|                           3) grid level                                22.2
 QS|                           4) grid level                                 7.4
 QS| Grid level progression factor:                                          3.0
 QS| Relative density cutoff [a.u.]:                                        20.0
 QS| Interaction thresholds: eps_pgf_orb:                                3.2E-07
 QS|                         eps_filter_matrix:                          0.0E+00
 QS|                         eps_core_charge:                            1.0E-15
 QS|                         eps_rho_gspace:                             1.0E-13
 QS|                         eps_rho_rspace:                             1.0E-13
 QS|                         eps_gvg_rspace:                             3.2E-07
 QS|                         eps_ppl:                                    1.0E-02
 QS|                         eps_ppnl:                                   3.2E-09


 ATOMIC KIND INFORMATION

  1. Atomic kind: O                                     Number of atoms:      99

     Orbital Basis Set                                        DZVP-MOLOPT-SR-GTH

       Number of orbital shell sets:                                           1
       Number of orbital shells:                                               5
       Number of primitive Cartesian functions:                                5
       Number of Cartesian basis functions:                                   14
       Number of spherical basis functions:                                   13
       Norm type:                                                              2

       Normalised Cartesian orbitals:

                        Set   Shell   Orbital            Exponent    Coefficient

                          1       1    2s               10.389228       0.396646
                                                         3.849621       0.208811
                                                         1.388401      -0.301641
                                                         0.496955      -0.274061
                                                         0.162492      -0.033677

                          1       2    3s               10.389228       0.303673
                                                         3.849621       0.240943
                                                         1.388401      -0.313066
                                                         0.496955      -0.043055
                                                         0.162492       0.213991

                          1       3    3px              10.389228      -1.530415
                                                         3.849621      -1.371928
                                                         1.388401      -0.761951
                                                         0.496955      -0.253695
                                                         0.162492      -0.035541
                          1       3    3py              10.389228      -1.530415
                                                         3.849621      -1.371928
                                                         1.388401      -0.761951
                                                         0.496955      -0.253695
                                                         0.162492      -0.035541
                          1       3    3pz              10.389228      -1.530415
                                                         3.849621      -1.371928
                                                         1.388401      -0.761951
                                                         0.496955      -0.253695
                                                         0.162492      -0.035541

                          1       4    4px              10.389228      -0.565392
                                                         3.849621      -0.038231
                                                         1.388401      -0.382373
                                                         0.496955       0.179070
                                                         0.162492       0.122714
                          1       4    4py              10.389228      -0.565392
                                                         3.849621      -0.038231
                                                         1.388401      -0.382373
                                                         0.496955       0.179070
                                                         0.162492       0.122714
                          1       4    4pz              10.389228      -0.565392
                                                         3.849621      -0.038231
                                                         1.388401      -0.382373
                                                         0.496955       0.179070
                                                         0.162492       0.122714

                          1       5    4dx2             10.389228       1.867377
                                                         3.849621       0.670994
                                                         1.388401       1.353441
                                                         0.496955       0.273538
                                                         0.162492       0.006620
                          1       5    4dxy             10.389228       3.234392
                                                         3.849621       1.162195
                                                         1.388401       2.344229
                                                         0.496955       0.473781
                                                         0.162492       0.011466
                          1       5    4dxz             10.389228       3.234392
                                                         3.849621       1.162195
                                                         1.388401       2.344229
                                                         0.496955       0.473781
                                                         0.162492       0.011466
                          1       5    4dy2             10.389228       1.867377
                                                         3.849621       0.670994
                                                         1.388401       1.353441
                                                         0.496955       0.273538
                                                         0.162492       0.006620
                          1       5    4dyz             10.389228       3.234392
                                                         3.849621       1.162195
                                                         1.388401       2.344229
                                                         0.496955       0.473781
                                                         0.162492       0.011466
                          1       5    4dz2             10.389228       1.867377
                                                         3.849621       0.670994
                                                         1.388401       1.353441
                                                         0.496955       0.273538
                                                         0.162492       0.006620

       Atomic covalent radius [Angstrom]:                                  0.730

       Atomic van der Waals radius [Angstrom]:                             1.520

     GTH Potential information for                                    GTH-PBE-q6

       Description:                       Goedecker-Teter-Hutter pseudopotential
                                           Goedecker et al., PRB 54, 1703 (1996)
                                          Hartwigsen et al., PRB 58, 3641 (1998)
                                                      Krack, TCA 114, 145 (2005)

       Gaussian exponent of the core charge distribution:               8.360253
       Electronic configuration (s p d ...):                               2   4

       Parameters of the local part of the GTH pseudopotential:

                          rloc        C1          C2          C3          C4
                        0.244554  -16.667215    2.487311

       Parameters of the non-local part of the GTH pseudopotential:

                   l      r(l)      h(i,j,l)

                   0    0.220956   18.337458
                   1    0.211332

  2. Atomic kind: H                                     Number of atoms:     198

     Orbital Basis Set                                        DZVP-MOLOPT-SR-GTH

       Number of orbital shell sets:                                           1
       Number of orbital shells:                                               3
       Number of primitive Cartesian functions:                                5
       Number of Cartesian basis functions:                                    5
       Number of spherical basis functions:                                    5
       Norm type:                                                              2

       Normalised Cartesian orbitals:

                        Set   Shell   Orbital            Exponent    Coefficient

                          1       1    2s               10.068468      -0.133023
                                                         2.680223      -0.177618
                                                         0.791502      -0.258419
                                                         0.239116      -0.107525
                                                         0.082193      -0.014019

                          1       2    3s               10.068468       0.344673
                                                         2.680223       1.819821
                                                         0.791502      -0.999069
                                                         0.239116       0.017430
                                                         0.082193       0.082660

                          1       3    3px              10.068468       0.155326
                                                         2.680223       0.367157
                                                         0.791502       0.311480
                                                         0.239116       0.080105
                                                         0.082193       0.033440
                          1       3    3py              10.068468       0.155326
                                                         2.680223       0.367157
                                                         0.791502       0.311480
                                                         0.239116       0.080105
                                                         0.082193       0.033440
                          1       3    3pz              10.068468       0.155326
                                                         2.680223       0.367157
                                                         0.791502       0.311480
                                                         0.239116       0.080105
                                                         0.082193       0.033440

       Atomic covalent radius [Angstrom]:                                  0.320

       Atomic van der Waals radius [Angstrom]:                             1.090

     GTH Potential information for                                    GTH-PBE-q1

       Description:                       Goedecker-Teter-Hutter pseudopotential
                                           Goedecker et al., PRB 54, 1703 (1996)
                                          Hartwigsen et al., PRB 58, 3641 (1998)
                                                      Krack, TCA 114, 145 (2005)

       Gaussian exponent of the core charge distribution:              12.500000
       Electronic configuration (s p d ...):                                   1

       Parameters of the local part of the GTH pseudopotential:

                          rloc        C1          C2          C3          C4
                        0.200000   -4.178900    0.724463

  3. Atomic kind: Pt                                    Number of atoms:     216

     Orbital Basis Set                      DZVP-A5-Q10-323-MOL-T1-DERIVED_SET-1

       Number of orbital shell sets:                                           1
       Number of orbital shells:                                               6
       Number of primitive Cartesian functions:                                5
       Number of Cartesian basis functions:                                   23
       Number of spherical basis functions:                                   20
       Norm type:                                                              2

       Normalised Cartesian orbitals:

                        Set   Shell   Orbital            Exponent    Coefficient

                          1       1    2s                2.521825       0.177473
                                                         1.453920      -0.063399
                                                         0.614053      -0.407089
                                                         0.232656       0.262254
                                                         0.074788       0.047371

                          1       2    3s                2.521825      -0.049056
                                                         1.453920       0.044904
                                                         0.614053      -0.009756
                                                         0.232656      -0.144709
                                                         0.074788       0.144085

                          1       3    3px               2.521825      -0.317572
                                                         1.453920       0.534826
                                                         0.614053      -0.489458
                                                         0.232656       0.245631
                                                         0.074788       0.018221
                          1       3    3py               2.521825      -0.317572
                                                         1.453920       0.534826
                                                         0.614053      -0.489458
                                                         0.232656       0.245631
                                                         0.074788       0.018221
                          1       3    3pz               2.521825      -0.317572
                                                         1.453920       0.534826
                                                         0.614053      -0.489458
                                                         0.232656       0.245631
                                                         0.074788       0.018221

                          1       4    4dx2              2.521825       3.008522
                                                         1.453920      -1.224251
                                                         0.614053       0.225691
                                                         0.232656       0.125144
                                                         0.074788      -0.015348
                          1       4    4dxy              2.521825       5.210912
                                                         1.453920      -2.120465
                                                         0.614053       0.390909
                                                         0.232656       0.216756
                                                         0.074788      -0.026584
                          1       4    4dxz              2.521825       5.210912
                                                         1.453920      -2.120465
                                                         0.614053       0.390909
                                                         0.232656       0.216756
                                                         0.074788      -0.026584
                          1       4    4dy2              2.521825       3.008522
                                                         1.453920      -1.224251
                                                         0.614053       0.225691
                                                         0.232656       0.125144
                                                         0.074788      -0.015348
                          1       4    4dyz              2.521825       5.210912
                                                         1.453920      -2.120465
                                                         0.614053       0.390909
                                                         0.232656       0.216756
                                                         0.074788      -0.026584
                          1       4    4dz2              2.521825       3.008522
                                                         1.453920      -1.224251
                                                         0.614053       0.225691
                                                         0.232656       0.125144
                                                         0.074788      -0.015348

                          1       5    5dx2              2.521825       0.698026
                                                         1.453920      -1.511486
                                                         0.614053      -0.335394
                                                         0.232656      -0.025564
                                                         0.074788      -0.002699
                          1       5    5dxy              2.521825       1.209017
                                                         1.453920      -2.617970
                                                         0.614053      -0.580920
                                                         0.232656      -0.044277
                                                         0.074788      -0.004674
                          1       5    5dxz              2.521825       1.209017
                                                         1.453920      -2.617970
                                                         0.614053      -0.580920
                                                         0.232656      -0.044277
                                                         0.074788      -0.004674
                          1       5    5dy2              2.521825       0.698026
                                                         1.453920      -1.511486
                                                         0.614053      -0.335394
                                                         0.232656      -0.025564
                                                         0.074788      -0.002699
                          1       5    5dyz              2.521825       1.209017
                                                         1.453920      -2.617970
                                                         0.614053      -0.580920
                                                         0.232656      -0.044277
                                                         0.074788      -0.004674
                          1       5    5dz2              2.521825       0.698026
                                                         1.453920      -1.511486
                                                         0.614053      -0.335394
                                                         0.232656      -0.025564
                                                         0.074788      -0.002699

                          1       6    6dx2              2.521825       0.831079
                                                         1.453920      -0.709226
                                                         0.614053      -0.137351
                                                         0.232656       0.068642
                                                         0.074788       0.011745
                          1       6    6dxy              2.521825       1.439472
                                                         1.453920      -1.228415
                                                         0.614053      -0.237899
                                                         0.232656       0.118891
                                                         0.074788       0.020343
                          1       6    6dxz              2.521825       1.439472
                                                         1.453920      -1.228415
                                                         0.614053      -0.237899
                                                         0.232656       0.118891
                                                         0.074788       0.020343
                          1       6    6dy2              2.521825       0.831079
                                                         1.453920      -0.709226
                                                         0.614053      -0.137351
                                                         0.232656       0.068642
                                                         0.074788       0.011745
                          1       6    6dyz              2.521825       1.439472
                                                         1.453920      -1.228415
                                                         0.614053      -0.237899
                                                         0.232656       0.118891
                                                         0.074788       0.020343
                          1       6    6dz2              2.521825       0.831079
                                                         1.453920      -0.709226
                                                         0.614053      -0.137351
                                                         0.232656       0.068642
                                                         0.074788       0.011745

       Atomic covalent radius [Angstrom]:                                  1.300

       Atomic van der Waals radius [Angstrom]:                             1.750

     GTH Potential information for                                   GTH-PBE-q10

       Description:                       Goedecker-Teter-Hutter pseudopotential
                                           Goedecker et al., PRB 54, 1703 (1996)
                                          Hartwigsen et al., PRB 58, 3641 (1998)
                                                      Krack, TCA 114, 145 (2005)

       Gaussian exponent of the core charge distribution:               1.317676
       Electronic configuration (s p d ...):                           1   0   9

       Parameters of the local part of the GTH pseudopotential:

                          rloc        C1          C2          C3          C4
                        0.616000   11.313635

       Parameters of the non-local part of the GTH pseudopotential:

                   l      r(l)      h(i,j,l)

                   0    0.550904    4.733491   -1.784594
                                   -1.784594    2.303901
                   1    0.674138    2.534798   -1.778066
                                   -1.778066    2.103836
                   2    0.457392   -7.264011    2.558665
                                    2.558665   -2.901253


 MOLECULE KIND INFORMATION


 All atoms are their own molecule, skipping detailed information


 TOTAL NUMBERS AND MAXIMUM NUMBERS

  Total number of            - Atomic kinds:                                   3
                             - Atoms:                                        513
                             - Shell sets:                                   513
                             - Shells:                                      2385
                             - Primitive Cartesian functions:               2565
                             - Cartesian basis functions:                   7344
                             - Spherical basis functions:                   6597

  Maximum angular momentum of- Orbital basis functions:                        2
                             - Local part of the GTH pseudopotential:          2
                             - Non-local part of the GTH pseudopotential:      4


 MODULE QUICKSTEP:  ATOMIC COORDINATES IN angstrom

 Atom  Kind  Element       X           Y           Z          Z(eff)       Mass
    1   1 O    8       3.320000   -0.950000   34.378001       6.0000     15.9994
    2   2 H    1       2.560000   -0.290000   34.608000       1.0000      1.0079
    3   2 H    1       3.060000   -1.690000   33.738000       1.0000      1.0079
    4   1 O    8       5.210000   -4.000000   32.408000       6.0000     15.9994
    5   2 H    1       5.610001   -3.740000   33.278000       1.0000      1.0079
    6   2 H    1       5.640000   -4.820000   31.998000       1.0000      1.0079
    7   1 O    8       1.530000   -1.660000   38.168001       6.0000     15.9994
    8   2 H    1       2.080000   -1.050000   38.728000       1.0000      1.0079
    9   2 H    1       0.910000   -1.240000   37.568000       1.0000      1.0079
   10   1 O    8      -1.740000   12.410001   30.648000       6.0000     15.9994
   11   2 H    1      -2.130000   12.490001   29.708000       1.0000      1.0079
   12   2 H    1      -2.250000   11.710000   31.148000       1.0000      1.0079
   13   1 O    8       0.810000   10.800000   36.188000       6.0000     15.9994
   14   2 H    1       1.180000   10.230000   35.478000       1.0000      1.0079
   15   2 H    1       1.470000   11.450001   36.298001       1.0000      1.0079
   16   1 O    8       0.910000   13.700001   33.808000       6.0000     15.9994
   17   2 H    1       0.460000   13.800001   32.938000       1.0000      1.0079
   18   2 H    1       8.660001   -1.400000   34.238000       1.0000      1.0079
   19   1 O    8       1.730000    1.580000   38.418001       6.0000     15.9994
   20   2 H    1       1.530000    0.950000   37.778001       1.0000      1.0079
   21   2 H    1       2.650000    1.350000   38.748000       1.0000      1.0079
   22   1 O    8      11.400002   19.960001   30.228000       6.0000     15.9994
   23   2 H    1      11.950001   19.890001   29.458000       1.0000      1.0079
   24   2 H    1      10.860001   19.110001   30.148000       1.0000      1.0079
   25   1 O    8      -8.530001   15.390000   31.728000       6.0000     15.9994
   26   2 H    1      -9.420000   15.120001   32.048000       1.0000      1.0079
   27   2 H    1      -8.540000   16.210001   31.188000       1.0000      1.0079
   28   1 O    8      -1.180000   -8.910000   35.538001       6.0000     15.9994
   29   2 H    1      -1.360000   -8.740000   34.508001       1.0000      1.0079
   30   2 H    1      16.630001   -8.820001   35.868001       1.0000      1.0079
   31   1 O    8      13.140000    1.780000   30.148000       6.0000     15.9994
   32   2 H    1       4.460000   15.950001   29.308000       1.0000      1.0079
   33   2 H    1      12.370001    2.360000   30.258001       1.0000      1.0079
   34   1 O    8       9.480001    0.640000   30.198000       6.0000     15.9994
   35   2 H    1       8.690001    0.310000   30.688000       1.0000      1.0079
   36   2 H    1       9.270000    0.770000   29.238000       1.0000      1.0079
   37   1 O    8      -7.870001   11.020000   33.398000       6.0000     15.9994
   38   2 H    1      -8.570001   10.780001   32.738000       1.0000      1.0079
   39   2 H    1      -7.570000   10.180000   33.868000       1.0000      1.0079
   40   1 O    8       2.840000   13.450001   30.608000       6.0000     15.9994
   41   2 H    1       2.630000   14.380001   30.508000       1.0000      1.0079
   42   2 H    1       2.040000   12.930001   30.318000       1.0000      1.0079
   43   1 O    8      -2.390000   -0.310000   32.688000       6.0000     15.9994
   44   2 H    1      -2.810000    0.380000   33.228000       1.0000      1.0079
   45   2 H    1      -2.110000   -0.940000   33.388001       1.0000      1.0079
   46   1 O    8      12.160001    1.920000   39.988000       6.0000     15.9994
   47   2 H    1      12.990000    1.320000   40.258001       1.0000      1.0079
   48   2 H    1      -4.780000    2.460000   40.777999       1.0000      1.0079
   49   1 O    8      -4.930000    7.940001   36.198001       6.0000     15.9994
   50   2 H    1      -5.330000    8.560000   36.878001       1.0000      1.0079
   51   2 H    1      -4.060000    8.290001   35.938001       1.0000      1.0079
   52   1 O    8      11.170001    6.580000   30.468000       6.0000     15.9994
   53   2 H    1      10.650001    6.750000   31.277999       1.0000      1.0079
   54   2 H    1      10.640000    6.690001   29.638000       1.0000      1.0079
   55   1 O    8     -14.710001    8.760000   34.658000       6.0000     15.9994
   56   2 H    1     -13.790001    8.650001   35.018001       1.0000      1.0079
   57   2 H    1     -14.660001    9.070001   33.698001       1.0000      1.0079
   58   1 O    8      -0.960000   14.500000   31.818000       6.0000     15.9994
   59   2 H    1      -1.200000   13.480000   31.528001       1.0000      1.0079
   60   2 H    1      -1.550000   14.510001   32.608000       1.0000      1.0079
   61   1 O    8      13.400001   -8.350000   36.838001       6.0000     15.9994
   62   2 H    1      14.140000   -8.680000   36.298001       1.0000      1.0079
   63   2 H    1       4.320000    6.570000   36.128000       1.0000      1.0079
   64   1 O    8       9.070001    9.040001   29.758001       6.0000     15.9994
   65   2 H    1       9.180000    9.510000   28.878000       1.0000      1.0079
   66   2 H    1       8.650001    9.620001   30.318000       1.0000      1.0079
   67   1 O    8      -8.630000   19.960001   32.558000       6.0000     15.9994
   68   2 H    1       9.070001   19.910000   33.158000       1.0000      1.0079
   69   2 H    1      -9.230001   20.580002   33.037999       1.0000      1.0079
   70   1 O    8     -13.390001   -0.490000   39.938001       6.0000     15.9994
   71   2 H    1     -13.770000    0.070000   40.668001       1.0000      1.0079
   72   2 H    1     -12.420001   -0.620000   40.248000       1.0000      1.0079
   73   1 O    8       5.630000   -0.420000   37.068000       6.0000     15.9994
   74   2 H    1       4.930000   -1.110000   36.928001       1.0000      1.0079
   75   2 H    1       5.260000    0.200000   37.748000       1.0000      1.0079
   76   1 O    8       0.880000   18.760000   32.798001       6.0000     15.9994
   77   2 H    1       1.470000   18.370001   32.088001       1.0000      1.0079
   78   2 H    1       1.150000   18.150002   33.518001       1.0000      1.0079
   79   1 O    8      -1.640000    0.450000   38.438001       6.0000     15.9994
   80   2 H    1      -0.910000    0.550000   37.858001       1.0000      1.0079
   81   2 H    1      -1.320000    0.820000   39.298000       1.0000      1.0079
   82   1 O    8      -7.170000   15.630001   34.308001       6.0000     15.9994
   83   2 H    1      -7.210000   16.550001   34.728000       1.0000      1.0079
   84   2 H    1      -7.630000   15.680000   33.428000       1.0000      1.0079
   85   1 O    8      -3.550000    2.920000   33.238000       6.0000     15.9994
   86   2 H    1      -3.180000    2.890000   32.318000       1.0000      1.0079
   87   2 H    1      -4.360000    2.360000   33.148000       1.0000      1.0079
   88   1 O    8      15.040001   -1.790000   30.398000       6.0000     15.9994
   89   2 H    1       7.560000   13.130001   30.118000       1.0000      1.0079
   90   2 H    1      14.620000   -0.890000   30.658000       1.0000      1.0079
   91   1 O    8      -2.230000   18.730001   30.048000       6.0000     15.9994
   92   2 H    1      -2.650000   19.180000   29.308000       1.0000      1.0079
   93   2 H    1      14.520000   17.730001   29.888000       1.0000      1.0079
   94   1 O    8      -1.440000   -2.140000   34.608000       6.0000     15.9994
   95   2 H    1      -2.390000   -2.490000   34.708000       1.0000      1.0079
   96   2 H    1      -0.830000   -2.900000   34.598000       1.0000      1.0079
   97   1 O    8       4.240000    2.510000   33.428000       6.0000     15.9994
   98   2 H    1       4.990000    1.920000   33.528000       1.0000      1.0079
   99   2 H    1       3.810000    2.660000   34.308001       1.0000      1.0079
  100   1 O    8      10.840001   -1.610000   36.668001       6.0000     15.9994
  101   2 H    1      11.510000   -1.610000   37.388000       1.0000      1.0079
  102   2 H    1      10.200001   -0.830000   36.828000       1.0000      1.0079
  103   1 O    8      -2.350000   16.010000   30.088001       6.0000     15.9994
  104   2 H    1      -2.060000   15.350000   30.778000       1.0000      1.0079
  105   2 H    1      -2.160000   15.540000   29.148000       1.0000      1.0079
  106   1 O    8      -7.560000   -7.770000   38.048000       6.0000     15.9994
  107   2 H    1      -8.530001   -7.670000   38.028001       1.0000      1.0079
  108   2 H    1       0.970000    5.950000   37.558000       1.0000      1.0079
  109   1 O    8       8.600000    9.660000   38.058000       6.0000     15.9994
  110   2 H    1       8.170000    9.150001   37.258001       1.0000      1.0079
  111   2 H    1       8.140000    9.180000   38.878002       1.0000      1.0079
  112   1 O    8      -3.500000    3.440000   38.208000       6.0000     15.9994
  113   2 H    1     -20.900002    2.700000   38.688001       1.0000      1.0079
  114   2 H    1      -2.670000    3.540000   38.787999       1.0000      1.0079
  115   1 O    8       1.940000  -14.890001   39.588001       6.0000     15.9994
  116   2 H    1      -5.940001    0.530000   39.658000       1.0000      1.0079
  117   2 H    1       2.540000  -15.610001   39.388000       1.0000      1.0079
  118   1 O    8      -2.180000   -3.630000   38.388000       6.0000     15.9994
  119   2 H    1      -2.850000   -4.320000   38.168001       1.0000      1.0079
  120   2 H    1      -1.290000   -4.000000   38.078000       1.0000      1.0079
  121   1 O    8       5.060000    7.330000   29.768000       6.0000     15.9994
  122   2 H    1       5.240001    7.560000   30.748000       1.0000      1.0079
  123   2 H    1       5.910000    7.520000   29.338001       1.0000      1.0079
  124   1 O    8      -4.900000    9.560000   30.208000       6.0000     15.9994
  125   2 H    1      -4.510000    8.960000   30.838000       1.0000      1.0079
  126   2 H    1      -5.840001    9.290000   30.078000       1.0000      1.0079
  127   1 O    8       9.380000   -2.760000   29.708000       6.0000     15.9994
  128   2 H    1       9.410001   -3.790000   29.828000       1.0000      1.0079
  129   2 H    1       8.420001   -2.470000   29.668001       1.0000      1.0079
  130   1 O    8      -1.970000    8.530001   31.248000       6.0000     15.9994
  131   2 H    1      -1.770000    8.000000   32.038000       1.0000      1.0079
  132   2 H    1      -2.590000    7.960001   30.708000       1.0000      1.0079
  133   1 O    8      -1.920000    7.130001   33.628000       6.0000     15.9994
  134   2 H    1      -1.850000    7.770000   34.408000       1.0000      1.0079
  135   2 H    1      -2.640000    6.490001   33.868000       1.0000      1.0079
  136   1 O    8      -3.570000   16.590000   38.178001       6.0000     15.9994
  137   2 H    1      -2.830000   16.730001   37.458000       1.0000      1.0079
  138   2 H    1      -3.140000   16.710001   39.058002       1.0000      1.0079
  139   1 O    8      12.070000   15.930000   31.128000       6.0000     15.9994
  140   2 H    1      12.370001   16.430000   31.968000       1.0000      1.0079
  141   2 H    1      12.890000   16.040001   30.608000       1.0000      1.0079
  142   1 O    8      12.050000   12.150001   36.998000       6.0000     15.9994
  143   2 H    1      11.990000   12.270001   36.038000       1.0000      1.0079
  144   2 H    1      11.170001   12.490001   37.438001       1.0000      1.0079
  145   1 O    8      10.060000    8.670000   34.308001       6.0000     15.9994
  146   2 H    1      10.060000    7.820001   33.768001       1.0000      1.0079
  147   2 H    1      10.760001    8.520000   35.068000       1.0000      1.0079
  148   1 O    8      -1.070000    3.890000   39.618001       6.0000     15.9994
  149   2 H    1      -0.500000    3.850000   38.828000       1.0000      1.0079
  150   2 H    1      -0.640000    3.190000   40.158000       1.0000      1.0079
  151   1 O    8      11.540001   13.360001   30.538000       6.0000     15.9994
  152   2 H    1      11.360001   12.780001   31.338001       1.0000      1.0079
  153   2 H    1      11.500001   14.330001   30.788000       1.0000      1.0079
  154   1 O    8      -1.820000   11.120001   34.928000       6.0000     15.9994
  155   2 H    1      -2.440000   11.770000   35.368000       1.0000      1.0079
  156   2 H    1      -0.860000   11.190001   35.238000       1.0000      1.0079
  157   1 O    8      -2.510000    1.880000   35.998000       6.0000     15.9994
  158   2 H    1      -2.820000    2.390000   36.778000       1.0000      1.0079
  159   2 H    1      -2.030000    1.100000   36.378001       1.0000      1.0079
  160   1 O    8      -5.420001   -2.460000   33.108001       6.0000     15.9994
  161   2 H    1      -5.150001   -2.010000   32.298000       1.0000      1.0079
  162   2 H    1      -6.220000   -1.910000   33.488000       1.0000      1.0079
  163   1 O    8       0.560000    9.270000   30.308000       6.0000     15.9994
  164   2 H    1       0.980000    8.570001   29.728000       1.0000      1.0079
  165   2 H    1      -0.370000    8.940001   30.318000       1.0000      1.0079
  166   1 O    8       3.330000    9.400001   29.478000       6.0000     15.9994
  167   2 H    1       3.920000   10.170001   29.528000       1.0000      1.0079
  168   2 H    1       4.070000    8.700001   29.358000       1.0000      1.0079
  169   1 O    8       9.080001   13.880000   29.618000       6.0000     15.9994
  170   2 H    1       9.940001   13.470001   29.798001       1.0000      1.0079
  171   2 H    1       9.020000   14.720001   30.198000       1.0000      1.0079
  172   1 O    8      13.060001   12.040001   29.008000       6.0000     15.9994
  173   2 H    1      12.790001   11.160001   29.308000       1.0000      1.0079
  174   2 H    1      12.470001   12.680000   29.548000       1.0000      1.0079
  175   1 O    8      15.710001    5.320000   29.888000       6.0000     15.9994
  176   2 H    1      16.210001    5.500000   30.768000       1.0000      1.0079
  177   2 H    1      14.820002    5.860000   29.838001       1.0000      1.0079
  178   1 O    8      -6.830000   17.640001   30.128001       6.0000     15.9994
  179   2 H    1      -7.070000   17.580002   29.148000       1.0000      1.0079
  180   2 H    1      -6.120000   16.980001   30.348001       1.0000      1.0079
  181   1 O    8      10.670000    3.010000   30.598000       6.0000     15.9994
  182   2 H    1      10.090000    2.200000   30.328000       1.0000      1.0079
  183   2 H    1      10.260000    3.820000   30.188000       1.0000      1.0079
  184   1 O    8     -12.490001    8.990001   38.248000       6.0000     15.9994
  185   2 H    1     -13.480000    9.270000   38.298000       1.0000      1.0079
  186   2 H    1      -4.110000   -6.280000   37.568000       1.0000      1.0079
  187   1 O    8      -0.320000   -0.340000   36.358000       6.0000     15.9994
  188   2 H    1      -0.840000   -0.980000   35.768001       1.0000      1.0079
  189   2 H    1       0.180000    0.120000   35.598000       1.0000      1.0079
  190   1 O    8      -3.840000   -2.990000   35.008000       6.0000     15.9994
  191   2 H    1      -4.450000   -2.780000   34.278000       1.0000      1.0079
  192   2 H    1      -4.180000   -2.650000   35.858000       1.0000      1.0079
  193   1 O    8     -11.170001    0.080000   33.918001       6.0000     15.9994
  194   2 H    1     -11.220001    0.340000   34.878000       1.0000      1.0079
  195   2 H    1     -12.050000   -0.460000   33.908000       1.0000      1.0079
  196   1 O    8       1.100000    6.840000   29.238000       6.0000     15.9994
  197   2 H    1       0.320000    6.270000   29.248000       1.0000      1.0079
  198   2 H    1      18.720001    6.380000   29.878000       1.0000      1.0079
  199   1 O    8      -4.740000    5.310000   36.738001       6.0000     15.9994
  200   2 H    1      -4.230000    4.880000   37.508001       1.0000      1.0079
  201   2 H    1      -4.640000    6.270000   36.748000       1.0000      1.0079
  202   1 O    8       8.520000    4.890000   29.158000       6.0000     15.9994
  203   2 H    1       8.290001    5.730000   29.698000       1.0000      1.0079
  204   2 H    1       7.880001    4.250000   29.598000       1.0000      1.0079
  205   1 O    8       9.590000    2.290000   35.158000       6.0000     15.9994
  206   2 H    1      10.440001    1.850000   35.138000       1.0000      1.0079
  207   2 H    1       8.910000    1.570000   35.138000       1.0000      1.0079
  208   1 O    8      11.250000   11.910001   32.638000       6.0000     15.9994
  209   2 H    1      11.990000   11.300000   32.448001       1.0000      1.0079
  210   2 H    1      10.410000   11.420001   32.868000       1.0000      1.0079
  211   1 O    8       7.070000    5.820000   32.898000       6.0000     15.9994
  212   2 H    1       6.130000    5.690000   32.548001       1.0000      1.0079
  213   2 H    1       7.600000    5.090000   32.678001       1.0000      1.0079
  214   1 O    8      11.130000   -4.950000   32.238000       6.0000     15.9994
  215   2 H    1      11.350001   -3.980000   32.368000       1.0000      1.0079
  216   2 H    1      10.600000   -5.030000   31.408000       1.0000      1.0079
  217   1 O    8      -0.350000    3.500000   35.058000       6.0000     15.9994
  218   2 H    1      -0.470000    3.860000   34.148000       1.0000      1.0079
  219   2 H    1      -1.180000    2.970000   35.148000       1.0000      1.0079
  220   1 O    8      -6.720000   -5.170000   38.368001       6.0000     15.9994
  221   2 H    1      -6.850000   -6.130000   38.378000       1.0000      1.0079
  222   2 H    1      -7.260000   -4.860000   37.578000       1.0000      1.0079
  223   1 O    8       4.250000    5.230000   32.678001       6.0000     15.9994
  224   2 H    1       4.510000    4.250000   32.787999       1.0000      1.0079
  225   2 H    1       3.880000    5.250000   31.758001       1.0000      1.0079
  226   1 O    8       6.290000   -6.130000   36.098001       6.0000     15.9994
  227   2 H    1       6.440001   -5.160000   36.108000       1.0000      1.0079
  228   2 H    1       6.380000   -6.450000   37.008001       1.0000      1.0079
  229   1 O    8      -8.410000    4.040000   39.498000       6.0000     15.9994
  230   2 H    1      -7.740001    4.630000   39.908000       1.0000      1.0079
  231   2 H    1      -8.080000    4.090000   38.618001       1.0000      1.0079
  232   1 O    8      -5.580000    9.810000   38.108001       6.0000     15.9994
  233   2 H    1      -5.160000   10.640000   37.758001       1.0000      1.0079
  234   2 H    1      -6.590000   10.090000   38.138000       1.0000      1.0079
  235   1 O    8      -1.310000    2.820000   29.318000       6.0000     15.9994
  236   2 H    1      -1.190000    3.780000   29.548000       1.0000      1.0079
  237   2 H    1      -2.210000    2.620000   29.688000       1.0000      1.0079
  238   1 O    8       8.040000    6.850000   30.538000       6.0000     15.9994
  239   2 H    1       8.270000    7.780001   30.258001       1.0000      1.0079
  240   2 H    1       7.720000    6.870000   31.418001       1.0000      1.0079
  241   1 O    8       2.090000   21.160002   33.058001       6.0000     15.9994
  242   2 H    1       1.710000   20.230000   32.988000       1.0000      1.0079
  243   2 H    1       2.970000   21.000002   33.438001       1.0000      1.0079
  244   1 O    8      12.930001    5.350000   34.238000       6.0000     15.9994
  245   2 H    1      13.100000    4.500000   33.738000       1.0000      1.0079
  246   2 H    1      13.010001    5.180000   35.238000       1.0000      1.0079
  247   1 O    8       2.380000    5.690000   34.408000       6.0000     15.9994
  248   2 H    1       3.180000    5.540000   33.718001       1.0000      1.0079
  249   2 H    1       2.060000    6.650000   34.538000       1.0000      1.0079
  250   1 O    8     -13.210001  -13.650000   34.638001       6.0000     15.9994
  251   2 H    1     -13.460001  -14.590001   34.868000       1.0000      1.0079
  252   2 H    1     -12.440001  -13.420000   35.238000       1.0000      1.0079
  253   1 O    8      -0.190000   14.860001   37.018001       6.0000     15.9994
  254   2 H    1       0.150000   15.040001   37.888002       1.0000      1.0079
  255   2 H    1      -1.020000   14.360001   37.148002       1.0000      1.0079
  256   1 O    8      -7.360001    4.410000   37.008001       6.0000     15.9994
  257   2 H    1      -6.530001    4.860000   37.158000       1.0000      1.0079
  258   2 H    1      -7.120000    3.850000   36.268001       1.0000      1.0079
  259   1 O    8       6.590000    2.620000   36.158000       6.0000     15.9994
  260   2 H    1       7.420001    2.270000   36.468000       1.0000      1.0079
  261   2 H    1       6.830000    3.580000   36.088001       1.0000      1.0079
  262   1 O    8       6.210001   -2.750000   38.787999       6.0000     15.9994
  263   2 H    1       5.330000   -2.710000   38.378000       1.0000      1.0079
  264   2 H    1       6.510000   -1.860000   39.178001       1.0000      1.0079
  265   1 O    8      -9.220000    8.620001   35.668000       6.0000     15.9994
  266   2 H    1      -8.400001    8.590000   35.068000       1.0000      1.0079
  267   2 H    1      -9.560000    7.670000   35.688001       1.0000      1.0079
  268   1 O    8       6.370000   -7.250000   38.778001       6.0000     15.9994
  269   2 H    1       5.480001   -7.630000   38.838001       1.0000      1.0079
  270   2 H    1       6.380000   -6.380000   39.108001       1.0000      1.0079
  271   1 O    8       4.010000    5.000000   39.088001       6.0000     15.9994
  272   2 H    1       4.600000    5.460000   38.438001       1.0000      1.0079
  273   2 H    1       3.140000    5.490000   38.848001       1.0000      1.0079
  274   1 O    8       4.540000   11.840000   29.248000       6.0000     15.9994
  275   2 H    1       5.410000   12.320002   29.568000       1.0000      1.0079
  276   2 H    1       3.780000   12.380000   29.618000       1.0000      1.0079
  277   1 O    8     -11.940001    8.280001   32.178000       6.0000     15.9994
  278   2 H    1       4.050000    8.770000   32.288000       1.0000      1.0079
  279   2 H    1       5.260000    8.310000   33.088001       1.0000      1.0079
  280   1 O    8       0.850000    4.180000   37.408000       6.0000     15.9994
  281   2 H    1       1.430000    3.450000   37.268001       1.0000      1.0079
  282   2 H    1       0.370000    4.210001   36.528001       1.0000      1.0079
  283   1 O    8      -3.330000    6.840000   29.787999       6.0000     15.9994
  284   2 H    1      -4.350000    6.860001   29.808000       1.0000      1.0079
  285   2 H    1      -3.270000    7.020000   28.758000       1.0000      1.0079
  286   1 O    8       2.930000    3.210000   35.678001       6.0000     15.9994
  287   2 H    1       2.750000    4.150000   35.408000       1.0000      1.0079
  288   2 H    1       3.570000    3.270000   36.438000       1.0000      1.0079
  289   1 O    8      -3.750000   -1.430000   38.308000       6.0000     15.9994
  290   2 H    1      -2.990000   -2.100000   38.318000       1.0000      1.0079
  291   2 H    1      -3.250000   -0.590000   38.358001       1.0000      1.0079
  292   1 O    8       4.900000    9.000000   35.048001       6.0000     15.9994
  293   2 H    1       5.900001    9.070001   35.168001       1.0000      1.0079
  294   2 H    1       4.810000    9.990001   34.998000       1.0000      1.0079
  295   1 O    8      -9.470000   10.360001   31.318000       6.0000     15.9994
  296   2 H    1     -10.160000    9.650001   31.488000       1.0000      1.0079
  297   2 H    1       7.050000   11.310000   31.138000       1.0000      1.0079
  298   3 Pt  78       1.820000    0.700000   15.180000      10.0000    195.0840
  299   3 Pt  78       4.510000    0.580000   15.230003      10.0000    195.0840
  300   3 Pt  78       7.410001    0.720000   15.349998      10.0000    195.0840
  301   3 Pt  78      10.170001    0.670000   15.550003      10.0000    195.0840
  302   3 Pt  78      12.900001    0.740000   15.450001      10.0000    195.0840
  303   3 Pt  78      15.680000    0.690000   15.290001      10.0000    195.0840
  304   3 Pt  78       3.090000    3.060000   15.279999      10.0000    195.0840
  305   3 Pt  78       6.000000    3.000000   15.320004      10.0000    195.0840
  306   3 Pt  78       8.820001    3.140000   15.390003      10.0000    195.0840
  307   3 Pt  78      11.710000    3.290000   15.500000      10.0000    195.0840
  308   3 Pt  78      14.510001    3.280000   15.130001      10.0000    195.0840
  309   3 Pt  78       0.390000    3.110000   15.270000      10.0000    195.0840
  310   3 Pt  78       4.690000    5.330000   15.220001      10.0000    195.0840
  311   3 Pt  78       7.480001    5.590000   15.260002      10.0000    195.0840
  312   3 Pt  78      10.320001    5.570001   15.330002      10.0000    195.0840
  313   3 Pt  78      13.110001    5.640000   15.180000      10.0000    195.0840
  314   3 Pt  78      -0.970000    5.530000   15.170002      10.0000    195.0840
  315   3 Pt  78       1.760000    5.540000   15.300003      10.0000    195.0840
  316   3 Pt  78       5.970000    8.110001   15.300003      10.0000    195.0840
  317   3 Pt  78       8.870000    7.940001   15.220001      10.0000    195.0840
  318   3 Pt  78      11.630001    8.080000   15.180000      10.0000    195.0840
  319   3 Pt  78      -2.450000    8.040000   15.049999      10.0000    195.0840
  320   3 Pt  78       0.370000    7.960001   15.240002      10.0000    195.0840
  321   3 Pt  78       3.060000    7.980001   15.340000      10.0000    195.0840
  322   3 Pt  78       7.500000   10.450001   15.240002      10.0000    195.0840
  323   3 Pt  78      10.100000   10.430001   15.150002      10.0000    195.0840
  324   3 Pt  78      -3.870000   10.380001   15.070000      10.0000    195.0840
  325   3 Pt  78      -1.180000   10.480001   15.119999      10.0000    195.0840
  326   3 Pt  78       1.750000   10.410000   15.119999      10.0000    195.0840
  327   3 Pt  78       4.600000   10.520000   15.340000      10.0000    195.0840
  328   3 Pt  78       8.710001   13.030001   15.190002      10.0000    195.0840
  329   3 Pt  78      -5.330000   12.770000   15.000000      10.0000    195.0840
  330   3 Pt  78      -2.480000   12.810000   15.230003      10.0000    195.0840
  331   3 Pt  78       0.390000   12.860001   15.250000      10.0000    195.0840
  332   3 Pt  78       3.170000   12.820001   15.340000      10.0000    195.0840
  333   3 Pt  78       5.960000   12.890000   15.400002      10.0000    195.0840
  334   3 Pt  78       0.320000    1.530000   17.570000      10.0000    195.0840
  335   3 Pt  78       3.010000    1.500000   17.619999      10.0000    195.0840
  336   3 Pt  78       5.880000    1.450000   17.670002      10.0000    195.0840
  337   3 Pt  78       8.680000    1.450000   17.700001      10.0000    195.0840
  338   3 Pt  78      11.570001    1.530000   17.740002      10.0000    195.0840
  339   3 Pt  78      14.410001    1.570000   17.709999      10.0000    195.0840
  340   3 Pt  78       1.610000    4.020000   17.610001      10.0000    195.0840
  341   3 Pt  78       4.510000    4.020000   17.570000      10.0000    195.0840
  342   3 Pt  78       7.320001    3.980000   17.660004      10.0000    195.0840
  343   3 Pt  78      10.190001    3.890000   17.849998      10.0000    195.0840
  344   3 Pt  78      12.930001    3.940000   17.720001      10.0000    195.0840
  345   3 Pt  78      -1.160000    3.900000   17.600002      10.0000    195.0840
  346   3 Pt  78       3.130000    6.450000   17.490002      10.0000    195.0840
  347   3 Pt  78       5.890000    6.430000   17.580002      10.0000    195.0840
  348   3 Pt  78       8.770000    6.360001   17.700001      10.0000    195.0840
  349   3 Pt  78      11.600000    6.370000   17.630001      10.0000    195.0840
  350   3 Pt  78      -2.530000    6.290000   17.590004      10.0000    195.0840
  351   3 Pt  78       0.260000    6.430000   17.580002      10.0000    195.0840
  352   3 Pt  78       4.450000    8.830000   17.630001      10.0000    195.0840
  353   3 Pt  78       7.270000    8.880001   17.580002      10.0000    195.0840
  354   3 Pt  78      10.110001    8.810000   17.540001      10.0000    195.0840
  355   3 Pt  78      -3.950000    8.700001   17.560001      10.0000    195.0840
  356   3 Pt  78      -1.150000    8.770000   17.480000      10.0000    195.0840
  357   3 Pt  78       1.610000    8.870000   17.500000      10.0000    195.0840
  358   3 Pt  78       5.840001   11.270000   17.670002      10.0000    195.0840
  359   3 Pt  78       8.620001   11.190001   17.490002      10.0000    195.0840
  360   3 Pt  78      -5.360000   11.320001   17.430000      10.0000    195.0840
  361   3 Pt  78      -2.450000   11.140001   17.450001      10.0000    195.0840
  362   3 Pt  78       0.280000   11.260000   17.480000      10.0000    195.0840
  363   3 Pt  78       2.980000   11.280001   17.619999      10.0000    195.0840
  364   3 Pt  78       7.280001   13.690001   17.650002      10.0000    195.0840
  365   3 Pt  78      -6.850000   13.640001   17.480000      10.0000    195.0840
  366   3 Pt  78      -4.000000   13.640001   17.560001      10.0000    195.0840
  367   3 Pt  78      -1.210000   13.610001   17.549999      10.0000    195.0840
  368   3 Pt  78       1.620000   13.720001   17.760002      10.0000    195.0840
  369   3 Pt  78       4.380000   13.750001   17.660004      10.0000    195.0840
  370   3 Pt  78      -8.240001   14.520000   19.860001      10.0000    195.0840
  371   3 Pt  78      -5.400000   14.520000   19.790001      10.0000    195.0840
  372   3 Pt  78      -2.580000   14.520000   19.870003      10.0000    195.0840
  373   3 Pt  78       0.100000   14.330001   19.980003      10.0000    195.0840
  374   3 Pt  78       3.020000   14.460001   19.990002      10.0000    195.0840
  375   3 Pt  78       5.810000   14.530001   20.000000      10.0000    195.0840
  376   3 Pt  78       1.610000    2.410000   19.850002      10.0000    195.0840
  377   3 Pt  78       4.410000    2.360000   19.950001      10.0000    195.0840
  378   3 Pt  78       7.210000    2.350000   19.980003      10.0000    195.0840
  379   3 Pt  78      10.000000    2.200000   20.000000      10.0000    195.0840
  380   3 Pt  78      12.880001    2.290000   20.010002      10.0000    195.0840
  381   3 Pt  78      -1.180000    2.320000   19.889999      10.0000    195.0840
  382   3 Pt  78       3.070000    4.870000   19.820000      10.0000    195.0840
  383   3 Pt  78       5.820000    4.810000   19.880001      10.0000    195.0840
  384   3 Pt  78       8.650001    4.830000   19.970001      10.0000    195.0840
  385   3 Pt  78      11.400002    4.690000   20.029999      10.0000    195.0840
  386   3 Pt  78      -2.710000    4.730000   19.920002      10.0000    195.0840
  387   3 Pt  78       0.290000    4.730000   19.910004      10.0000    195.0840
  388   3 Pt  78       4.450000    7.330000   19.930000      10.0000    195.0840
  389   3 Pt  78       7.220001    7.210000   19.880001      10.0000    195.0840
  390   3 Pt  78      10.020000    7.280001   19.900002      10.0000    195.0840
  391   3 Pt  78      -4.040000    7.220001   19.870003      10.0000    195.0840
  392   3 Pt  78      -1.190000    7.130001   19.930000      10.0000    195.0840
  393   3 Pt  78       1.630000    7.160000   19.850002      10.0000    195.0840
  394   3 Pt  78       5.820000    9.700001   19.850002      10.0000    195.0840
  395   3 Pt  78       8.670000    9.640000   19.800003      10.0000    195.0840
  396   3 Pt  78      -5.340000    9.720000   19.770000      10.0000    195.0840
  397   3 Pt  78      -2.560000    9.540001   19.820000      10.0000    195.0840
  398   3 Pt  78       0.360000    9.570000   19.860001      10.0000    195.0840
  399   3 Pt  78       3.010000    9.640000   19.940002      10.0000    195.0840
  400   3 Pt  78       7.190001   12.160001   19.920002      10.0000    195.0840
  401   3 Pt  78      -6.860001   12.070000   19.770000      10.0000    195.0840
  402   3 Pt  78      -3.990000   12.060001   19.860001      10.0000    195.0840
  403   3 Pt  78      -1.220000   11.910001   19.870003      10.0000    195.0840
  404   3 Pt  78       1.510000   12.050000   19.959999      10.0000    195.0840
  405   3 Pt  78       4.310000   12.150001   19.940002      10.0000    195.0840
  406   3 Pt  78       1.560000    0.740000   22.038000      10.0000    195.0840
  407   3 Pt  78       4.420000    0.630000   22.098000      10.0000    195.0840
  408   3 Pt  78       7.200000    0.690000   22.218000      10.0000    195.0840
  409   3 Pt  78       9.880000    0.620000   22.318000      10.0000    195.0840
  410   3 Pt  78      12.770000    0.620000   22.318000      10.0000    195.0840
  411   3 Pt  78      15.560001    0.690000   22.258000      10.0000    195.0840
  412   3 Pt  78       3.040000    3.090000   22.118000      10.0000    195.0840
  413   3 Pt  78       5.740000    3.130000   22.268000      10.0000    195.0840
  414   3 Pt  78       8.530001    3.220000   22.218000      10.0000    195.0840
  415   3 Pt  78      11.320001    3.090000   22.248000      10.0000    195.0840
  416   3 Pt  78      14.150001    3.120000   22.278000      10.0000    195.0840
  417   3 Pt  78       0.160000    3.050000   22.218000      10.0000    195.0840
  418   3 Pt  78       4.380000    5.560000   22.248000      10.0000    195.0840
  419   3 Pt  78       7.120000    5.670000   22.188000      10.0000    195.0840
  420   3 Pt  78       9.980000    5.680000   22.228000      10.0000    195.0840
  421   3 Pt  78      12.700001    5.520000   22.158000      10.0000    195.0840
  422   3 Pt  78      -1.210000    5.480001   22.128000      10.0000    195.0840
  423   3 Pt  78       1.610000    5.500000   22.178000      10.0000    195.0840
  424   3 Pt  78       5.780000    8.010000   22.178000      10.0000    195.0840
  425   3 Pt  78       8.540000    8.160001   22.208000      10.0000    195.0840
  426   3 Pt  78      11.430000    8.060000   22.188000      10.0000    195.0840
  427   3 Pt  78      -2.670000    7.960001   22.168000      10.0000    195.0840
  428   3 Pt  78       0.170000    7.900000   22.228000      10.0000    195.0840
  429   3 Pt  78       3.010000    7.980001   22.258000      10.0000    195.0840
  430   3 Pt  78       7.190001   10.550001   22.138000      10.0000    195.0840
  431   3 Pt  78      10.010000   10.470000   22.078000      10.0000    195.0840
  432   3 Pt  78      -4.000000   10.420000   22.098000      10.0000    195.0840
  433   3 Pt  78      -1.230000   10.390000   22.268000      10.0000    195.0840
  434   3 Pt  78       1.480000   10.480001   22.378000      10.0000    195.0840
  435   3 Pt  78       4.310000   10.460000   22.228000      10.0000    195.0840
  436   3 Pt  78       8.580000   12.930001   22.178000      10.0000    195.0840
  437   3 Pt  78      -5.510000   12.790001   22.018000      10.0000    195.0840
  438   3 Pt  78      -2.630000   12.840000   22.198000      10.0000    195.0840
  439   3 Pt  78       0.040000   12.780001   22.248000      10.0000    195.0840
  440   3 Pt  78       2.910000   12.890000   22.358000      10.0000    195.0840
  441   3 Pt  78       5.750000   12.920000   22.208000      10.0000    195.0840
  442   3 Pt  78       0.230000    1.390000   24.508000      10.0000    195.0840
  443   3 Pt  78       3.000000    1.460000   24.388000      10.0000    195.0840
  444   3 Pt  78       5.840001    1.530000   24.658000      10.0000    195.0840
  445   3 Pt  78       8.550000    1.550000   24.538000      10.0000    195.0840
  446   3 Pt  78      11.350001    1.450000   24.568000      10.0000    195.0840
  447   3 Pt  78      14.270000    1.540000   24.598000      10.0000    195.0840
  448   3 Pt  78       1.530000    3.890000   24.448000      10.0000    195.0840
  449   3 Pt  78       4.300000    3.930000   24.608000      10.0000    195.0840
  450   3 Pt  78       7.120000    4.040000   24.568000      10.0000    195.0840
  451   3 Pt  78       9.900001    3.970000   24.648000      10.0000    195.0840
  452   3 Pt  78      12.680000    3.930000   24.528000      10.0000    195.0840
  453   3 Pt  78      -1.320000    3.930000   24.478000      10.0000    195.0840
  454   3 Pt  78       2.900000    6.440001   24.488000      10.0000    195.0840
  455   3 Pt  78       5.700001    6.390000   24.438000      10.0000    195.0840
  456   3 Pt  78       8.600000    6.470000   24.508000      10.0000    195.0840
  457   3 Pt  78      11.360001    6.500000   24.498000      10.0000    195.0840
  458   3 Pt  78      -2.720000    6.310000   24.508000      10.0000    195.0840
  459   3 Pt  78       0.040000    6.430000   24.448000      10.0000    195.0840
  460   3 Pt  78       4.380000    8.860001   24.598000      10.0000    195.0840
  461   3 Pt  78       7.080000    8.880001   24.518000      10.0000    195.0840
  462   3 Pt  78       9.890000    8.880001   24.408000      10.0000    195.0840
  463   3 Pt  78      -4.020000    8.890000   24.448000      10.0000    195.0840
  464   3 Pt  78      -1.180000    8.880001   24.538000      10.0000    195.0840
  465   3 Pt  78       1.480000    8.730000   24.628000      10.0000    195.0840
  466   3 Pt  78       5.720000   11.290001   24.578000      10.0000    195.0840
  467   3 Pt  78       8.560000   11.230000   24.488000      10.0000    195.0840
  468   3 Pt  78      -5.430000   11.280001   24.408000      10.0000    195.0840
  469   3 Pt  78      -2.590000   11.310000   24.568000      10.0000    195.0840
  470   3 Pt  78       0.200000   11.310000   24.658000      10.0000    195.0840
  471   3 Pt  78       2.940000   11.170001   24.698000      10.0000    195.0840
  472   3 Pt  78       7.200000   13.830000   24.548000      10.0000    195.0840
  473   3 Pt  78      -6.830000   13.590001   24.518000      10.0000    195.0840
  474   3 Pt  78      -4.010000   13.660001   24.448000      10.0000    195.0840
  475   3 Pt  78      -1.320000   13.780001   24.568000      10.0000    195.0840
  476   3 Pt  78       1.570000   13.640001   24.678000      10.0000    195.0840
  477   3 Pt  78       4.320000   13.660001   24.578000      10.0000    195.0840
  478   3 Pt  78      -8.310000   14.620000   26.968000      10.0000    195.0840
  479   3 Pt  78      -5.550000   14.680000   26.848000      10.0000    195.0840
  480   3 Pt  78      -2.610000   14.750000   26.978000      10.0000    195.0840
  481   3 Pt  78       0.300000   14.550000   26.928000      10.0000    195.0840
  482   3 Pt  78       2.930000   14.430000   27.098000      10.0000    195.0840
  483   3 Pt  78       5.690000   14.560001   26.918000      10.0000    195.0840
  484   3 Pt  78       1.470000    2.400000   26.798000      10.0000    195.0840
  485   3 Pt  78       4.340000    2.400000   27.068000      10.0000    195.0840
  486   3 Pt  78       7.210000    2.400000   26.918000      10.0000    195.0840
  487   3 Pt  78       9.980000    2.300000   26.978000      10.0000    195.0840
  488   3 Pt  78      12.620001    2.310000   26.988000      10.0000    195.0840
  489   3 Pt  78      -1.430000    2.460000   27.028000      10.0000    195.0840
  490   3 Pt  78       3.060000    4.820000   26.808000      10.0000    195.0840
  491   3 Pt  78       5.760000    4.910000   26.838000      10.0000    195.0840
  492   3 Pt  78       8.520000    4.810000   26.998000      10.0000    195.0840
  493   3 Pt  78      11.400002    4.870000   26.988000      10.0000    195.0840
  494   3 Pt  78      -2.820000    4.800000   26.868000      10.0000    195.0840
  495   3 Pt  78       0.010000    4.700000   26.668000      10.0000    195.0840
  496   3 Pt  78       4.260000    7.330000   26.828000      10.0000    195.0840
  497   3 Pt  78       7.190001    7.330000   26.848000      10.0000    195.0840
  498   3 Pt  78       9.920000    7.400000   26.808000      10.0000    195.0840
  499   3 Pt  78      -4.060000    7.200000   26.778000      10.0000    195.0840
  500   3 Pt  78      -1.300000    7.210000   26.908000      10.0000    195.0840
  501   3 Pt  78       1.540000    7.190001   26.918000      10.0000    195.0840
  502   3 Pt  78       5.770000    9.660000   26.848000      10.0000    195.0840
  503   3 Pt  78       8.550000    9.820001   26.898000      10.0000    195.0840
  504   3 Pt  78      -5.470000    9.650001   26.668000      10.0000    195.0840
  505   3 Pt  78      -2.760000    9.590000   26.818000      10.0000    195.0840
[...]
 -                                                                             -
 -                                DBCSR STATISTICS                             -
 -                                                                             -
 -------------------------------------------------------------------------------
 COUNTER                                    TOTAL       BLAS       SMM       ACC
 flops     5 x     5 x   120           6025446000       0.0%    100.0%      0.0%
 flops     5 x    13 x   120           7670379600       0.0%    100.0%      0.0%
 flops    13 x     5 x   120           7679926800       0.0%    100.0%      0.0%
 flops    13 x    13 x   120           9203023440       0.0%    100.0%      0.0%
 flops     5 x     5 x    96           9640713600       0.0%    100.0%      0.0%
 flops     5 x    13 x    96          12272607360       0.0%    100.0%      0.0%
 flops    13 x     5 x    96          12287882880       0.0%    100.0%      0.0%
 flops    20 x    13 x   120          13175136000       0.0%    100.0%      0.0%
 flops    13 x    20 x   120          13184683200       0.0%    100.0%      0.0%
 flops     5 x    20 x   120          14047848000       0.0%    100.0%      0.0%
 flops    20 x     5 x   120          14051520000       0.0%    100.0%      0.0%
 flops    13 x    13 x    96          14724837504       0.0%    100.0%      0.0%
 flops    20 x    13 x    96          21080217600       0.0%    100.0%      0.0%
 flops    13 x    20 x    96          21095493120       0.0%    100.0%      0.0%
 flops     5 x    20 x    96          22476556800       0.0%    100.0%      0.0%
 flops    20 x     5 x    96          22482432000       0.0%    100.0%      0.0%
 flops     5 x     5 x   128          83552851200       0.0%    100.0%      0.0%
 flops     5 x    13 x   128         106362597120       0.0%    100.0%      0.0%
 flops    13 x     5 x   128         106494984960       0.0%    100.0%      0.0%
 flops    20 x    20 x   120         114742656000       0.0%    100.0%      0.0%
 flops    13 x    13 x   128         127615258368       0.0%    100.0%      0.0%
 flops    20 x    13 x   128         182695219200       0.0%    100.0%      0.0%
 flops    13 x    20 x   128         182827607040       0.0%    100.0%      0.0%
 flops    20 x    20 x    96         183588249600       0.0%    100.0%      0.0%
 flops     5 x    20 x   128         194796825600       0.0%    100.0%      0.0%
 flops    20 x     5 x   128         194847744000       0.0%    100.0%      0.0%
 flops    20 x    20 x   128        1591098163200       0.0%    100.0%      0.0%
 flops inhomo. stacks                           0       0.0%      0.0%      0.0%
 flops total                         3.289721E+12       0.0%    100.0%      0.0%
 flops max/rank                     29.330250E+09       0.0%    100.0%      0.0%
 matmuls inhomo. stacks                         0       0.0%      0.0%      0.0%
 matmuls total                           80057760       0.0%    100.0%      0.0%
 number of processed stacks                935136       0.0%    100.0%      0.0%
 average stack size                                     0.0      85.6       0.0
 marketing flops                     6.823998E+12
 -------------------------------------------------------------------------------
 # multiplications                             51
 max memory usage/rank               1.632600E+09
 # max total images/rank                        2
 # max 3D layers                                1
 # MPI messages exchanged                  189312
 MPI messages size (bytes):
  total size                       117.008187E+09
  min size                         314.880000E+03
  max size                         845.824000E+03
  average size                     618.070625E+03
 MPI breakdown and total messages size (bytes):
             size <=      128                   0                        0
       128 < size <=     8192                   0                        0
      8192 < size <=    32768                   0                        0
     32768 < size <=   131072                   0                        0
    131072 < size <=  4194304              189312             117008191872
   4194304 < size <= 16777216                   0                        0
  16777216 < size                               0                        0
 -------------------------------------------------------------------------------

 *** WARNING in dbcsr_mm.F:290 :: Using a non-square number of MPI ranks ***
 *** might lead to poor performance. Used ranks: 128 Suggested: 121 256  ***

 -------------------------------------------------------------------------------
 -                                                                             -
 -                      DBCSR MESSAGE PASSING PERFORMANCE                      -
 -                                                                             -
 -------------------------------------------------------------------------------
 ROUTINE             CALLS      AVE VOLUME [Bytes]
 MP_Bcast               28                     12.
 MP_Allreduce          431                     11.
 MP_Alltoall          1440                 590539.
 MP_ISend             3264                 293400.
 MP_IRecv             3264                 286792.
 -------------------------------------------------------------------------------

 -------------------------------------------------------------------------------
 -                                                                             -
 -                                DBM STATISTICS                               -
 -                                                                             -
 -------------------------------------------------------------------------------
    M  x    N  x    K                                          COUNT     PERCENT
 -------------------------------------------------------------------------------

 -------------------------------------------------------------------------------
 -                                                                             -
 -                                GRID STATISTICS                              -
 -                                                                             -
 -------------------------------------------------------------------------------
 LP    KERNEL             BACKEND                              COUNT     PERCENT
 4     collocate general  REF                               20670810      22.28%
 4     integrate general  REF                               20544100      22.14%
 3     collocate general  REF                               14208600      15.31%
 3     integrate general  REF                               14153222      15.25%
 2     collocate general  REF                               11384322      12.27%
 2     integrate general  REF                               11161100      12.03%
 5     integrate general  REF                                 405310       0.44%
 0     collocate general  REF                                 131328       0.14%
 0     integrate general  REF                                  65664       0.07%
 1     integrate general  REF                                  65664       0.07%
 -------------------------------------------------------------------------------

 MEMORY| Estimated peak process memory [MiB]                                1812

 -------------------------------------------------------------------------------
 ----                             MULTIGRID INFO                            ----
 -------------------------------------------------------------------------------
 count for grid        1:        1095732          cutoff [a.u.]          200.00
 count for grid        2:        1090505          cutoff [a.u.]           66.67
 count for grid        3:         714416          cutoff [a.u.]           22.22
 count for grid        4:         551802          cutoff [a.u.]            7.41
 total gridlevel count  :        3452455

 -------------------------------------------------------------------------------
 -                                                                             -
 -                         MESSAGE PASSING PERFORMANCE                         -
 -                                                                             -
 -------------------------------------------------------------------------------

 ROUTINE             CALLS      AVE VOLUME [Bytes]
 MP_Group                4
 MP_Bcast              256                2228108.
 MP_Allreduce         3715                  29050.
 MP_Sync               106
 MP_Alltoall          3082               16339417.
 MP_SendRecv           508                   6237.
 MP_ISendRecv        25908                  61740.
 MP_Wait             45750
 MP_comm_split          51
 MP_ISend            18700                 255985.
 MP_IRecv            18700                 255985.
 MP_Recv               183                1688832.
 MP_Write_All            3                1797408.
 -------------------------------------------------------------------------------


 -------------------------------------------------------------------------------
 -                                                                             -
 -                           R E F E R E N C E S                               -
 -                                                                             -
 -------------------------------------------------------------------------------
 
 CP2K version 2022.1, the CP2K developers group (2022).
 CP2K is freely available from https://www.cp2k.org/ .

 Kuehne,Thomas D.; Iannuzzi,Marcella; Del Ben,Mauro;
 Rybkin,Vladimir V.; Seewald,Patrick; Stein,Frederick; Laino,Teodoro;
 Khaliullin,Rustam Z.; Schuett,Ole; Schiffmann,Florian; Golze,Dorothea;
 Wilhelm,Jan; Chulkov,Sergey; Bani-Hashemian,Mohammad Hossein;
 Weber,Valery; Borstnik,Urban; Taillefumier,Mathieu;
 Jakobovits,Alice Shoshana; Lazzaro,Alfio; Pabst,Hans; Mueller,Tiziano;
 Schade,Robert; Guidon,Manuel; Andermatt,Samuel; Holmberg,Nico;
 Schenter,Gregory K.; Hehn,Anna; Bussy,Augustin; Belleflamme,Fabian;
 Tabacchi,Gloria; Gloess,Andreas; Lass,Michael; Bethune,Iain;
 Mundy,Christopher J.; Plessl,Christian; Watkins,Matt;
 VandeVondele,Joost; Krack,Matthias; Hutter,Juerg. 
 The Journal of Chemical Physics, 152 (19), (2020). 
 CP2K: An electronic structure and molecular dynamics software package -
 Quickstep: Efficient and accurate electronic structure calculations.
 https://doi.org/10.1063/5.0007045

 Goerigk, Lars; Hansen, Andreas; Bauer, Christoph; Ehrlich, Stephan;
 Najibi, Asim; Grimme, Stefan. , 19 (48), (2017). 
 A look at the density functional theory zoo with the advanced GMTKN55 database
 for general main group thermochemistry, kinetics and noncovalent interactions.
 https://doi.org/10.1039/C7CP04913G

 Bani-Hashemian, MH; Bruck, S; Luisier, M; VandeVondele, J. 
 JOURNAL OF CHEMICAL PHYSICS, 144 (4), 044113 (2016). 
 A generalized Poisson solver for first-principles device simulations.
 https://doi.org/10.1063/1.4940796

 Schuett, Ole; Messmer, Peter; Hutter, Juerg; VandeVondele, Joost. 
 Electronic Structure Calculations on Graphics Processing Units, John
 Wiley & Sons, Ltd, 173-190 (2016). 
 GPU-Accelerated Sparse Matrix-Matrix Multiplication for
 Linear Scaling Density Functional Theory.
 https://doi.org/10.1002/9781118670712.ch8

 Heinecke, A; Henry, G; Hutchinson, M; Pabst, H. 
 Proceedings of Intl. Supercomputing Conference, 981-991 (2016). 
 LIBXSMM: Accelerating Small Matrix Multiplications
 by Runtime Code Generation.
 https://doi.org/10.1109/SC.2016.83

 Borstnik, U; VandeVondele, J; Weber, V; Hutter, J. 
 PARALLEL COMPUTING, 40 (5-6), 47-58 (2014). 
 Sparse matrix multiplication: The distributed block-compressed sparse
 row library.
 https://doi.org/10.1016/j.parco.2014.03.012

 Hutter, J; Iannuzzi, M; Schiffmann, F; VandeVondele, J. 
 WIREs Comput Mol Sci., 4 (1), 15-25 (2014). 
 CP2K: atomistic simulations of condensed matter systems.
 https://doi.org/10.1002/wcms.1159

 Marek, A; Blum, V; Johanni, R; Havu, V; Lang, B; Auckenthaler, T;
 Heinecke, A; Bungartz, H; Lederer, H. 
 Journal of Physics: Condensed Matter, 26 (21), (2014). 
 The ELPA library: scalable parallel eigenvalue solutions for
 electronic structure
 theory and computational science.
 https://doi.org/10.1088/0953-8984/26/21/213201

 Grimme, S; Ehrlich, S; Goerigk, L. 
 JOURNAL OF COMPUTATIONAL CHEMISTRY, 32, 1456 (2011). 
 Effect of the damping function in dispersion corrected density functional theory.
 https://doi.org/10.1002/jcc.21759

 Grimme, S; Antony, J; Ehrlich, S; Krieg, H. 
 JOURNAL OF CHEMICAL PHYSICS, 132 (15), 154104 (2010). 
 A consistent and accurate ab initio parametrization of density
 functional dispersion correction (DFT-D) for the 94 elements H-Pu.
 https://doi.org/10.1063/1.3382344

 VandeVondele, J; Hutter, J. 
 JOURNAL OF CHEMICAL PHYSICS, 127 (11), 114105 (2007). 
 Gaussian basis sets for accurate calculations on molecular systems in
 gas and condensed phases.
 https://doi.org/10.1063/1.2770708

 Krack, M. 
 THEORETICAL CHEMISTRY ACCOUNTS, 114 (1-3), 145-152 (2005). 
 Pseudopotentials for H to Kr optimized for gradient-corrected
 exchange-correlation functionals.
 https://doi.org/10.1007/s00214-005-0655-y

 VandeVondele, J; Krack, M; Mohamed, F; Parrinello, M; Chassaing, T;
 Hutter, J. COMPUTER PHYSICS COMMUNICATIONS, 167 (2), 103-128 (2005). 
 QUICKSTEP: Fast and accurate density functional calculations using a
 mixed Gaussian and plane waves approach.
 https://doi.org/10.1016/j.cpc.2004.12.014

 Frigo, M; Johnson, SG. 
 PROCEEDINGS OF THE IEEE, 93 (2), 216-231 (2005). 
 The design and implementation of FFTW3.
 https://doi.org/10.1109/JPROC.2004.840301

 Hartwigsen, C; Goedecker, S; Hutter, J. 
 PHYSICAL REVIEW B, 58 (7), 3641-3662 (1998). 
 Relativistic separable dual-space Gaussian pseudopotentials from H to Rn.
 https://doi.org/10.1103/PhysRevB.58.3641

 Lippert, G; Hutter, J; Parrinello, M. 
 MOLECULAR PHYSICS, 92 (3), 477-487 (1997). 
 A hybrid Gaussian and plane wave density functional scheme.
 https://doi.org/10.1080/002689797170220

 Perdew, JP; Burke, K; Ernzerhof, M. 
 PHYSICAL REVIEW LETTERS, 77 (18), 3865-3868 (1996). 
 Generalized gradient approximation made simple.
 https://doi.org/10.1103/PhysRevLett.77.3865

 Goedecker, S; Teter, M; Hutter, J. 
 PHYSICAL REVIEW B, 54 (3), 1703-1710 (1996). 
 Separable dual-space Gaussian pseudopotentials.
 https://doi.org/10.1103/PhysRevB.54.1703


 -------------------------------------------------------------------------------
 -                                                                             -
 -                                T I M I N G                                  -
 -                                                                             -
 -------------------------------------------------------------------------------
 SUBROUTINE                       CALLS  ASD         SELF TIME        TOTAL TIME
                                MAXIMUM       AVERAGE  MAXIMUM  AVERAGE  MAXIMUM
 CP2K                                 1  1.0    0.125    0.139  358.419  358.421
 qs_forces                            1  2.0    0.002    0.003  357.962  357.964
 qs_energies                          1  3.0    0.000    0.001  351.754  351.759
 scf_env_do_scf                       1  4.0    0.000    0.000  343.395  343.534
 scf_env_do_scf_inner_loop           50  5.0    0.003    0.007  343.395  343.534
 rebuild_ks_matrix                   51  6.9    0.000    0.000  184.038  184.092
 qs_ks_build_kohn_sham_matrix        51  7.9    0.008    0.009  184.038  184.091
 qs_ks_update_qs_env                 50  6.0    0.000    0.001  179.996  180.049
 pw_transfer                       2656 12.2    0.194    0.265  115.731  117.884
 fft_wrap_pw1pw2                   2656 13.2    0.026    0.031  115.538  117.679
 fft_wrap_pw1pw2_200               2350 14.4    7.834    9.249  113.886  116.034
 pw_poisson_solve                    51  8.9    0.005    0.013   99.451   99.494
 qs_scf_new_mos                      50  6.0    0.002    0.006   97.806   97.959
 fft3d_ps                          2656 15.2   33.482   37.356   92.781   96.067
 implicit_poisson_solver_mixed_      51  9.9    2.106    2.624   94.278   94.342
 eigensolver                         50  7.0    0.004    0.007   92.195   92.521
 derive_fft                         306 12.1    0.019    0.024   66.147   66.336
 cp_fm_diag_elpa                     51  8.0    0.001    0.001   64.489   64.661
 cp_fm_redistribute_end              51  9.0    8.446   63.830    8.546   63.888
 cp_fm_diag_elpa_base                51  9.0   54.484   62.395   55.032   63.016
 mp_alltoall_z22v                  2656 17.2   49.462   61.194   49.462   61.194
 qs_rho_update_rho_low               51  6.0    0.000    0.000   57.823   57.845
 calculate_rho_elec                  51  7.0    0.099    0.135   57.822   57.844
 apply_P_operator                   255 11.1    1.358    1.526   56.577   56.742
 sum_up_and_integrate                51  8.9    0.278    0.346   56.406   56.460
 integrate_v_rspace                  51  9.9    0.002    0.003   56.128   56.254
 grid_collocate_task_list            51  8.0   36.974   45.071   36.974   45.071
 grid_integrate_task_list            51 10.9   34.330   40.913   34.330   40.913
 x_to_yz                           1531 16.4    6.515    8.341   37.491   39.225
 rs_pw_transfer                     412 10.4    0.005    0.008   25.621   30.094
 cp_fm_triangular_multiply          150  8.0   28.917   29.337   28.917   29.337
 yz_to_x                            819 16.4    2.243    2.660   20.521   28.140
 qs_vxc_create                       51  8.9    0.001    0.002   25.233   25.557
 xc_vxc_pw_create                    51  9.9    0.435    0.538   25.232   25.556
 density_rs2pw                       51  8.0    0.003    0.004   19.595   24.038
 xc_pw_derive                       306 11.9    0.005    0.006   17.789   19.734
 apply_poisson_operator_fft          51 10.9    0.001    0.001   16.541   16.820
 mp_waitany                       18700 12.4   11.671   16.244   11.671   16.244
 rs_pw_transfer_RS2PW_200            53  9.9    3.409    4.003   11.533   15.950
 apply_inv_laplace_operator_fft     155 11.6    0.387    0.442   15.150   15.694
 potential_pw2rs                     51 10.9    0.015    0.017   14.618   14.738
 xc_pw_divergence                    51 10.9    0.003    0.003   12.016   13.466
 xc_rho_set_and_dset_create          51 10.9    0.253    0.314   12.321   13.085
 mp_alltoall_d11v                   721 10.2    8.742   12.918    8.742   12.918
 ps_implicit_compute_error_fft      102 10.9    0.641    0.779   11.106   11.960
 ps_implicit_compute_veps            51 10.9    0.295    0.353   11.227   11.423
 rs_gather_matrices                  51 10.9    0.063    0.083    7.167   11.405
 pw_scatter_p                      1684 15.4    9.483   10.955    9.483   10.955
 rs_pw_transfer_PW2RS_200            53 12.8    4.021    4.514    8.393    8.585
 gspace_mixing                       49  6.0    0.093    0.120    8.571    8.573
 pw_derive                         1224 13.1    7.744    8.349    7.744    8.349
 -------------------------------------------------------------------------------

 The number of warnings for this run is : 1
 
 -------------------------------------------------------------------------------
  **** **** ******  **  PROGRAM ENDED AT                 2023-12-01 23:46:43.044
 ***** ** ***  *** **   PROGRAM RAN ON                                     cu064
 **    ****   ******    PROGRAM RAN BY                                     jxzhu
 ***** **    ** ** **   PROGRAM PROCESS ID                                  8440
  **** **  *******  **  PROGRAM STOPPED IN /public/home/jxzhu/tmp_calc/3edb35e2c
                                           f1a23eae6d286f9f7c88bafec2d2c0b/calc/
                                           000300.000/search_lo.000000
