 DBCSR| CPU Multiplication driver                                           XSMM
 DBCSR| Multrec recursion limit                                              512
 DBCSR| Multiplication stack size                                           1000
 DBCSR| Maximum elements for images                                    UNLIMITED
 DBCSR| Multiplicative factor virtual images                                   1
 DBCSR| Use multiplication densification                                       T
 DBCSR| Multiplication size stacks                                             3
 DBCSR| Use memory pool for CPU allocation                                     F
 DBCSR| Number of 3D layers                                               SINGLE
 DBCSR| Use MPI memory allocation                                              F
 DBCSR| Use RMA algorithm                                                      F
 DBCSR| Use Communication thread                                               T
 DBCSR| Communication thread load                                             87
 DBCSR| MPI: My node id                                                        0
 DBCSR| MPI: Number of nodes                                                 128
 DBCSR| OMP: Current number of threads                                         1
 DBCSR| OMP: Max number of threads                                             1
 DBCSR| Split modifier for TAS multiplication algorithm                  1.0E+00


  **** **** ******  **  PROGRAM STARTED AT               2023-12-02 05:12:43.828
 ***** ** ***  *** **   PROGRAM STARTED ON                                 cu062
 **    ****   ******    PROGRAM STARTED BY                                 jxzhu
 ***** **    ** ** **   PROGRAM PROCESS ID                                 64302
  **** **  *******  **  PROGRAM STARTED IN /public/home/jxzhu/tmp_calc/e3b2e4eb0
                                           f532a6145e0443a1337f052fbc02445/calc/
                                           000800.000/search_lo.000000

 CP2K| version string:                                       CP2K version 2022.1
 CP2K| source code revision number:                                  git:2caeb6f
 CP2K| cp2kflags: omp libint fftw3 libxc elpa parallel mpi3 scalapack cosma xsmm
 CP2K|             plumed2 spglib mkl sirius libvori libbqb
 CP2K| is freely available from                            https://www.cp2k.org/
 CP2K| Program compiled at                           Mon Jul 3 17:37:06 CST 2023
 CP2K| Program compiled on                                                 mu003
 CP2K| Program compiled for                                                local
 CP2K| Data directory path                             /public/home/jxzhu/basis/
 CP2K| Input file name                                                 input.inp
 
 GLOBAL| Force Environment number                                              1
 GLOBAL| Basis set file name                                        BASIS_MOLOPT
 GLOBAL| Potential file name                                      GTH_POTENTIALS
 GLOBAL| MM Potential file name                                     MM_POTENTIAL
 GLOBAL| Coordinate file name                                          coord.xyz
 GLOBAL| Method name                                                        CP2K
 GLOBAL| Project name                                                       cp2k
 GLOBAL| Run type                                                   ENERGY_FORCE
 GLOBAL| FFT library                                                       FFTW3
 GLOBAL| Diagonalization library                                            ELPA
 GLOBAL| Minimum number of eigenvectors for ELPA usage                        16
 GLOBAL| Orthonormality check for eigenvectors                          DISABLED
 GLOBAL| Matrix multiplication library                                     COSMA
 GLOBAL| All-to-all communication in single precision                          F
 GLOBAL| FFTs using library dependent lengths                                  T
 GLOBAL| Grid backend                                                       AUTO
 GLOBAL| Global print level                                               MEDIUM
 GLOBAL| MPI I/O enabled                                                       T
 GLOBAL| Total number of message passing processes                           128
 GLOBAL| Number of threads for this process                                    1
 GLOBAL| This output is from process                                           0
 GLOBAL| Stack size for threads created by OpenMP (OMP_STACKSIZE)        default
 GLOBAL| CPU model name                 Intel(R) Xeon(R) Gold 6338 CPU @ 2.00GHz
 GLOBAL| CPUID                                                              1003

 MEMORY| system memory details [Kb]
 MEMORY|                        rank 0           min           max       average
 MEMORY| MemTotal            263619172     263619168     263619172     263619170
 MEMORY| MemFree             190552368     190552120     193969396     192260877
 MEMORY| Buffers                  3320            44          3320          1682
 MEMORY| Cached                1640544        951120       1640544       1295832
 MEMORY| Slab                  2011752       1826924       2011752       1919338
 MEMORY| SReclaimable           248516        227096        248516        237806
 MEMORY| MemLikelyFree       192444748     192444500     195147656     193796197


 *** Fundamental physical constants (SI units) ***

 *** Literature: B. J. Mohr and B. N. Taylor,
 ***             CODATA recommended values of the fundamental physical
 ***             constants: 2006, Web Version 5.1
 ***             http://physics.nist.gov/constants

 Speed of light in vacuum [m/s]                             2.99792458000000E+08
 Magnetic constant or permeability of vacuum [N/A**2]       1.25663706143592E-06
 Electric constant or permittivity of vacuum [F/m]          8.85418781762039E-12
 Planck constant (h) [J*s]                                  6.62606896000000E-34
 Planck constant (h-bar) [J*s]                              1.05457162825177E-34
 Elementary charge [C]                                      1.60217648700000E-19
 Electron mass [kg]                                         9.10938215000000E-31
 Electron g factor [ ]                                     -2.00231930436220E+00
 Proton mass [kg]                                           1.67262163700000E-27
 Fine-structure constant                                    7.29735253760000E-03
 Rydberg constant [1/m]                                     1.09737315685270E+07
 Avogadro constant [1/mol]                                  6.02214179000000E+23
 Boltzmann constant [J/K]                                   1.38065040000000E-23
 Atomic mass unit [kg]                                      1.66053878200000E-27
 Bohr radius [m]                                            5.29177208590000E-11

 *** Conversion factors ***

 [u] -> [a.u.]                                              1.82288848426455E+03
 [Angstrom] -> [Bohr] = [a.u.]                              1.88972613288564E+00
 [a.u.] = [Bohr] -> [Angstrom]                              5.29177208590000E-01
 [a.u.] -> [s]                                              2.41888432650478E-17
 [a.u.] -> [fs]                                             2.41888432650478E-02
 [a.u.] -> [J]                                              4.35974393937059E-18
 [a.u.] -> [N]                                              8.23872205491840E-08
 [a.u.] -> [K]                                              3.15774647902944E+05
 [a.u.] -> [kJ/mol]                                         2.62549961709828E+03
 [a.u.] -> [kcal/mol]                                       6.27509468713739E+02
 [a.u.] -> [Pa]                                             2.94210107994716E+13
 [a.u.] -> [bar]                                            2.94210107994716E+08
 [a.u.] -> [atm]                                            2.90362800883016E+08
 [a.u.] -> [eV]                                             2.72113838565563E+01
 [a.u.] -> [Hz]                                             6.57968392072181E+15
 [a.u.] -> [1/cm] (wave numbers)                            2.19474631370540E+05
 [a.u./Bohr**2] -> [1/cm]                                   5.14048714338585E+03
 

 CELL_TOP| Volume [angstrom^3]:                                     17614.982639
 CELL_TOP| Vector a [angstrom    16.869     0.000     0.000   |a| =    16.869000
 CELL_TOP| Vector b [angstrom    -8.434    14.609     0.000   |b| =    16.869015
 CELL_TOP| Vector c [angstrom     0.000     0.000    71.478   |c| =    71.478000
 CELL_TOP| Angle (b,c), alpha [degree]:                                90.000000
 CELL_TOP| Angle (a,c), beta  [degree]:                                90.000000
 CELL_TOP| Angle (a,b), gamma [degree]:                               119.999970
 CELL_TOP| Numerically orthorhombic:                                          NO
 
 GENERATE|  Preliminary Number of Bonds generated:                             0
 GENERATE|  Achieved consistency in connectivity generation.

 CELL| Volume [angstrom^3]:                                         17614.982639
 CELL| Vector a [angstrom]:      16.869     0.000     0.000   |a| =    16.869000
 CELL| Vector b [angstrom]:      -8.434    14.609     0.000   |b| =    16.869015
 CELL| Vector c [angstrom]:       0.000     0.000    71.478   |c| =    71.478000
 CELL| Angle (b,c), alpha [degree]:                                    90.000000
 CELL| Angle (a,c), beta  [degree]:                                    90.000000
 CELL| Angle (a,b), gamma [degree]:                                   119.999970
 CELL| Numerically orthorhombic:                                              NO

 CELL_REF| Volume [angstrom^3]:                                     17614.982639
 CELL_REF| Vector a [angstrom    16.869     0.000     0.000   |a| =    16.869000
 CELL_REF| Vector b [angstrom    -8.434    14.609     0.000   |b| =    16.869015
 CELL_REF| Vector c [angstrom     0.000     0.000    71.478   |c| =    71.478000
 CELL_REF| Angle (b,c), alpha [degree]:                                90.000000
 CELL_REF| Angle (a,c), beta  [degree]:                                90.000000
 CELL_REF| Angle (a,b), gamma [degree]:                               119.999970
 CELL_REF| Numerically orthorhombic:                                          NO

 *******************************************************************************
 *******************************************************************************
 **                                                                           **
 **     #####                         ##              ##                      **
 **    ##   ##            ##          ##              ##                      **
 **   ##     ##                       ##            ######                    **
 **   ##     ##  ##   ##  ##   #####  ##  ##   ####   ##    #####    #####    **
 **   ##     ##  ##   ##  ##  ##      ## ##   ##      ##   ##   ##  ##   ##   **
 **   ##  ## ##  ##   ##  ##  ##      ####     ###    ##   ######   ######    **
 **    ##  ###   ##   ##  ##  ##      ## ##      ##   ##   ##       ##        **
 **     #######   #####   ##   #####  ##  ##  ####    ##    #####   ##        **
 **           ##                                                    ##        **
 **                                                                           **
 **                                                ... make the atoms dance   **
 **                                                                           **
 **            Copyright (C) by CP2K developers group (2000-2022)             **
 **                      J. Chem. Phys. 152, 194103 (2020)                    **
 **                                                                           **
 *******************************************************************************

 DFT| Spin restricted Kohn-Sham (RKS) calculation                            RKS
 DFT| Multiplicity                                                             1
 DFT| Number of spin states                                                    1
 DFT| Charge                                                                   0
 DFT| Self-interaction correction (SIC)                                       NO
 DFT| Cutoffs: density                                              1.000000E-10
 DFT|          gradient                                             1.000000E-10
 DFT|          tau                                                  1.000000E-10
 DFT|          cutoff_smoothing_range                               0.000000E+00
 DFT| XC density smoothing                                                  NONE
 DFT| XC derivatives                                                          PW

 FUNCTIONAL| PBE:
 FUNCTIONAL| J.P.Perdew, K.Burke, M.Ernzerhof, Phys. Rev. Letter, vol. 77, n 18,
 FUNCTIONAL|  pp. 3865-3868, (1996){spin unpolarized}                           

 vdW POTENTIAL|                                                   Pair Potential
 vdW POTENTIAL|          DFT-D3 (Version 3.1)
 vdW POTENTIAL|          Potential Form: S. Grimme et al, JCP 132: 154104 (2010)
 vdW POTENTIAL|          Zero Damping
 vdW POTENTIAL|          Cutoff Radius [Bohr]:                             20.00
 vdW POTENTIAL|          s6 Scaling Factor:                               1.0000
 vdW POTENTIAL|          sr6 Scaling Factor:                              1.2170
 vdW POTENTIAL|          s8 Scaling Factor:                               0.7220
 vdW POTENTIAL|          Cutoff for CN calculation:                   0.1000E-05

 QS| Method:                                                                 GPW
 QS| Density plane wave grid type                        NON-SPHERICAL FULLSPACE
 QS| Number of grid levels:                                                    4
 QS| Density cutoff [a.u.]:                                                200.0
 QS| Multi grid cutoff [a.u.]: 1) grid level                               200.0
 QS|                           2) grid level                                66.7
 QS|                           3) grid level                                22.2
 QS|                           4) grid level                                 7.4
 QS| Grid level progression factor:                                          3.0
 QS| Relative density cutoff [a.u.]:                                        20.0
 QS| Interaction thresholds: eps_pgf_orb:                                3.2E-07
 QS|                         eps_filter_matrix:                          0.0E+00
 QS|                         eps_core_charge:                            1.0E-15
 QS|                         eps_rho_gspace:                             1.0E-13
 QS|                         eps_rho_rspace:                             1.0E-13
 QS|                         eps_gvg_rspace:                             3.2E-07
 QS|                         eps_ppl:                                    1.0E-02
 QS|                         eps_ppnl:                                   3.2E-09


 ATOMIC KIND INFORMATION

  1. Atomic kind: O                                     Number of atoms:     100

     Orbital Basis Set                                        DZVP-MOLOPT-SR-GTH

       Number of orbital shell sets:                                           1
       Number of orbital shells:                                               5
       Number of primitive Cartesian functions:                                5
       Number of Cartesian basis functions:                                   14
       Number of spherical basis functions:                                   13
       Norm type:                                                              2

       Normalised Cartesian orbitals:

                        Set   Shell   Orbital            Exponent    Coefficient

                          1       1    2s               10.389228       0.396646
                                                         3.849621       0.208811
                                                         1.388401      -0.301641
                                                         0.496955      -0.274061
                                                         0.162492      -0.033677

                          1       2    3s               10.389228       0.303673
                                                         3.849621       0.240943
                                                         1.388401      -0.313066
                                                         0.496955      -0.043055
                                                         0.162492       0.213991

                          1       3    3px              10.389228      -1.530415
                                                         3.849621      -1.371928
                                                         1.388401      -0.761951
                                                         0.496955      -0.253695
                                                         0.162492      -0.035541
                          1       3    3py              10.389228      -1.530415
                                                         3.849621      -1.371928
                                                         1.388401      -0.761951
                                                         0.496955      -0.253695
                                                         0.162492      -0.035541
                          1       3    3pz              10.389228      -1.530415
                                                         3.849621      -1.371928
                                                         1.388401      -0.761951
                                                         0.496955      -0.253695
                                                         0.162492      -0.035541

                          1       4    4px              10.389228      -0.565392
                                                         3.849621      -0.038231
                                                         1.388401      -0.382373
                                                         0.496955       0.179070
                                                         0.162492       0.122714
                          1       4    4py              10.389228      -0.565392
                                                         3.849621      -0.038231
                                                         1.388401      -0.382373
                                                         0.496955       0.179070
                                                         0.162492       0.122714
                          1       4    4pz              10.389228      -0.565392
                                                         3.849621      -0.038231
                                                         1.388401      -0.382373
                                                         0.496955       0.179070
                                                         0.162492       0.122714

                          1       5    4dx2             10.389228       1.867377
                                                         3.849621       0.670994
                                                         1.388401       1.353441
                                                         0.496955       0.273538
                                                         0.162492       0.006620
                          1       5    4dxy             10.389228       3.234392
                                                         3.849621       1.162195
                                                         1.388401       2.344229
                                                         0.496955       0.473781
                                                         0.162492       0.011466
                          1       5    4dxz             10.389228       3.234392
                                                         3.849621       1.162195
                                                         1.388401       2.344229
                                                         0.496955       0.473781
                                                         0.162492       0.011466
                          1       5    4dy2             10.389228       1.867377
                                                         3.849621       0.670994
                                                         1.388401       1.353441
                                                         0.496955       0.273538
                                                         0.162492       0.006620
                          1       5    4dyz             10.389228       3.234392
                                                         3.849621       1.162195
                                                         1.388401       2.344229
                                                         0.496955       0.473781
                                                         0.162492       0.011466
                          1       5    4dz2             10.389228       1.867377
                                                         3.849621       0.670994
                                                         1.388401       1.353441
                                                         0.496955       0.273538
                                                         0.162492       0.006620

       Atomic covalent radius [Angstrom]:                                  0.730

       Atomic van der Waals radius [Angstrom]:                             1.520

     GTH Potential information for                                    GTH-PBE-q6

       Description:                       Goedecker-Teter-Hutter pseudopotential
                                           Goedecker et al., PRB 54, 1703 (1996)
                                          Hartwigsen et al., PRB 58, 3641 (1998)
                                                      Krack, TCA 114, 145 (2005)

       Gaussian exponent of the core charge distribution:               8.360253
       Electronic configuration (s p d ...):                               2   4

       Parameters of the local part of the GTH pseudopotential:

                          rloc        C1          C2          C3          C4
                        0.244554  -16.667215    2.487311

       Parameters of the non-local part of the GTH pseudopotential:

                   l      r(l)      h(i,j,l)

                   0    0.220956   18.337458
                   1    0.211332

  2. Atomic kind: H                                     Number of atoms:     200

     Orbital Basis Set                                        DZVP-MOLOPT-SR-GTH

       Number of orbital shell sets:                                           1
       Number of orbital shells:                                               3
       Number of primitive Cartesian functions:                                5
       Number of Cartesian basis functions:                                    5
       Number of spherical basis functions:                                    5
       Norm type:                                                              2

       Normalised Cartesian orbitals:

                        Set   Shell   Orbital            Exponent    Coefficient

                          1       1    2s               10.068468      -0.133023
                                                         2.680223      -0.177618
                                                         0.791502      -0.258419
                                                         0.239116      -0.107525
                                                         0.082193      -0.014019

                          1       2    3s               10.068468       0.344673
                                                         2.680223       1.819821
                                                         0.791502      -0.999069
                                                         0.239116       0.017430
                                                         0.082193       0.082660

                          1       3    3px              10.068468       0.155326
                                                         2.680223       0.367157
                                                         0.791502       0.311480
                                                         0.239116       0.080105
                                                         0.082193       0.033440
                          1       3    3py              10.068468       0.155326
                                                         2.680223       0.367157
                                                         0.791502       0.311480
                                                         0.239116       0.080105
                                                         0.082193       0.033440
                          1       3    3pz              10.068468       0.155326
                                                         2.680223       0.367157
                                                         0.791502       0.311480
                                                         0.239116       0.080105
                                                         0.082193       0.033440

       Atomic covalent radius [Angstrom]:                                  0.320

       Atomic van der Waals radius [Angstrom]:                             1.090

     GTH Potential information for                                    GTH-PBE-q1

       Description:                       Goedecker-Teter-Hutter pseudopotential
                                           Goedecker et al., PRB 54, 1703 (1996)
                                          Hartwigsen et al., PRB 58, 3641 (1998)
                                                      Krack, TCA 114, 145 (2005)

       Gaussian exponent of the core charge distribution:              12.500000
       Electronic configuration (s p d ...):                                   1

       Parameters of the local part of the GTH pseudopotential:

                          rloc        C1          C2          C3          C4
                        0.200000   -4.178900    0.724463

  3. Atomic kind: Pt                                    Number of atoms:     216

     Orbital Basis Set                      DZVP-A5-Q10-323-MOL-T1-DERIVED_SET-1

       Number of orbital shell sets:                                           1
       Number of orbital shells:                                               6
       Number of primitive Cartesian functions:                                5
       Number of Cartesian basis functions:                                   23
       Number of spherical basis functions:                                   20
       Norm type:                                                              2

       Normalised Cartesian orbitals:

                        Set   Shell   Orbital            Exponent    Coefficient

                          1       1    2s                2.521825       0.177473
                                                         1.453920      -0.063399
                                                         0.614053      -0.407089
                                                         0.232656       0.262254
                                                         0.074788       0.047371

                          1       2    3s                2.521825      -0.049056
                                                         1.453920       0.044904
                                                         0.614053      -0.009756
                                                         0.232656      -0.144709
                                                         0.074788       0.144085

                          1       3    3px               2.521825      -0.317572
                                                         1.453920       0.534826
                                                         0.614053      -0.489458
                                                         0.232656       0.245631
                                                         0.074788       0.018221
                          1       3    3py               2.521825      -0.317572
                                                         1.453920       0.534826
                                                         0.614053      -0.489458
                                                         0.232656       0.245631
                                                         0.074788       0.018221
                          1       3    3pz               2.521825      -0.317572
                                                         1.453920       0.534826
                                                         0.614053      -0.489458
                                                         0.232656       0.245631
                                                         0.074788       0.018221

                          1       4    4dx2              2.521825       3.008522
                                                         1.453920      -1.224251
                                                         0.614053       0.225691
                                                         0.232656       0.125144
                                                         0.074788      -0.015348
                          1       4    4dxy              2.521825       5.210912
                                                         1.453920      -2.120465
                                                         0.614053       0.390909
                                                         0.232656       0.216756
                                                         0.074788      -0.026584
                          1       4    4dxz              2.521825       5.210912
                                                         1.453920      -2.120465
                                                         0.614053       0.390909
                                                         0.232656       0.216756
                                                         0.074788      -0.026584
                          1       4    4dy2              2.521825       3.008522
                                                         1.453920      -1.224251
                                                         0.614053       0.225691
                                                         0.232656       0.125144
                                                         0.074788      -0.015348
                          1       4    4dyz              2.521825       5.210912
                                                         1.453920      -2.120465
                                                         0.614053       0.390909
                                                         0.232656       0.216756
                                                         0.074788      -0.026584
                          1       4    4dz2              2.521825       3.008522
                                                         1.453920      -1.224251
                                                         0.614053       0.225691
                                                         0.232656       0.125144
                                                         0.074788      -0.015348

                          1       5    5dx2              2.521825       0.698026
                                                         1.453920      -1.511486
                                                         0.614053      -0.335394
                                                         0.232656      -0.025564
                                                         0.074788      -0.002699
                          1       5    5dxy              2.521825       1.209017
                                                         1.453920      -2.617970
                                                         0.614053      -0.580920
                                                         0.232656      -0.044277
                                                         0.074788      -0.004674
                          1       5    5dxz              2.521825       1.209017
                                                         1.453920      -2.617970
                                                         0.614053      -0.580920
                                                         0.232656      -0.044277
                                                         0.074788      -0.004674
                          1       5    5dy2              2.521825       0.698026
                                                         1.453920      -1.511486
                                                         0.614053      -0.335394
                                                         0.232656      -0.025564
                                                         0.074788      -0.002699
                          1       5    5dyz              2.521825       1.209017
                                                         1.453920      -2.617970
                                                         0.614053      -0.580920
                                                         0.232656      -0.044277
                                                         0.074788      -0.004674
                          1       5    5dz2              2.521825       0.698026
                                                         1.453920      -1.511486
                                                         0.614053      -0.335394
                                                         0.232656      -0.025564
                                                         0.074788      -0.002699

                          1       6    6dx2              2.521825       0.831079
                                                         1.453920      -0.709226
                                                         0.614053      -0.137351
                                                         0.232656       0.068642
                                                         0.074788       0.011745
                          1       6    6dxy              2.521825       1.439472
                                                         1.453920      -1.228415
                                                         0.614053      -0.237899
                                                         0.232656       0.118891
                                                         0.074788       0.020343
                          1       6    6dxz              2.521825       1.439472
                                                         1.453920      -1.228415
                                                         0.614053      -0.237899
                                                         0.232656       0.118891
                                                         0.074788       0.020343
                          1       6    6dy2              2.521825       0.831079
                                                         1.453920      -0.709226
                                                         0.614053      -0.137351
                                                         0.232656       0.068642
                                                         0.074788       0.011745
                          1       6    6dyz              2.521825       1.439472
                                                         1.453920      -1.228415
                                                         0.614053      -0.237899
                                                         0.232656       0.118891
                                                         0.074788       0.020343
                          1       6    6dz2              2.521825       0.831079
                                                         1.453920      -0.709226
                                                         0.614053      -0.137351
                                                         0.232656       0.068642
                                                         0.074788       0.011745

       Atomic covalent radius [Angstrom]:                                  1.300

       Atomic van der Waals radius [Angstrom]:                             1.750

     GTH Potential information for                                   GTH-PBE-q10

       Description:                       Goedecker-Teter-Hutter pseudopotential
                                           Goedecker et al., PRB 54, 1703 (1996)
                                          Hartwigsen et al., PRB 58, 3641 (1998)
                                                      Krack, TCA 114, 145 (2005)

       Gaussian exponent of the core charge distribution:               1.317676
       Electronic configuration (s p d ...):                           1   0   9

       Parameters of the local part of the GTH pseudopotential:

                          rloc        C1          C2          C3          C4
                        0.616000   11.313635

       Parameters of the non-local part of the GTH pseudopotential:

                   l      r(l)      h(i,j,l)

                   0    0.550904    4.733491   -1.784594
                                   -1.784594    2.303901
                   1    0.674138    2.534798   -1.778066
                                   -1.778066    2.103836
                   2    0.457392   -7.264011    2.558665
                                    2.558665   -2.901253


 MOLECULE KIND INFORMATION


 All atoms are their own molecule, skipping detailed information


 TOTAL NUMBERS AND MAXIMUM NUMBERS

  Total number of            - Atomic kinds:                                   3
                             - Atoms:                                        516
                             - Shell sets:                                   516
                             - Shells:                                      2396
                             - Primitive Cartesian functions:               2580
                             - Cartesian basis functions:                   7368
                             - Spherical basis functions:                   6620

  Maximum angular momentum of- Orbital basis functions:                        2
                             - Local part of the GTH pseudopotential:          2
                             - Non-local part of the GTH pseudopotential:      4


 MODULE QUICKSTEP:  ATOMIC COORDINATES IN angstrom

 Atom  Kind  Element       X           Y           Z          Z(eff)       Mass
    1   1 O    8       6.730001   -0.080000   37.257999       6.0000     15.9994
    2   2 H    1       5.860000    0.400000   37.317998       1.0000      1.0079
    3   2 H    1       6.950001   -0.340000   38.217998       1.0000      1.0079
    4   1 O    8      15.130001    3.430000   29.887998       6.0000     15.9994
    5   2 H    1      14.330001    2.940000   29.617998       1.0000      1.0079
    6   2 H    1      15.640001    3.510000   29.067998       1.0000      1.0079
    7   1 O    8       2.210000    1.740000   38.027999       6.0000     15.9994
    8   2 H    1       1.860000    0.870000   38.327998       1.0000      1.0079
    9   2 H    1       1.600000    2.060000   37.357999       1.0000      1.0079
   10   1 O    8      -3.260000   -5.170000   38.917999       6.0000     15.9994
   11   2 H    1      -4.020000   -5.720000   38.917999       1.0000      1.0079
   12   2 H    1      -3.440000   -4.410000   38.247999       1.0000      1.0079
   13   1 O    8       0.110000   26.560001   30.347998       6.0000     15.9994
   14   2 H    1       0.340000   27.450001   30.007999       1.0000      1.0079
   15   2 H    1       0.750000   25.950001   29.927998       1.0000      1.0079
   16   1 O    8       2.030000   20.910000   29.917999       6.0000     15.9994
   17   2 H    1       1.420000   21.380001   30.567998       1.0000      1.0079
   18   2 H    1      10.080000    6.410000   28.997999       1.0000      1.0079
   19   1 O    8      -7.310000  -15.490000   38.807998       6.0000     15.9994
   20   2 H    1      -6.640000  -15.680000   39.558000       1.0000      1.0079
   21   2 H    1      -7.110000  -16.040001   37.937999       1.0000      1.0079
   22   1 O    8      22.930002   20.520000   30.927999       6.0000     15.9994
   23   2 H    1      23.040001   20.660000   31.957999       1.0000      1.0079
   24   2 H    1      23.050001   19.570002   30.737998       1.0000      1.0079
   25   1 O    8      -3.730000   21.690002   33.667999       6.0000     15.9994
   26   2 H    1      -4.200000   22.550001   33.457998       1.0000      1.0079
   27   2 H    1      -3.320000   21.880001   34.557998       1.0000      1.0079
   28   1 O    8       2.920000    7.530000   38.867999       6.0000     15.9994
   29   2 H    1       2.560000    7.290000   37.877998       1.0000      1.0079
   30   2 H    1       2.480000    6.810000   39.527999       1.0000      1.0079
   31   1 O    8      11.980001    0.440000   32.867999       6.0000     15.9994
   32   2 H    1      11.410000   -0.240000   33.267999       1.0000      1.0079
   33   2 H    1      28.380001    1.330000   32.747999       1.0000      1.0079
   34   1 O    8      15.020000   -0.180000   29.987998       6.0000     15.9994
   35   2 H    1       7.360001   15.040001   30.047999       1.0000      1.0079
   36   2 H    1      14.570000   -0.050000   29.087999       1.0000      1.0079
   37   1 O    8     -10.030001  -19.560001   35.107999       6.0000     15.9994
   38   2 H    1      -9.140000  -19.870001   34.727999       1.0000      1.0079
   39   2 H    1     -10.540000  -19.570002   34.247999       1.0000      1.0079
   40   1 O    8       8.130000    1.350000   30.727999       6.0000     15.9994
   41   2 H    1       7.990000    2.190000   30.257998       1.0000      1.0079
   42   2 H    1       8.710001    0.780000   30.217999       1.0000      1.0079
   43   1 O    8       2.730000   19.660000   36.877998       6.0000     15.9994
   44   2 H    1       1.880000   19.230001   36.597998       1.0000      1.0079
   45   2 H    1       2.390000   20.510002   37.237998       1.0000      1.0079
   46   1 O    8      14.770001   -3.990000   30.277998       6.0000     15.9994
   47   2 H    1      -1.180000   -3.620000   30.367998       1.0000      1.0079
   48   2 H    1      14.750000   -4.960000   30.337999       1.0000      1.0079
   49   1 O    8      -6.820001  -15.230001   30.167999       6.0000     15.9994
   50   2 H    1      -5.810000  -15.410002   30.077998       1.0000      1.0079
   51   2 H    1      -6.930000  -14.340000   29.797998       1.0000      1.0079
   52   1 O    8       0.270000    8.440001   32.267999       6.0000     15.9994
   53   2 H    1       0.360000    7.740001   31.527998       1.0000      1.0079
   54   2 H    1       1.140000    8.760000   32.537998       1.0000      1.0079
   55   1 O    8      19.110001   10.810001   30.257998       6.0000     15.9994
   56   2 H    1      19.330002    9.870001   30.417999       1.0000      1.0079
   57   2 H    1      18.710001   11.190001   31.097999       1.0000      1.0079
   58   1 O    8     -11.730001    5.840001   38.367999       6.0000     15.9994
   59   2 H    1     -12.550001    6.370000   38.697999       1.0000      1.0079
   60   2 H    1     -12.030001    5.240001   37.627998       1.0000      1.0079
   61   1 O    8      12.230001    7.400000   39.607999       6.0000     15.9994
   62   2 H    1      12.130001    8.340000   39.888000       1.0000      1.0079
   63   2 H    1      11.390000    7.180000   39.097999       1.0000      1.0079
   64   1 O    8     -14.900002   10.100000   38.777999       6.0000     15.9994
   65   2 H    1     -24.190002   24.910002   38.487998       1.0000      1.0079
   66   2 H    1     -14.910001    9.050000   38.777999       1.0000      1.0079
   67   1 O    8      18.830002   -4.810000   37.968000       6.0000     15.9994
   68   2 H    1      18.210001   -4.100000   37.647998       1.0000      1.0079
   69   2 H    1      11.360001   10.020000   37.837999       1.0000      1.0079
   70   1 O    8     -12.660000   15.860001   35.637999       6.0000     15.9994
   71   2 H    1     -12.900001   15.530001   34.757999       1.0000      1.0079
   72   2 H    1     -12.280001   15.070001   36.197998       1.0000      1.0079
   73   1 O    8      -4.250000    3.410000   39.148000       6.0000     15.9994
   74   2 H    1      -4.630000    2.520000   39.068000       1.0000      1.0079
   75   2 H    1      -4.990000    3.950000   38.797998       1.0000      1.0079
   76   1 O    8       3.140000   14.550000   30.047999       6.0000     15.9994
   77   2 H    1       3.640000   13.740001   29.777998       1.0000      1.0079
   78   2 H    1       3.390000   14.680000   30.987998       1.0000      1.0079
   79   1 O    8      -9.920000   26.900002   33.657999       6.0000     15.9994
   80   2 H    1       6.090000   26.870001   33.177998       1.0000      1.0079
   81   2 H    1      -9.220000   26.810001   33.017999       1.0000      1.0079
   82   1 O    8       5.760000   13.760000   37.057998       6.0000     15.9994
   83   2 H    1       6.590000   13.550000   36.507999       1.0000      1.0079
   84   2 H    1       5.320000   12.880001   37.057998       1.0000      1.0079
   85   1 O    8       5.960000   -0.070000   29.977998       6.0000     15.9994
   86   2 H    1       6.810000    0.420000   30.287999       1.0000      1.0079
   87   2 H    1       6.210001   -0.190000   28.987998       1.0000      1.0079
   88   1 O    8       2.030000   13.520001   34.227998       6.0000     15.9994
   89   2 H    1       1.210000   14.080001   34.467999       1.0000      1.0079
   90   2 H    1       2.220000   13.050001   35.107999       1.0000      1.0079
   91   1 O    8       8.050001   -0.080000   34.628000       6.0000     15.9994
   92   2 H    1       8.020000    0.280000   35.567999       1.0000      1.0079
   93   2 H    1       7.270000   -0.710000   34.497999       1.0000      1.0079
   94   1 O    8       8.430000   16.300001   31.208000       6.0000     15.9994
   95   2 H    1       9.320001   16.470001   30.907998       1.0000      1.0079
   96   2 H    1       7.840000   16.990002   30.817998       1.0000      1.0079
   97   1 O    8      28.830002   -9.600000   32.397998       6.0000     15.9994
   98   2 H    1      20.870001    5.810000   32.557999       1.0000      1.0079
   99   2 H    1      28.430002   -9.520000   31.497999       1.0000      1.0079
  100   1 O    8       9.150001   -2.530000   32.177999       6.0000     15.9994
  101   2 H    1       9.710001   -2.110000   32.817998       1.0000      1.0079
  102   2 H    1       9.100000   -1.770000   31.497999       1.0000      1.0079
  103   1 O    8       4.540000   31.440001   30.127999       6.0000     15.9994
  104   2 H    1       4.660000   31.510002   31.107998       1.0000      1.0079
  105   2 H    1      21.900002   30.580002   29.877999       1.0000      1.0079
  106   1 O    8       6.140000    7.150001   36.047999       6.0000     15.9994
  107   2 H    1       6.240000    6.880000   36.957999       1.0000      1.0079
  108   2 H    1       6.420000    8.110001   36.147998       1.0000      1.0079
  109   1 O    8       2.120000   -4.390000   29.917999       6.0000     15.9994
  110   2 H    1       2.590000   -4.860000   30.577998       1.0000      1.0079
  111   2 H    1       2.400000   -4.850000   29.027998       1.0000      1.0079
  112   1 O    8      -4.370000   12.820001   30.307999       6.0000     15.9994
  113   2 H    1      -3.530000   13.370000   30.247999       1.0000      1.0079
  114   2 H    1      -4.380000   12.020000   29.707999       1.0000      1.0079
  115   1 O    8     -17.830002   16.910002   38.807998       6.0000     15.9994
  116   2 H    1     -17.090000   16.490000   39.367999       1.0000      1.0079
  117   2 H    1     -17.930000   16.240002   38.077998       1.0000      1.0079
  118   1 O    8      -3.000000    9.940001   29.097998       6.0000     15.9994
  119   2 H    1      -3.390000    9.050000   29.357998       1.0000      1.0079
  120   2 H    1      -2.040000    9.980000   29.547999       1.0000      1.0079
  121   1 O    8       2.800000   -6.590000   34.387999       6.0000     15.9994
  122   2 H    1       3.050000   -7.550001   34.077998       1.0000      1.0079
  123   2 H    1      11.760000    8.240001   35.197998       1.0000      1.0079
  124   1 O    8       5.340000   11.150000   36.827998       6.0000     15.9994
  125   2 H    1       4.480000   11.200000   36.417999       1.0000      1.0079
  126   2 H    1       5.900001   10.800000   36.107999       1.0000      1.0079
  127   1 O    8      -0.580000    6.860001   37.047999       6.0000     15.9994
  128   2 H    1     -17.500002    5.910000   37.158000       1.0000      1.0079
  129   2 H    1      -0.700000    7.320001   37.907998       1.0000      1.0079
  130   1 O    8      11.490001    5.320000   34.137999       6.0000     15.9994
  131   2 H    1      11.470001    5.360000   35.107999       1.0000      1.0079
  132   2 H    1      12.490001    5.380001   34.047998       1.0000      1.0079
  133   1 O    8      10.450001    3.690000   30.427999       6.0000     15.9994
  134   2 H    1      10.630001    4.660000   30.337999       1.0000      1.0079
  135   2 H    1      10.590000    3.490000   31.427999       1.0000      1.0079
  136   1 O    8     -13.780001    8.030001   30.287999       6.0000     15.9994
  137   2 H    1     -12.790001    7.790000   30.397998       1.0000      1.0079
  138   2 H    1     -13.920001    7.970000   29.257999       1.0000      1.0079
  139   1 O    8      11.560000   -5.460000   32.857999       6.0000     15.9994
  140   2 H    1      10.940001   -5.310000   33.627999       1.0000      1.0079
  141   2 H    1      12.090001   -4.610000   32.787999       1.0000      1.0079
  142   1 O    8       8.510000    7.070000   31.487999       6.0000     15.9994
  143   2 H    1       8.520000    7.810000   32.167999       1.0000      1.0079
  144   2 H    1       7.930000    6.210001   31.847998       1.0000      1.0079
  145   1 O    8      -5.030000   15.260000   34.557998       6.0000     15.9994
  146   2 H    1      -5.960000   15.430001   34.237998       1.0000      1.0079
  147   2 H    1      -4.440001   15.660001   33.937999       1.0000      1.0079
  148   1 O    8      17.370001   23.510000   33.567998       6.0000     15.9994
  149   2 H    1      17.730001   24.410002   33.237998       1.0000      1.0079
  150   2 H    1      18.190001   23.130001   34.027998       1.0000      1.0079
  151   1 O    8      12.210001   12.690001   35.347998       6.0000     15.9994
  152   2 H    1      12.210001   13.660001   35.157998       1.0000      1.0079
  153   2 H    1      11.970000   12.280001   34.497999       1.0000      1.0079
  154   1 O    8      11.750001    0.800000   39.167999       6.0000     15.9994
  155   2 H    1      11.240001    0.070000   38.717998       1.0000      1.0079
  156   2 H    1      12.440001    0.480000   39.857999       1.0000      1.0079
  157   1 O    8      13.510000   18.650002   36.397998       6.0000     15.9994
  158   2 H    1      12.700001   18.830002   35.787999       1.0000      1.0079
  159   2 H    1      13.370000   17.660000   36.497999       1.0000      1.0079
  160   1 O    8      -3.600000   17.100000   32.897998       6.0000     15.9994
  161   2 H    1      -2.670000   17.250000   33.167999       1.0000      1.0079
  162   2 H    1      -3.830000   18.040001   32.747999       1.0000      1.0079
  163   1 O    8      -7.230001   12.020000   32.917999       6.0000     15.9994
  164   2 H    1      -6.210001   12.110001   32.897998       1.0000      1.0079
  165   2 H    1      -7.400000   12.040001   31.927998       1.0000      1.0079
  166   1 O    8       5.560000   18.280001   36.377999       6.0000     15.9994
  167   2 H    1       4.760000   18.670002   36.867999       1.0000      1.0079
  168   2 H    1       5.220000   17.400002   35.967999       1.0000      1.0079
  169   1 O    8      -3.860000    7.580000   29.907998       6.0000     15.9994
  170   2 H    1      -4.730000    7.140000   29.787999       1.0000      1.0079
  171   2 H    1      -3.260000    6.750000   30.137999       1.0000      1.0079
  172   1 O    8       4.210001   17.130001   29.357998       6.0000     15.9994
  173   2 H    1       3.380000   17.780001   29.547999       1.0000      1.0079
  174   2 H    1       3.880000   16.240002   29.637998       1.0000      1.0079
  175   1 O    8      30.320000   25.570002   32.458000       6.0000     15.9994
  176   2 H    1      30.960003   25.400002   31.687999       1.0000      1.0079
  177   2 H    1      30.490002   26.540001   32.577998       1.0000      1.0079
  178   1 O    8      19.030001    4.960000   30.007999       6.0000     15.9994
  179   2 H    1      19.490002    5.440001   29.257999       1.0000      1.0079
  180   2 H    1      18.320002    5.640000   30.087999       1.0000      1.0079
  181   1 O    8     -12.760000   12.100000   29.267998       6.0000     15.9994
  182   2 H    1     -11.990000   11.550001   29.507999       1.0000      1.0079
  183   2 H    1     -13.610001   11.570001   29.547999       1.0000      1.0079
  184   1 O    8      26.310001   46.690002   36.077998       6.0000     15.9994
  185   2 H    1      25.900002   46.160004   35.317999       1.0000      1.0079
  186   2 H    1      25.610001   47.270004   36.627999       1.0000      1.0079
  187   1 O    8      22.530001    4.340000   29.177999       6.0000     15.9994
  188   2 H    1      23.400002    4.050000   29.487998       1.0000      1.0079
  189   2 H    1      21.970001    3.520000   29.417999       1.0000      1.0079
  190   1 O    8      -3.920000   16.070002   36.897999       6.0000     15.9994
  191   2 H    1      -4.400000   15.800000   36.127999       1.0000      1.0079
  192   2 H    1      -4.640000   16.110001   37.507999       1.0000      1.0079
  193   1 O    8      -6.510000   21.890001   36.477998       6.0000     15.9994
  194   2 H    1      -6.110000   21.100002   36.037999       1.0000      1.0079
  195   2 H    1       0.970000    6.960001   36.577998       1.0000      1.0079
  196   1 O    8      -5.630000   -2.980000   36.117998       6.0000     15.9994
  197   2 H    1      -6.010000   -2.830000   37.017999       1.0000      1.0079
  198   2 H    1      -6.010000   -3.790000   35.527998       1.0000      1.0079
  199   1 O    8       4.100000   -2.810000   32.717998       6.0000     15.9994
  200   2 H    1       4.150000   -3.700000   32.357998       1.0000      1.0079
  201   2 H    1       4.110000   -2.370000   31.827998       1.0000      1.0079
  202   1 O    8     -16.250002   13.720001   29.927998       6.0000     15.9994
  203   2 H    1     -15.300001   13.790001   29.707999       1.0000      1.0079
  204   2 H    1     -16.670000   13.110001   29.257999       1.0000      1.0079
  205   1 O    8       0.140000    6.710000   29.997999       6.0000     15.9994
  206   2 H    1      -0.040000    7.210000   29.127999       1.0000      1.0079
  207   2 H    1      16.090000    6.430000   30.237998       1.0000      1.0079
  208   1 O    8       8.000000   -4.670000   29.867998       6.0000     15.9994
  209   2 H    1       8.430000   -4.930000   30.717998       1.0000      1.0079
  210   2 H    1       8.750001   -4.240000   29.357998       1.0000      1.0079
  211   1 O    8      15.980000   10.420000   35.357999       6.0000     15.9994
  212   2 H    1      15.680000    9.570000   34.997999       1.0000      1.0079
  213   2 H    1      15.560001   11.200000   34.897998       1.0000      1.0079
  214   1 O    8      -9.200000   18.810001   37.718000       6.0000     15.9994
  215   2 H    1     -10.030001   18.470001   37.147998       1.0000      1.0079
  216   2 H    1      -9.380000   18.640001   38.647998       1.0000      1.0079
  217   1 O    8      -6.960001   28.150002   38.228000       6.0000     15.9994
  218   2 H    1      -7.590001   28.080002   38.968000       1.0000      1.0079
  219   2 H    1      -7.260000   28.930000   37.657998       1.0000      1.0079
  220   1 O    8      17.300001   18.280001   36.507999       6.0000     15.9994
  221   2 H    1      16.830002   18.160002   37.347999       1.0000      1.0079
  222   2 H    1      16.730001   18.690001   35.767999       1.0000      1.0079
  223   1 O    8      16.200001   20.850000   39.487998       6.0000     15.9994
  224   2 H    1      15.980000   21.680002   40.007999       1.0000      1.0079
  225   2 H    1      15.300001   20.590000   39.177999       1.0000      1.0079
  226   1 O    8      23.920002    4.770000   34.977999       6.0000     15.9994
  227   2 H    1      23.910000    5.790000   35.127999       1.0000      1.0079
  228   2 H    1      23.210001    4.480000   35.617999       1.0000      1.0079
  229   1 O    8      16.200001   10.920000   38.017999       6.0000     15.9994
  230   2 H    1      15.630001   11.700001   38.117999       1.0000      1.0079
  231   2 H    1      16.060001   10.810001   36.957999       1.0000      1.0079
  232   1 O    8       9.960001    7.120000   37.837999       6.0000     15.9994
  233   2 H    1       9.700001    8.070001   37.767999       1.0000      1.0079
  234   2 H    1       9.190001    6.750000   38.478000       1.0000      1.0079
  235   1 O    8      -0.950000   13.880000   39.787999       6.0000     15.9994
  236   2 H    1      -1.230000   13.060001   40.138000       1.0000      1.0079
  237   2 H    1      -0.940000   14.520000   40.517999       1.0000      1.0079
  238   1 O    8     -12.330000   22.790001   36.387999       6.0000     15.9994
  239   2 H    1     -12.300000   23.610001   36.967999       1.0000      1.0079
  240   2 H    1     -12.500000   22.050001   36.987998       1.0000      1.0079
  241   1 O    8      14.040001    5.940001   33.827998       6.0000     15.9994
  242   2 H    1      14.430000    6.710000   34.327998       1.0000      1.0079
  243   2 H    1      14.390000    5.160000   34.337999       1.0000      1.0079
  244   1 O    8      -0.530000   28.130001   34.357998       6.0000     15.9994
  245   2 H    1      -1.380000   28.160002   33.787998       1.0000      1.0079
  246   2 H    1       0.150000   27.770002   33.697998       1.0000      1.0079
  247   1 O    8      22.710001   13.780001   32.617998       6.0000     15.9994
  248   2 H    1      21.940001   14.430000   32.697998       1.0000      1.0079
  249   2 H    1      23.070002   13.970001   31.707999       1.0000      1.0079
  250   1 O    8      -6.810000   30.270002   36.517999       6.0000     15.9994
  251   2 H    1      -5.810000   30.380001   36.227999       1.0000      1.0079
  252   2 H    1      -7.270000   31.110001   36.317998       1.0000      1.0079
  253   1 O    8      10.600000    3.080000   32.897998       6.0000     15.9994
  254   2 H    1       9.620001    2.890000   33.057998       1.0000      1.0079
  255   2 H    1      10.840001    3.870000   33.457998       1.0000      1.0079
  256   1 O    8     -18.040001   -0.850000   39.567998       6.0000     15.9994
  257   2 H    1     -17.020000   -0.890000   39.337999       1.0000      1.0079
  258   2 H    1     -18.530001   -0.900000   38.657998       1.0000      1.0079
  259   1 O    8     -11.350001   -2.740000   39.757999       6.0000     15.9994
  260   2 H    1     -11.450001   -3.440000   40.417999       1.0000      1.0079
  261   2 H    1     -12.020000   -2.000000   39.878000       1.0000      1.0079
  262   1 O    8      -5.500000   19.120001   35.137999       6.0000     15.9994
  263   2 H    1      -5.390000   19.270000   34.147998       1.0000      1.0079
  264   2 H    1      -6.240000   18.460001   35.247999       1.0000      1.0079
  265   1 O    8       1.980000    2.540000   29.197998       6.0000     15.9994
  266   2 H    1       2.910000    2.370000   29.427998       1.0000      1.0079
  267   2 H    1       1.930000    3.510000   29.487998       1.0000      1.0079
  268   1 O    8      15.650001    8.290001   39.167999       6.0000     15.9994
  269   2 H    1      15.450001    9.180000   38.777999       1.0000      1.0079
  270   2 H    1      14.850000    8.110001   39.737998       1.0000      1.0079
  271   1 O    8       9.760000   12.400000   36.507999       6.0000     15.9994
  272   2 H    1      17.610001   -1.770000   35.867998       1.0000      1.0079
  273   2 H    1      10.650001   12.560000   36.037999       1.0000      1.0079
  274   1 O    8      16.340000   18.390001   30.257998       6.0000     15.9994
  275   2 H    1      15.940001   18.730001   31.067998       1.0000      1.0079
  276   2 H    1      17.350002   18.570002   30.337999       1.0000      1.0079
  277   1 O    8      12.960000   10.630001   37.467998       6.0000     15.9994
  278   2 H    1      12.940001   11.430000   36.927999       1.0000      1.0079
  279   2 H    1      13.270000   10.910001   38.347999       1.0000      1.0079
  280   1 O    8       1.600000    9.630001   35.097999       6.0000     15.9994
  281   2 H    1       0.640000   10.080000   35.207999       1.0000      1.0079
  282   2 H    1       1.650000    8.900001   35.717999       1.0000      1.0079
  283   1 O    8      15.410002   37.090000   34.617998       6.0000     15.9994
  284   2 H    1      16.040001   37.210003   33.827998       1.0000      1.0079
  285   2 H    1      15.860001   36.799999   35.447998       1.0000      1.0079
  286   1 O    8      -1.650000   19.810001   32.307998       6.0000     15.9994
  287   2 H    1      15.050001   19.550001   33.327999       1.0000      1.0079
  288   2 H    1      14.520000   20.540001   32.197999       1.0000      1.0079
  289   1 O    8       9.000000   15.940001   33.817998       6.0000     15.9994
  290   2 H    1       8.560000   15.130001   34.177999       1.0000      1.0079
  291   2 H    1       8.690001   16.000000   32.897998       1.0000      1.0079
  292   1 O    8      -0.410000   17.080000   33.157998       6.0000     15.9994
  293   2 H    1      -0.620000   16.350000   33.797999       1.0000      1.0079
  294   2 H    1      -0.350000   16.540001   32.327998       1.0000      1.0079
  295   1 O    8      12.200001    9.200000   31.977998       6.0000     15.9994
  296   2 H    1      12.800001    8.620001   31.417999       1.0000      1.0079
  297   2 H    1      11.800001    8.790001   32.777998       1.0000      1.0079
  298   1 O    8     -10.559999    7.990000   30.077998       6.0000     15.9994
  299   2 H    1     -10.450001    8.060000   29.087999       1.0000      1.0079
  300   2 H    1       7.230001    7.610001   30.497999       1.0000      1.0079
  301   3 Pt  78       1.780000    0.620000   15.240002      10.0000    195.0840
  302   3 Pt  78       4.590000    0.800000   15.100002      10.0000    195.0840
  303   3 Pt  78       7.380000    0.850000   15.340000      10.0000    195.0840
  304   3 Pt  78      10.140000    0.750000   15.219997      10.0000    195.0840
  305   3 Pt  78      12.890000    0.680000   15.230000      10.0000    195.0840
  306   3 Pt  78      15.780001    0.730000   15.219997      10.0000    195.0840
  307   3 Pt  78       3.170000    3.170000   15.240002      10.0000    195.0840
  308   3 Pt  78       6.080000    3.210000   15.119999      10.0000    195.0840
  309   3 Pt  78       8.830000    3.220000   15.330002      10.0000    195.0840
  310   3 Pt  78      11.580001    3.240000   15.090000      10.0000    195.0840
  311   3 Pt  78      14.470000    3.130000   15.189999      10.0000    195.0840
  312   3 Pt  78       0.350000    3.000000   15.219997      10.0000    195.0840
  313   3 Pt  78       4.410000    5.530000   15.119999      10.0000    195.0840
  314   3 Pt  78       7.220001    5.580000   15.430000      10.0000    195.0840
  315   3 Pt  78      10.130000    5.540000   15.389999      10.0000    195.0840
  316   3 Pt  78      13.020000    5.580000   15.310001      10.0000    195.0840
  317   3 Pt  78      -1.120000    5.480001   15.369999      10.0000    195.0840
  318   3 Pt  78       1.600000    5.510000   15.200001      10.0000    195.0840
  319   3 Pt  78       5.860000    8.060000   15.200001      10.0000    195.0840
  320   3 Pt  78       8.790001    7.940001   15.160000      10.0000    195.0840
  321   3 Pt  78      11.550001    7.920001   15.369999      10.0000    195.0840
  322   3 Pt  78      -2.500000    8.000000   15.359997      10.0000    195.0840
  323   3 Pt  78       0.230000    7.970000   15.419998      10.0000    195.0840
  324   3 Pt  78       3.150000    7.970000   15.209999      10.0000    195.0840
  325   3 Pt  78       7.310000   10.490000   15.250000      10.0000    195.0840
  326   3 Pt  78      10.090000   10.270000   15.000000      10.0000    195.0840
  327   3 Pt  78      -3.870000   10.350000   15.110001      10.0000    195.0840
  328   3 Pt  78      -1.120000   10.450001   15.310001      10.0000    195.0840
  329   3 Pt  78       1.680000   10.420000   15.369999      10.0000    195.0840
  330   3 Pt  78       4.580000   10.460000   15.250000      10.0000    195.0840
  331   3 Pt  78       8.720000   12.940001   15.230000      10.0000    195.0840
  332   3 Pt  78      -5.280000   12.760000   15.129997      10.0000    195.0840
  333   3 Pt  78      -2.520000   12.900001   15.209999      10.0000    195.0840
  334   3 Pt  78       0.300000   12.900001   15.250000      10.0000    195.0840
  335   3 Pt  78       3.110000   12.810000   15.310001      10.0000    195.0840
  336   3 Pt  78       5.900001   12.920000   15.230000      10.0000    195.0840
  337   3 Pt  78       0.270000    1.590000   17.529999      10.0000    195.0840
  338   3 Pt  78       3.100000    1.550000   17.509998      10.0000    195.0840
  339   3 Pt  78       5.880000    1.400000   17.639999      10.0000    195.0840
  340   3 Pt  78       8.690001    1.350000   17.700001      10.0000    195.0840
  341   3 Pt  78      11.440001    1.390000   17.619999      10.0000    195.0840
  342   3 Pt  78      14.210001    1.470000   17.480000      10.0000    195.0840
  343   3 Pt  78       1.760000    3.990000   17.579998      10.0000    195.0840
  344   3 Pt  78       4.520000    4.000000   17.500000      10.0000    195.0840
  345   3 Pt  78       7.260000    3.770000   17.680000      10.0000    195.0840
  346   3 Pt  78      10.020000    3.840000   17.810001      10.0000    195.0840
  347   3 Pt  78      12.820001    3.940000   17.639999      10.0000    195.0840
  348   3 Pt  78      -1.210000    3.950000   17.680000      10.0000    195.0840
  349   3 Pt  78       3.240000    6.330000   17.419998      10.0000    195.0840
  350   3 Pt  78       5.900001    6.380000   17.639999      10.0000    195.0840
  351   3 Pt  78       8.540000    6.370000   17.579998      10.0000    195.0840
  352   3 Pt  78      11.360001    6.420000   17.740002      10.0000    195.0840
  353   3 Pt  78      -2.560000    6.370000   17.709999      10.0000    195.0840
  354   3 Pt  78       0.270000    6.270000   17.639999      10.0000    195.0840
  355   3 Pt  78       4.410000    8.830000   17.619999      10.0000    195.0840
  356   3 Pt  78       7.240000    8.780001   17.590000      10.0000    195.0840
  357   3 Pt  78      10.010000    8.880001   17.470001      10.0000    195.0840
  358   3 Pt  78      -4.030000    8.800000   17.639999      10.0000    195.0840
  359   3 Pt  78      -1.080000    8.760000   17.670002      10.0000    195.0840
  360   3 Pt  78       1.740000    8.730000   17.619999      10.0000    195.0840
  361   3 Pt  78       5.880000   11.300000   17.639999      10.0000    195.0840
  362   3 Pt  78       8.570001   11.310000   17.559998      10.0000    195.0840
  363   3 Pt  78      -5.440001   11.250000   17.459999      10.0000    195.0840
  364   3 Pt  78      -2.620000   11.200000   17.639999      10.0000    195.0840
  365   3 Pt  78       0.330000   11.230000   17.680000      10.0000    195.0840
  366   3 Pt  78       3.130000   11.320001   17.689999      10.0000    195.0840
  367   3 Pt  78       7.220001   13.780001   17.549999      10.0000    195.0840
  368   3 Pt  78      -6.870000   13.620001   17.559998      10.0000    195.0840
  369   3 Pt  78      -3.980000   13.710001   17.590000      10.0000    195.0840
  370   3 Pt  78      -1.200000   13.600000   17.570000      10.0000    195.0840
  371   3 Pt  78       1.670000   13.640001   17.520000      10.0000    195.0840
  372   3 Pt  78       4.600000   13.660001   17.600002      10.0000    195.0840
  373   3 Pt  78      -8.270000   14.500000   19.880001      10.0000    195.0840
  374   3 Pt  78      -5.410000   14.530001   19.790001      10.0000    195.0840
  375   3 Pt  78      -2.550000   14.450001   19.920002      10.0000    195.0840
  376   3 Pt  78       0.180000   14.350000   19.910000      10.0000    195.0840
  377   3 Pt  78       3.030000   14.440001   19.930000      10.0000    195.0840
  378   3 Pt  78       5.820000   14.560001   20.020000      10.0000    195.0840
  379   3 Pt  78       1.590000    2.410000   19.880001      10.0000    195.0840
  380   3 Pt  78       4.410000    2.410000   19.860001      10.0000    195.0840
  381   3 Pt  78       7.240000    2.330000   20.009998      10.0000    195.0840
  382   3 Pt  78      10.040001    2.180000   19.990002      10.0000    195.0840
  383   3 Pt  78      12.860001    2.320000   19.980000      10.0000    195.0840
  384   3 Pt  78      -1.220000    2.280000   19.939999      10.0000    195.0840
  385   3 Pt  78       3.120000    4.840000   19.850002      10.0000    195.0840
  386   3 Pt  78       5.840001    4.740000   19.910000      10.0000    195.0840
  387   3 Pt  78       8.680000    4.760000   20.000000      10.0000    195.0840
  388   3 Pt  78      11.390000    4.760000   20.000000      10.0000    195.0840
  389   3 Pt  78      -2.580000    4.750000   19.950001      10.0000    195.0840
  390   3 Pt  78       0.240000    4.730000   19.889999      10.0000    195.0840
  391   3 Pt  78       4.500000    7.270000   19.899998      10.0000    195.0840
  392   3 Pt  78       7.170000    7.190001   19.930000      10.0000    195.0840
  393   3 Pt  78       9.970000    7.340000   19.889999      10.0000    195.0840
  394   3 Pt  78      -4.110000    7.180000   19.980000      10.0000    195.0840
  395   3 Pt  78      -1.160000    7.150001   20.020000      10.0000    195.0840
  396   3 Pt  78       1.660000    7.160000   19.829998      10.0000    195.0840
  397   3 Pt  78       5.820000    9.710001   19.860001      10.0000    195.0840
  398   3 Pt  78       8.610001    9.630001   19.810001      10.0000    195.0840
  399   3 Pt  78      -5.440001    9.690001   19.779999      10.0000    195.0840
  400   3 Pt  78      -2.560000    9.500000   19.829998      10.0000    195.0840
  401   3 Pt  78       0.310000    9.550000   19.969997      10.0000    195.0840
  402   3 Pt  78       3.030000    9.600000   19.969997      10.0000    195.0840
  403   3 Pt  78       7.180000   12.160001   19.939999      10.0000    195.0840
  404   3 Pt  78      -6.870000   12.150001   19.779999      10.0000    195.0840
  405   3 Pt  78      -4.020000   12.070000   19.899998      10.0000    195.0840
  406   3 Pt  78      -1.230000   12.000000   19.899998      10.0000    195.0840
  407   3 Pt  78       1.560000   12.080001   20.039997      10.0000    195.0840
  408   3 Pt  78       4.290000   12.130001   19.990002      10.0000    195.0840
  409   3 Pt  78       1.550000    0.730000   22.107998      10.0000    195.0840
  410   3 Pt  78       4.430000    0.710000   22.087998      10.0000    195.0840
  411   3 Pt  78       7.230001    0.700000   22.157998      10.0000    195.0840
  412   3 Pt  78       9.860001    0.650000   22.277998      10.0000    195.0840
  413   3 Pt  78      12.720001    0.660000   22.337998      10.0000    195.0840
  414   3 Pt  78      15.580001    0.690000   22.217998      10.0000    195.0840
  415   3 Pt  78       3.070000    3.100000   22.217998      10.0000    195.0840
  416   3 Pt  78       5.790000    3.190000   22.267998      10.0000    195.0840
  417   3 Pt  78       8.540000    3.250000   22.237998      10.0000    195.0840
  418   3 Pt  78      11.320001    3.030000   22.277998      10.0000    195.0840
  419   3 Pt  78      14.180001    3.070000   22.277998      10.0000    195.0840
  420   3 Pt  78       0.160000    3.060000   22.307998      10.0000    195.0840
  421   3 Pt  78       4.360000    5.630000   22.237998      10.0000    195.0840
  422   3 Pt  78       7.120000    5.650000   22.247998      10.0000    195.0840
  423   3 Pt  78       9.960001    5.690000   22.297998      10.0000    195.0840
  424   3 Pt  78      12.690001    5.500000   22.237998      10.0000    195.0840
  425   3 Pt  78      -1.200000    5.460000   22.257998      10.0000    195.0840
  426   3 Pt  78       1.640000    5.430000   22.167998      10.0000    195.0840
  427   3 Pt  78       5.840001    8.090000   22.237998      10.0000    195.0840
  428   3 Pt  78       8.590000    8.070001   22.217998      10.0000    195.0840
  429   3 Pt  78      11.420001    8.000000   22.217998      10.0000    195.0840
  430   3 Pt  78      -2.670000    7.980001   22.267998      10.0000    195.0840
  431   3 Pt  78       0.180000    7.900000   22.227998      10.0000    195.0840
  432   3 Pt  78       2.990000    7.950000   22.267998      10.0000    195.0840
  433   3 Pt  78       7.120000   10.520000   22.187998      10.0000    195.0840
  434   3 Pt  78       9.980000   10.490000   22.117998      10.0000    195.0840
  435   3 Pt  78      -4.000000   10.480001   22.147998      10.0000    195.0840
  436   3 Pt  78      -1.250000   10.370001   22.337998      10.0000    195.0840
  437   3 Pt  78       1.540000   10.440001   22.317998      10.0000    195.0840
  438   3 Pt  78       4.340000   10.430001   22.207998      10.0000    195.0840
  439   3 Pt  78       8.590000   12.870001   22.247998      10.0000    195.0840
  440   3 Pt  78      -5.510000   12.830001   22.017998      10.0000    195.0840
  441   3 Pt  78      -2.700000   12.800001   22.237998      10.0000    195.0840
  442   3 Pt  78       0.060000   12.830001   22.237998      10.0000    195.0840
  443   3 Pt  78       2.870000   12.870001   22.377998      10.0000    195.0840
  444   3 Pt  78       5.730000   12.920000   22.247998      10.0000    195.0840
  445   3 Pt  78       0.080000    1.510000   24.627998      10.0000    195.0840
  446   3 Pt  78       2.860000    1.390000   24.447998      10.0000    195.0840
  447   3 Pt  78       5.650000    1.550000   24.367998      10.0000    195.0840
  448   3 Pt  78       8.440001    1.610000   24.527998      10.0000    195.0840
  449   3 Pt  78      11.350001    1.610000   24.657998      10.0000    195.0840
  450   3 Pt  78      14.140000    1.550000   24.537998      10.0000    195.0840
  451   3 Pt  78       1.460000    3.830000   24.617998      10.0000    195.0840
  452   3 Pt  78       4.280000    3.930000   24.567998      10.0000    195.0840
  453   3 Pt  78       7.020000    4.040000   24.697998      10.0000    195.0840
  454   3 Pt  78       9.870001    3.970000   24.497998      10.0000    195.0840
  455   3 Pt  78      12.730000    4.020000   24.547998      10.0000    195.0840
  456   3 Pt  78      -1.380000    3.980000   24.587998      10.0000    195.0840
  457   3 Pt  78       2.920000    6.210001   24.527998      10.0000    195.0840
  458   3 Pt  78       5.700001    6.440001   24.507998      10.0000    195.0840
  459   3 Pt  78       8.450001    6.430000   24.627998      10.0000    195.0840
  460   3 Pt  78      11.270000    6.450000   24.547998      10.0000    195.0840
  461   3 Pt  78      -2.580000    6.390000   24.447998      10.0000    195.0840
  462   3 Pt  78       0.160000    6.230001   24.517998      10.0000    195.0840
  463   3 Pt  78       4.220000    8.780001   24.597998      10.0000    195.0840
  464   3 Pt  78       7.080000    8.820001   24.637998      10.0000    195.0840
  465   3 Pt  78       9.950001    8.780001   24.457998      10.0000    195.0840
  466   3 Pt  78      -4.080000    8.830000   24.537998      10.0000    195.0840
  467   3 Pt  78      -1.250000    8.810000   24.587998      10.0000    195.0840
  468   3 Pt  78       1.530000    8.760000   24.567998      10.0000    195.0840
  469   3 Pt  78       5.770000   11.280001   24.627998      10.0000    195.0840
  470   3 Pt  78       8.530001   11.220001   24.467998      10.0000    195.0840
  471   3 Pt  78      -5.570001   11.200000   24.437998      10.0000    195.0840
  472   3 Pt  78      -2.740000   11.270000   24.497998      10.0000    195.0840
  473   3 Pt  78      -0.020000   11.300000   24.607998      10.0000    195.0840
  474   3 Pt  78       2.900000   11.240001   24.497998      10.0000    195.0840
  475   3 Pt  78       7.100000   13.660001   24.547998      10.0000    195.0840
  476   3 Pt  78      -7.000000   13.730000   24.397998      10.0000    195.0840
  477   3 Pt  78      -4.150000   13.640001   24.327998      10.0000    195.0840
  478   3 Pt  78      -1.270000   13.690001   24.547998      10.0000    195.0840
  479   3 Pt  78       1.470000   13.640001   24.607998      10.0000    195.0840
  480   3 Pt  78       4.260000   13.660001   24.667998      10.0000    195.0840
  481   3 Pt  78      -8.500000   14.500000   26.857998      10.0000    195.0840
  482   3 Pt  78      -5.790000   14.480001   26.817998      10.0000    195.0840
  483   3 Pt  78      -2.880000   14.420000   26.737998      10.0000    195.0840
  484   3 Pt  78       0.050000   14.500000   26.837998      10.0000    195.0840
  485   3 Pt  78       2.860000   14.480001   26.917998      10.0000    195.0840
  486   3 Pt  78       5.680000   14.580001   26.967998      10.0000    195.0840
  487   3 Pt  78       1.420000    2.280000   27.057998      10.0000    195.0840
  488   3 Pt  78       4.230000    2.130000   26.767999      10.0000    195.0840
  489   3 Pt  78       6.980000    2.180000   26.917998      10.0000    195.0840
  490   3 Pt  78       9.720000    2.360000   26.897999      10.0000    195.0840
  491   3 Pt  78      12.460001    2.430000   27.027998      10.0000    195.0840
  492   3 Pt  78      -1.560000    2.330000   26.897999      10.0000    195.0840
  493   3 Pt  78       2.880000    4.640000   26.817998      10.0000    195.0840
  494   3 Pt  78       5.760000    4.550000   27.037999      10.0000    195.0840
  495   3 Pt  78       8.530001    4.800000   27.007998      10.0000    195.0840
  496   3 Pt  78      11.240001    4.850000   27.037999      10.0000    195.0840
  497   3 Pt  78      -2.840000    4.830000   26.847998      10.0000    195.0840
  498   3 Pt  78       0.040000    4.640000   26.847998      10.0000    195.0840
  499   3 Pt  78       4.260000    7.020000   26.987998      10.0000    195.0840
  500   3 Pt  78       7.070000    7.160000   26.857998      10.0000    195.0840
  501   3 Pt  78       9.880000    7.250000   26.957999      10.0000    195.0840
  502   3 Pt  78      -4.200000    7.240000   26.897999      10.0000    195.0840
  503   3 Pt  78      -1.390000    7.120000   26.817998      10.0000    195.0840
  504   3 Pt  78       1.390000    7.150001   26.957999      10.0000    195.0840
  505   3 Pt  78       5.550000    9.580001   26.787998      10.0000    195.0840
[...]
 flops     5 x    13 x   124           6507418320       0.0%    100.0%      0.0%
 flops    13 x    13 x   124           7749947920       0.0%    100.0%      0.0%
 flops     5 x     5 x    96           7910179200       0.0%    100.0%      0.0%
 flops    13 x    32 x    20           8401486080       0.0%    100.0%      0.0%
 flops    20 x    32 x    13           8401486080       0.0%    100.0%      0.0%
 flops    20 x    32 x     5           9023315200       0.0%    100.0%      0.0%
 flops     5 x    32 x    20           9023315200       0.0%    100.0%      0.0%
 flops    13 x     5 x    96          10064745600       0.0%    100.0%      0.0%
 flops     5 x    13 x    96          10076002560       0.0%    100.0%      0.0%
 flops    20 x    13 x   124          10928973120       0.0%    100.0%      0.0%
 flops    13 x    20 x   124          10952766240       0.0%    100.0%      0.0%
 flops    20 x     5 x   124          11748107200       0.0%    100.0%      0.0%
 flops     5 x    20 x   124          11753191200       0.0%    100.0%      0.0%
 flops    13 x    13 x    96          11999919360       0.0%    100.0%      0.0%
 flops    20 x    13 x    96          16922280960       0.0%    100.0%      0.0%
 flops    13 x    20 x    96          16959121920       0.0%    100.0%      0.0%
 flops    20 x     5 x    96          18190617600       0.0%    100.0%      0.0%
 flops     5 x    20 x    96          18198489600       0.0%    100.0%      0.0%
 flops     5 x     5 x   128          68554886400       0.0%    100.0%      0.0%
 flops    20 x    32 x    20          72858009600       0.0%    100.0%      0.0%
 flops    13 x     5 x   128          87227795200       0.0%    100.0%      0.0%
 flops     5 x    13 x   128          87325355520       0.0%    100.0%      0.0%
 flops    20 x    20 x   124          95318899200       0.0%    100.0%      0.0%
 flops    13 x    13 x   128         103999301120       0.0%    100.0%      0.0%
 flops    20 x    13 x   128         146659768320       0.0%    100.0%      0.0%
 flops    13 x    20 x   128         146979056640       0.0%    100.0%      0.0%
 flops    20 x    20 x    96         147590553600       0.0%    100.0%      0.0%
 flops    20 x     5 x   128         157652019200       0.0%    100.0%      0.0%
 flops     5 x    20 x   128         157720243200       0.0%    100.0%      0.0%
 flops    20 x    20 x   128        1279118131200       0.0%    100.0%      0.0%
 flops inhomo. stacks                           0       0.0%      0.0%      0.0%
 flops total                         2.789030E+12       0.0%    100.0%      0.0%
 flops max/rank                     25.344846E+09       0.0%    100.0%      0.0%
 matmuls inhomo. stacks                         0       0.0%      0.0%      0.0%
 matmuls total                           77276928       0.0%    100.0%      0.0%
 number of processed stacks                773259       0.0%    100.0%      0.0%
 average stack size                                     0.0      99.9       0.0
 marketing flops                     5.708654E+12
 -------------------------------------------------------------------------------
 # multiplications                             42
 max memory usage/rank               1.622761E+09
 # max total images/rank                        2
 # max 3D layers                                1
 # MPI messages exchanged                  155904
 MPI messages size (bytes):
  total size                        99.237052E+09
  min size                         276.480000E+03
  max size                           2.278040E+06
  average size                     636.526688E+03
 MPI breakdown and total messages size (bytes):
             size <=      128                   0                        0
       128 < size <=     8192                   0                        0
      8192 < size <=    32768                   0                        0
     32768 < size <=   131072                   0                        0
    131072 < size <=  4194304              155904              99237055200
   4194304 < size <= 16777216                   0                        0
  16777216 < size                               0                        0
 -------------------------------------------------------------------------------

 *** WARNING in dbcsr_mm.F:290 :: Using a non-square number of MPI ranks ***
 *** might lead to poor performance. Used ranks: 128 Suggested: 121 256  ***

 -------------------------------------------------------------------------------
 -                                                                             -
 -                      DBCSR MESSAGE PASSING PERFORMANCE                      -
 -                                                                             -
 -------------------------------------------------------------------------------
 ROUTINE             CALLS      AVE VOLUME [Bytes]
 MP_Bcast               46                     12.
 MP_Allreduce          397                     13.
 MP_Alltoall          1169                 567661.
 MP_ISend             2688                 301230.
 MP_IRecv             2688                 294816.
 -------------------------------------------------------------------------------

 -------------------------------------------------------------------------------
 -                                                                             -
 -                                DBM STATISTICS                               -
 -                                                                             -
 -------------------------------------------------------------------------------
    M  x    N  x    K                                          COUNT     PERCENT
 -------------------------------------------------------------------------------

 -------------------------------------------------------------------------------
 -                                                                             -
 -                                GRID STATISTICS                              -
 -                                                                             -
 -------------------------------------------------------------------------------
 LP    KERNEL             BACKEND                              COUNT     PERCENT
 4     collocate general  REF                               16207640      22.11%
 4     integrate general  REF                               16084667      21.94%
 3     collocate general  REF                               11288720      15.40%
 3     integrate general  REF                               11232247      15.32%
 2     collocate general  REF                                9029800      12.32%
 2     integrate general  REF                                8804055      12.01%
 5     integrate general  REF                                 405191       0.55%
 0     collocate general  REF                                 132096       0.18%
 0     integrate general  REF                                  66048       0.09%
 1     integrate general  REF                                  66048       0.09%
 -------------------------------------------------------------------------------

 MEMORY| Estimated peak process memory [MiB]                                1807

 -------------------------------------------------------------------------------
 ----                             MULTIGRID INFO                            ----
 -------------------------------------------------------------------------------
 count for grid        1:        1096699          cutoff [a.u.]          200.00
 count for grid        2:        1091545          cutoff [a.u.]           66.67
 count for grid        3:         716010          cutoff [a.u.]           22.22
 count for grid        4:         554266          cutoff [a.u.]            7.41
 total gridlevel count  :        3458520

 -------------------------------------------------------------------------------
 -                                                                             -
 -                         MESSAGE PASSING PERFORMANCE                         -
 -                                                                             -
 -------------------------------------------------------------------------------

 ROUTINE             CALLS      AVE VOLUME [Bytes]
 MP_Group                4
 MP_Bcast             2212                 305285.
 MP_Allreduce         3449                  31454.
 MP_Sync                86
 MP_Alltoall          2422               17573598.
 MP_SendRecv           508                   6366.
 MP_ISendRecv        20320                  61740.
 MP_Wait             36004
 MP_comm_split          41
 MP_ISend            14784                 256102.
 MP_IRecv            14784                 256102.
 MP_Recv               122                1694720.
 MP_Write_All            3                1797408.
 -------------------------------------------------------------------------------


 -------------------------------------------------------------------------------
 -                                                                             -
 -                           R E F E R E N C E S                               -
 -                                                                             -
 -------------------------------------------------------------------------------
 
 CP2K version 2022.1, the CP2K developers group (2022).
 CP2K is freely available from https://www.cp2k.org/ .

 Kuehne,Thomas D.; Iannuzzi,Marcella; Del Ben,Mauro;
 Rybkin,Vladimir V.; Seewald,Patrick; Stein,Frederick; Laino,Teodoro;
 Khaliullin,Rustam Z.; Schuett,Ole; Schiffmann,Florian; Golze,Dorothea;
 Wilhelm,Jan; Chulkov,Sergey; Bani-Hashemian,Mohammad Hossein;
 Weber,Valery; Borstnik,Urban; Taillefumier,Mathieu;
 Jakobovits,Alice Shoshana; Lazzaro,Alfio; Pabst,Hans; Mueller,Tiziano;
 Schade,Robert; Guidon,Manuel; Andermatt,Samuel; Holmberg,Nico;
 Schenter,Gregory K.; Hehn,Anna; Bussy,Augustin; Belleflamme,Fabian;
 Tabacchi,Gloria; Gloess,Andreas; Lass,Michael; Bethune,Iain;
 Mundy,Christopher J.; Plessl,Christian; Watkins,Matt;
 VandeVondele,Joost; Krack,Matthias; Hutter,Juerg. 
 The Journal of Chemical Physics, 152 (19), (2020). 
 CP2K: An electronic structure and molecular dynamics software package -
 Quickstep: Efficient and accurate electronic structure calculations.
 https://doi.org/10.1063/5.0007045

 Goerigk, Lars; Hansen, Andreas; Bauer, Christoph; Ehrlich, Stephan;
 Najibi, Asim; Grimme, Stefan. , 19 (48), (2017). 
 A look at the density functional theory zoo with the advanced GMTKN55 database
 for general main group thermochemistry, kinetics and noncovalent interactions.
 https://doi.org/10.1039/C7CP04913G

 Bani-Hashemian, MH; Bruck, S; Luisier, M; VandeVondele, J. 
 JOURNAL OF CHEMICAL PHYSICS, 144 (4), 044113 (2016). 
 A generalized Poisson solver for first-principles device simulations.
 https://doi.org/10.1063/1.4940796

 Schuett, Ole; Messmer, Peter; Hutter, Juerg; VandeVondele, Joost. 
 Electronic Structure Calculations on Graphics Processing Units, John
 Wiley & Sons, Ltd, 173-190 (2016). 
 GPU-Accelerated Sparse Matrix-Matrix Multiplication for
 Linear Scaling Density Functional Theory.
 https://doi.org/10.1002/9781118670712.ch8

 Heinecke, A; Henry, G; Hutchinson, M; Pabst, H. 
 Proceedings of Intl. Supercomputing Conference, 981-991 (2016). 
 LIBXSMM: Accelerating Small Matrix Multiplications
 by Runtime Code Generation.
 https://doi.org/10.1109/SC.2016.83

 Borstnik, U; VandeVondele, J; Weber, V; Hutter, J. 
 PARALLEL COMPUTING, 40 (5-6), 47-58 (2014). 
 Sparse matrix multiplication: The distributed block-compressed sparse
 row library.
 https://doi.org/10.1016/j.parco.2014.03.012

 Hutter, J; Iannuzzi, M; Schiffmann, F; VandeVondele, J. 
 WIREs Comput Mol Sci., 4 (1), 15-25 (2014). 
 CP2K: atomistic simulations of condensed matter systems.
 https://doi.org/10.1002/wcms.1159

 Marek, A; Blum, V; Johanni, R; Havu, V; Lang, B; Auckenthaler, T;
 Heinecke, A; Bungartz, H; Lederer, H. 
 Journal of Physics: Condensed Matter, 26 (21), (2014). 
 The ELPA library: scalable parallel eigenvalue solutions for
 electronic structure
 theory and computational science.
 https://doi.org/10.1088/0953-8984/26/21/213201

 Grimme, S; Ehrlich, S; Goerigk, L. 
 JOURNAL OF COMPUTATIONAL CHEMISTRY, 32, 1456 (2011). 
 Effect of the damping function in dispersion corrected density functional theory.
 https://doi.org/10.1002/jcc.21759

 Grimme, S; Antony, J; Ehrlich, S; Krieg, H. 
 JOURNAL OF CHEMICAL PHYSICS, 132 (15), 154104 (2010). 
 A consistent and accurate ab initio parametrization of density
 functional dispersion correction (DFT-D) for the 94 elements H-Pu.
 https://doi.org/10.1063/1.3382344

 VandeVondele, J; Hutter, J. 
 JOURNAL OF CHEMICAL PHYSICS, 127 (11), 114105 (2007). 
 Gaussian basis sets for accurate calculations on molecular systems in
 gas and condensed phases.
 https://doi.org/10.1063/1.2770708

 Krack, M. 
 THEORETICAL CHEMISTRY ACCOUNTS, 114 (1-3), 145-152 (2005). 
 Pseudopotentials for H to Kr optimized for gradient-corrected
 exchange-correlation functionals.
 https://doi.org/10.1007/s00214-005-0655-y

 VandeVondele, J; Krack, M; Mohamed, F; Parrinello, M; Chassaing, T;
 Hutter, J. COMPUTER PHYSICS COMMUNICATIONS, 167 (2), 103-128 (2005). 
 QUICKSTEP: Fast and accurate density functional calculations using a
 mixed Gaussian and plane waves approach.
 https://doi.org/10.1016/j.cpc.2004.12.014

 Frigo, M; Johnson, SG. 
 PROCEEDINGS OF THE IEEE, 93 (2), 216-231 (2005). 
 The design and implementation of FFTW3.
 https://doi.org/10.1109/JPROC.2004.840301

 Hartwigsen, C; Goedecker, S; Hutter, J. 
 PHYSICAL REVIEW B, 58 (7), 3641-3662 (1998). 
 Relativistic separable dual-space Gaussian pseudopotentials from H to Rn.
 https://doi.org/10.1103/PhysRevB.58.3641

 Lippert, G; Hutter, J; Parrinello, M. 
 MOLECULAR PHYSICS, 92 (3), 477-487 (1997). 
 A hybrid Gaussian and plane wave density functional scheme.
 https://doi.org/10.1080/002689797170220

 Perdew, JP; Burke, K; Ernzerhof, M. 
 PHYSICAL REVIEW LETTERS, 77 (18), 3865-3868 (1996). 
 Generalized gradient approximation made simple.
 https://doi.org/10.1103/PhysRevLett.77.3865

 Goedecker, S; Teter, M; Hutter, J. 
 PHYSICAL REVIEW B, 54 (3), 1703-1710 (1996). 
 Separable dual-space Gaussian pseudopotentials.
 https://doi.org/10.1103/PhysRevB.54.1703


 -------------------------------------------------------------------------------
 -                                                                             -
 -                                T I M I N G                                  -
 -                                                                             -
 -------------------------------------------------------------------------------
 SUBROUTINE                       CALLS  ASD         SELF TIME        TOTAL TIME
                                MAXIMUM       AVERAGE  MAXIMUM  AVERAGE  MAXIMUM
 CP2K                                 1  1.0    0.019    0.032  281.736  281.737
 qs_forces                            1  2.0    0.002    0.002  281.405  281.407
 qs_energies                          1  3.0    0.000    0.001  275.124  275.129
 scf_env_do_scf                       1  4.0    0.000    0.000  265.970  266.108
 scf_env_do_scf_inner_loop           39  5.0    0.002    0.006  265.966  266.104
 rebuild_ks_matrix                   40  6.9    0.000    0.000  143.561  143.606
 qs_ks_build_kohn_sham_matrix        40  7.9    0.006    0.007  143.560  143.606
 qs_ks_update_qs_env                 39  6.0    0.000    0.000  139.421  139.465
 pw_transfer                       2084 12.2    0.152    0.189   90.254   92.114
 fft_wrap_pw1pw2                   2084 13.2    0.020    0.023   90.103   91.935
 fft_wrap_pw1pw2_200               1844 14.4    6.131    7.220   88.909   90.679
 pw_poisson_solve                    40  8.9    0.003    0.010   77.471   77.509
 qs_scf_new_mos                      39  6.0    0.001    0.005   76.225   76.355
 fft3d_ps                          2084 15.2   26.181   28.948   72.358   75.333
 implicit_poisson_solver_mixed_      40  9.9    1.644    2.001   73.315   73.370
 eigensolver                         39  7.0    0.003    0.004   71.935   72.201
 derive_fft                         240 12.1    0.015    0.018   51.425   51.540
 cp_fm_diag_elpa                     41  8.0    0.000    0.001   50.443   50.590
 cp_fm_redistribute_end              41  9.0    6.696   49.965    6.776   50.013
 cp_fm_diag_elpa_base                41  9.0   42.563   48.807   42.991   49.279
 mp_alltoall_z22v                  2084 17.2   38.585   47.682   38.585   47.682
 qs_rho_update_rho_low               40  6.0    0.000    0.000   44.665   44.683
 calculate_rho_elec                  40  7.0    0.077    0.095   44.665   44.682
 apply_P_operator                   200 11.1    1.066    1.199   43.952   44.068
 sum_up_and_integrate                40  8.9    0.217    0.303   43.937   43.992
 integrate_v_rspace                  40  9.9    0.001    0.002   43.720   43.825
 grid_collocate_task_list            40  8.0   29.108   35.083   29.108   35.083
 grid_integrate_task_list            40 10.9   27.075   31.888   27.075   31.888
 x_to_yz                           1201 16.4    5.086    6.388   29.230   30.367
 rs_pw_transfer                     324 10.4    0.004    0.005   19.531   23.445
 cp_fm_triangular_multiply          117  8.0   22.907   23.165   22.907   23.165
 yz_to_x                            643 16.4    1.750    2.047   16.038   21.796
 qs_vxc_create                       40  8.9    0.001    0.002   19.827   20.068
 xc_vxc_pw_create                    40  9.9    0.342    0.425   19.826   20.068
 density_rs2pw                       40  8.0    0.003    0.003   14.631   18.682
 xc_pw_derive                       240 11.9    0.004    0.004   13.957   15.454
 apply_poisson_operator_fft          40 10.9    0.000    0.001   12.815   13.030
 mp_waitany                       14784 12.4    8.483   12.767    8.483   12.767
 rs_pw_transfer_RS2PW_200            42  9.9    2.716    3.116    8.548   12.483
 apply_inv_laplace_operator_fft     122 11.6    0.309    0.355   11.747   12.175
 potential_pw2rs                     40 10.9    0.012    0.013   11.329   11.411
 xc_pw_divergence                    40 10.9    0.002    0.002    9.527   10.658
 mp_alltoall_d11v                   582 10.3    6.503   10.396    6.503   10.396
 xc_rho_set_and_dset_create          40 10.9    0.199    0.240    9.594   10.178
 ps_implicit_compute_error_fft       80 10.9    0.503    0.636    8.682    9.289
 rs_gather_matrices                  40 10.9    0.046    0.060    5.303    9.109
 ps_implicit_compute_veps            40 10.9    0.233    0.276    8.775    8.912
 pw_scatter_p                      1321 15.4    7.405    8.545    7.405    8.545
 rs_pw_transfer_PW2RS_200            42 12.7    3.165    3.313    6.604    6.763
 gspace_mixing                       38  6.0    0.073    0.091    6.528    6.530
 pw_derive                          960 13.1    6.084    6.432    6.084    6.432
 scf_post_calculation_gpw             1  4.0    0.000    0.001    5.782    5.788
 write_available_results              1  5.0    0.000    0.000    5.782    5.787
 -------------------------------------------------------------------------------

 The number of warnings for this run is : 1
 
 -------------------------------------------------------------------------------
  **** **** ******  **  PROGRAM ENDED AT                 2023-12-02 05:17:30.507
 ***** ** ***  *** **   PROGRAM RAN ON                                     cu062
 **    ****   ******    PROGRAM RAN BY                                     jxzhu
 ***** **    ** ** **   PROGRAM PROCESS ID                                 64302
  **** **  *******  **  PROGRAM STOPPED IN /public/home/jxzhu/tmp_calc/e3b2e4eb0
                                           f532a6145e0443a1337f052fbc02445/calc/
                                           000800.000/search_lo.000000
