 DBCSR| CPU Multiplication driver                                           XSMM
 DBCSR| Multrec recursion limit                                              512
 DBCSR| Multiplication stack size                                           1000
 DBCSR| Maximum elements for images                                    UNLIMITED
 DBCSR| Multiplicative factor virtual images                                   1
 DBCSR| Use multiplication densification                                       T
 DBCSR| Multiplication size stacks                                             3
 DBCSR| Use memory pool for CPU allocation                                     F
 DBCSR| Number of 3D layers                                               SINGLE
 DBCSR| Use MPI memory allocation                                              F
 DBCSR| Use RMA algorithm                                                      F
 DBCSR| Use Communication thread                                               T
 DBCSR| Communication thread load                                             87
 DBCSR| MPI: My node id                                                        0
 DBCSR| MPI: Number of nodes                                                 128
 DBCSR| OMP: Current number of threads                                         1
 DBCSR| OMP: Max number of threads                                             1
 DBCSR| Split modifier for TAS multiplication algorithm                  1.0E+00


  **** **** ******  **  PROGRAM STARTED AT               2023-12-02 10:08:19.462
 ***** ** ***  *** **   PROGRAM STARTED ON                                 cu001
 **    ****   ******    PROGRAM STARTED BY                                 jxzhu
 ***** **    ** ** **   PROGRAM PROCESS ID                                 50518
  **** **  *******  **  PROGRAM STARTED IN /public/home/jxzhu/tmp_calc/d97729937
                                           07a116a57c3f6509f5d48a1f63635b0/calc/
                                           001200.000/task_hi.000000

 CP2K| version string:                                       CP2K version 2022.1
 CP2K| source code revision number:                                  git:2caeb6f
 CP2K| cp2kflags: omp libint fftw3 libxc elpa parallel mpi3 scalapack cosma xsmm
 CP2K|             plumed2 spglib mkl sirius libvori libbqb
 CP2K| is freely available from                            https://www.cp2k.org/
 CP2K| Program compiled at                           Mon Jul 3 17:37:06 CST 2023
 CP2K| Program compiled on                                                 mu003
 CP2K| Program compiled for                                                local
 CP2K| Data directory path                             /public/home/jxzhu/basis/
 CP2K| Input file name                                                 input.inp
 
 GLOBAL| Force Environment number                                              1
 GLOBAL| Basis set file name                                        BASIS_MOLOPT
 GLOBAL| Potential file name                                      GTH_POTENTIALS
 GLOBAL| MM Potential file name                                     MM_POTENTIAL
 GLOBAL| Coordinate file name                                          coord.xyz
 GLOBAL| Method name                                                        CP2K
 GLOBAL| Project name                                                       cp2k
 GLOBAL| Run type                                                   ENERGY_FORCE
 GLOBAL| FFT library                                                       FFTW3
 GLOBAL| Diagonalization library                                            ELPA
 GLOBAL| Minimum number of eigenvectors for ELPA usage                        16
 GLOBAL| Orthonormality check for eigenvectors                          DISABLED
 GLOBAL| Matrix multiplication library                                     COSMA
 GLOBAL| All-to-all communication in single precision                          F
 GLOBAL| FFTs using library dependent lengths                                  T
 GLOBAL| Grid backend                                                       AUTO
 GLOBAL| Global print level                                               MEDIUM
 GLOBAL| MPI I/O enabled                                                       T
 GLOBAL| Total number of message passing processes                           128
 GLOBAL| Number of threads for this process                                    1
 GLOBAL| This output is from process                                           0
 GLOBAL| Stack size for threads created by OpenMP (OMP_STACKSIZE)        default
 GLOBAL| CPU model name                 Intel(R) Xeon(R) Gold 6338 CPU @ 2.00GHz
 GLOBAL| CPUID                                                              1003

 MEMORY| system memory details [Kb]
 MEMORY|                        rank 0           min           max       average
 MEMORY| MemTotal            263619172     263619172     263619172     263619172
 MEMORY| MemFree             218778236     216068836     218778236     217423555
 MEMORY| Buffers                    20            20            36            28
 MEMORY| Cached                1882580        903004       1882580       1392792
 MEMORY| Slab                  1412204       1412204       1435880       1424042
 MEMORY| SReclaimable           245316        230956        245316        238136
 MEMORY| MemLikelyFree       220906152     217202832     220906152     219054511


 *** Fundamental physical constants (SI units) ***

 *** Literature: B. J. Mohr and B. N. Taylor,
 ***             CODATA recommended values of the fundamental physical
 ***             constants: 2006, Web Version 5.1
 ***             http://physics.nist.gov/constants

 Speed of light in vacuum [m/s]                             2.99792458000000E+08
 Magnetic constant or permeability of vacuum [N/A**2]       1.25663706143592E-06
 Electric constant or permittivity of vacuum [F/m]          8.85418781762039E-12
 Planck constant (h) [J*s]                                  6.62606896000000E-34
 Planck constant (h-bar) [J*s]                              1.05457162825177E-34
 Elementary charge [C]                                      1.60217648700000E-19
 Electron mass [kg]                                         9.10938215000000E-31
 Electron g factor [ ]                                     -2.00231930436220E+00
 Proton mass [kg]                                           1.67262163700000E-27
 Fine-structure constant                                    7.29735253760000E-03
 Rydberg constant [1/m]                                     1.09737315685270E+07
 Avogadro constant [1/mol]                                  6.02214179000000E+23
 Boltzmann constant [J/K]                                   1.38065040000000E-23
 Atomic mass unit [kg]                                      1.66053878200000E-27
 Bohr radius [m]                                            5.29177208590000E-11

 *** Conversion factors ***

 [u] -> [a.u.]                                              1.82288848426455E+03
 [Angstrom] -> [Bohr] = [a.u.]                              1.88972613288564E+00
 [a.u.] = [Bohr] -> [Angstrom]                              5.29177208590000E-01
 [a.u.] -> [s]                                              2.41888432650478E-17
 [a.u.] -> [fs]                                             2.41888432650478E-02
 [a.u.] -> [J]                                              4.35974393937059E-18
 [a.u.] -> [N]                                              8.23872205491840E-08
 [a.u.] -> [K]                                              3.15774647902944E+05
 [a.u.] -> [kJ/mol]                                         2.62549961709828E+03
 [a.u.] -> [kcal/mol]                                       6.27509468713739E+02
 [a.u.] -> [Pa]                                             2.94210107994716E+13
 [a.u.] -> [bar]                                            2.94210107994716E+08
 [a.u.] -> [atm]                                            2.90362800883016E+08
 [a.u.] -> [eV]                                             2.72113838565563E+01
 [a.u.] -> [Hz]                                             6.57968392072181E+15
 [a.u.] -> [1/cm] (wave numbers)                            2.19474631370540E+05
 [a.u./Bohr**2] -> [1/cm]                                   5.14048714338585E+03
 

 CELL_TOP| Volume [angstrom^3]:                                     17614.982639
 CELL_TOP| Vector a [angstrom    16.869     0.000     0.000   |a| =    16.869000
 CELL_TOP| Vector b [angstrom    -8.434    14.609     0.000   |b| =    16.869015
 CELL_TOP| Vector c [angstrom     0.000     0.000    71.478   |c| =    71.478000
 CELL_TOP| Angle (b,c), alpha [degree]:                                90.000000
 CELL_TOP| Angle (a,c), beta  [degree]:                                90.000000
 CELL_TOP| Angle (a,b), gamma [degree]:                               119.999970
 CELL_TOP| Numerically orthorhombic:                                          NO
 
 GENERATE|  Preliminary Number of Bonds generated:                             0
 GENERATE|  Achieved consistency in connectivity generation.

 CELL| Volume [angstrom^3]:                                         17614.982639
 CELL| Vector a [angstrom]:      16.869     0.000     0.000   |a| =    16.869000
 CELL| Vector b [angstrom]:      -8.434    14.609     0.000   |b| =    16.869015
 CELL| Vector c [angstrom]:       0.000     0.000    71.478   |c| =    71.478000
 CELL| Angle (b,c), alpha [degree]:                                    90.000000
 CELL| Angle (a,c), beta  [degree]:                                    90.000000
 CELL| Angle (a,b), gamma [degree]:                                   119.999970
 CELL| Numerically orthorhombic:                                              NO

 CELL_REF| Volume [angstrom^3]:                                     17614.982639
 CELL_REF| Vector a [angstrom    16.869     0.000     0.000   |a| =    16.869000
 CELL_REF| Vector b [angstrom    -8.434    14.609     0.000   |b| =    16.869015
 CELL_REF| Vector c [angstrom     0.000     0.000    71.478   |c| =    71.478000
 CELL_REF| Angle (b,c), alpha [degree]:                                90.000000
 CELL_REF| Angle (a,c), beta  [degree]:                                90.000000
 CELL_REF| Angle (a,b), gamma [degree]:                               119.999970
 CELL_REF| Numerically orthorhombic:                                          NO

 *******************************************************************************
 *******************************************************************************
 **                                                                           **
 **     #####                         ##              ##                      **
 **    ##   ##            ##          ##              ##                      **
 **   ##     ##                       ##            ######                    **
 **   ##     ##  ##   ##  ##   #####  ##  ##   ####   ##    #####    #####    **
 **   ##     ##  ##   ##  ##  ##      ## ##   ##      ##   ##   ##  ##   ##   **
 **   ##  ## ##  ##   ##  ##  ##      ####     ###    ##   ######   ######    **
 **    ##  ###   ##   ##  ##  ##      ## ##      ##   ##   ##       ##        **
 **     #######   #####   ##   #####  ##  ##  ####    ##    #####   ##        **
 **           ##                                                    ##        **
 **                                                                           **
 **                                                ... make the atoms dance   **
 **                                                                           **
 **            Copyright (C) by CP2K developers group (2000-2022)             **
 **                      J. Chem. Phys. 152, 194103 (2020)                    **
 **                                                                           **
 *******************************************************************************

 DFT| Spin restricted Kohn-Sham (RKS) calculation                            RKS
 DFT| Multiplicity                                                             1
 DFT| Number of spin states                                                    1
 DFT| Charge                                                                   0
 DFT| Self-interaction correction (SIC)                                       NO
 DFT| Cutoffs: density                                              1.000000E-10
 DFT|          gradient                                             1.000000E-10
 DFT|          tau                                                  1.000000E-10
 DFT|          cutoff_smoothing_range                               0.000000E+00
 DFT| XC density smoothing                                                  NONE
 DFT| XC derivatives                                                          PW

 FUNCTIONAL| PBE:
 FUNCTIONAL| J.P.Perdew, K.Burke, M.Ernzerhof, Phys. Rev. Letter, vol. 77, n 18,
 FUNCTIONAL|  pp. 3865-3868, (1996){spin unpolarized}                           

 vdW POTENTIAL|                                                   Pair Potential
 vdW POTENTIAL|          DFT-D3 (Version 3.1)
 vdW POTENTIAL|          Potential Form: S. Grimme et al, JCP 132: 154104 (2010)
 vdW POTENTIAL|          Zero Damping
 vdW POTENTIAL|          Cutoff Radius [Bohr]:                             20.00
 vdW POTENTIAL|          s6 Scaling Factor:                               1.0000
 vdW POTENTIAL|          sr6 Scaling Factor:                              1.2170
 vdW POTENTIAL|          s8 Scaling Factor:                               0.7220
 vdW POTENTIAL|          Cutoff for CN calculation:                   0.1000E-05

 QS| Method:                                                                 GPW
 QS| Density plane wave grid type                        NON-SPHERICAL FULLSPACE
 QS| Number of grid levels:                                                    4
 QS| Density cutoff [a.u.]:                                                200.0
 QS| Multi grid cutoff [a.u.]: 1) grid level                               200.0
 QS|                           2) grid level                                66.7
 QS|                           3) grid level                                22.2
 QS|                           4) grid level                                 7.4
 QS| Grid level progression factor:                                          3.0
 QS| Relative density cutoff [a.u.]:                                        20.0
 QS| Interaction thresholds: eps_pgf_orb:                                3.2E-07
 QS|                         eps_filter_matrix:                          0.0E+00
 QS|                         eps_core_charge:                            1.0E-15
 QS|                         eps_rho_gspace:                             1.0E-13
 QS|                         eps_rho_rspace:                             1.0E-13
 QS|                         eps_gvg_rspace:                             3.2E-07
 QS|                         eps_ppl:                                    1.0E-02
 QS|                         eps_ppnl:                                   3.2E-09


 ATOMIC KIND INFORMATION

  1. Atomic kind: O                                     Number of atoms:     101

     Orbital Basis Set                                        DZVP-MOLOPT-SR-GTH

       Number of orbital shell sets:                                           1
       Number of orbital shells:                                               5
       Number of primitive Cartesian functions:                                5
       Number of Cartesian basis functions:                                   14
       Number of spherical basis functions:                                   13
       Norm type:                                                              2

       Normalised Cartesian orbitals:

                        Set   Shell   Orbital            Exponent    Coefficient

                          1       1    2s               10.389228       0.396646
                                                         3.849621       0.208811
                                                         1.388401      -0.301641
                                                         0.496955      -0.274061
                                                         0.162492      -0.033677

                          1       2    3s               10.389228       0.303673
                                                         3.849621       0.240943
                                                         1.388401      -0.313066
                                                         0.496955      -0.043055
                                                         0.162492       0.213991

                          1       3    3px              10.389228      -1.530415
                                                         3.849621      -1.371928
                                                         1.388401      -0.761951
                                                         0.496955      -0.253695
                                                         0.162492      -0.035541
                          1       3    3py              10.389228      -1.530415
                                                         3.849621      -1.371928
                                                         1.388401      -0.761951
                                                         0.496955      -0.253695
                                                         0.162492      -0.035541
                          1       3    3pz              10.389228      -1.530415
                                                         3.849621      -1.371928
                                                         1.388401      -0.761951
                                                         0.496955      -0.253695
                                                         0.162492      -0.035541

                          1       4    4px              10.389228      -0.565392
                                                         3.849621      -0.038231
                                                         1.388401      -0.382373
                                                         0.496955       0.179070
                                                         0.162492       0.122714
                          1       4    4py              10.389228      -0.565392
                                                         3.849621      -0.038231
                                                         1.388401      -0.382373
                                                         0.496955       0.179070
                                                         0.162492       0.122714
                          1       4    4pz              10.389228      -0.565392
                                                         3.849621      -0.038231
                                                         1.388401      -0.382373
                                                         0.496955       0.179070
                                                         0.162492       0.122714

                          1       5    4dx2             10.389228       1.867377
                                                         3.849621       0.670994
                                                         1.388401       1.353441
                                                         0.496955       0.273538
                                                         0.162492       0.006620
                          1       5    4dxy             10.389228       3.234392
                                                         3.849621       1.162195
                                                         1.388401       2.344229
                                                         0.496955       0.473781
                                                         0.162492       0.011466
                          1       5    4dxz             10.389228       3.234392
                                                         3.849621       1.162195
                                                         1.388401       2.344229
                                                         0.496955       0.473781
                                                         0.162492       0.011466
                          1       5    4dy2             10.389228       1.867377
                                                         3.849621       0.670994
                                                         1.388401       1.353441
                                                         0.496955       0.273538
                                                         0.162492       0.006620
                          1       5    4dyz             10.389228       3.234392
                                                         3.849621       1.162195
                                                         1.388401       2.344229
                                                         0.496955       0.473781
                                                         0.162492       0.011466
                          1       5    4dz2             10.389228       1.867377
                                                         3.849621       0.670994
                                                         1.388401       1.353441
                                                         0.496955       0.273538
                                                         0.162492       0.006620

       Atomic covalent radius [Angstrom]:                                  0.730

       Atomic van der Waals radius [Angstrom]:                             1.520

     GTH Potential information for                                    GTH-PBE-q6

       Description:                       Goedecker-Teter-Hutter pseudopotential
                                           Goedecker et al., PRB 54, 1703 (1996)
                                          Hartwigsen et al., PRB 58, 3641 (1998)
                                                      Krack, TCA 114, 145 (2005)

       Gaussian exponent of the core charge distribution:               8.360253
       Electronic configuration (s p d ...):                               2   4

       Parameters of the local part of the GTH pseudopotential:

                          rloc        C1          C2          C3          C4
                        0.244554  -16.667215    2.487311

       Parameters of the non-local part of the GTH pseudopotential:

                   l      r(l)      h(i,j,l)

                   0    0.220956   18.337458
                   1    0.211332

  2. Atomic kind: H                                     Number of atoms:     202

     Orbital Basis Set                                        DZVP-MOLOPT-SR-GTH

       Number of orbital shell sets:                                           1
       Number of orbital shells:                                               3
       Number of primitive Cartesian functions:                                5
       Number of Cartesian basis functions:                                    5
       Number of spherical basis functions:                                    5
       Norm type:                                                              2

       Normalised Cartesian orbitals:

                        Set   Shell   Orbital            Exponent    Coefficient

                          1       1    2s               10.068468      -0.133023
                                                         2.680223      -0.177618
                                                         0.791502      -0.258419
                                                         0.239116      -0.107525
                                                         0.082193      -0.014019

                          1       2    3s               10.068468       0.344673
                                                         2.680223       1.819821
                                                         0.791502      -0.999069
                                                         0.239116       0.017430
                                                         0.082193       0.082660

                          1       3    3px              10.068468       0.155326
                                                         2.680223       0.367157
                                                         0.791502       0.311480
                                                         0.239116       0.080105
                                                         0.082193       0.033440
                          1       3    3py              10.068468       0.155326
                                                         2.680223       0.367157
                                                         0.791502       0.311480
                                                         0.239116       0.080105
                                                         0.082193       0.033440
                          1       3    3pz              10.068468       0.155326
                                                         2.680223       0.367157
                                                         0.791502       0.311480
                                                         0.239116       0.080105
                                                         0.082193       0.033440

       Atomic covalent radius [Angstrom]:                                  0.320

       Atomic van der Waals radius [Angstrom]:                             1.090

     GTH Potential information for                                    GTH-PBE-q1

       Description:                       Goedecker-Teter-Hutter pseudopotential
                                           Goedecker et al., PRB 54, 1703 (1996)
                                          Hartwigsen et al., PRB 58, 3641 (1998)
                                                      Krack, TCA 114, 145 (2005)

       Gaussian exponent of the core charge distribution:              12.500000
       Electronic configuration (s p d ...):                                   1

       Parameters of the local part of the GTH pseudopotential:

                          rloc        C1          C2          C3          C4
                        0.200000   -4.178900    0.724463

  3. Atomic kind: Pt                                    Number of atoms:     216

     Orbital Basis Set                      DZVP-A5-Q10-323-MOL-T1-DERIVED_SET-1

       Number of orbital shell sets:                                           1
       Number of orbital shells:                                               6
       Number of primitive Cartesian functions:                                5
       Number of Cartesian basis functions:                                   23
       Number of spherical basis functions:                                   20
       Norm type:                                                              2

       Normalised Cartesian orbitals:

                        Set   Shell   Orbital            Exponent    Coefficient

                          1       1    2s                2.521825       0.177473
                                                         1.453920      -0.063399
                                                         0.614053      -0.407089
                                                         0.232656       0.262254
                                                         0.074788       0.047371

                          1       2    3s                2.521825      -0.049056
                                                         1.453920       0.044904
                                                         0.614053      -0.009756
                                                         0.232656      -0.144709
                                                         0.074788       0.144085

                          1       3    3px               2.521825      -0.317572
                                                         1.453920       0.534826
                                                         0.614053      -0.489458
                                                         0.232656       0.245631
                                                         0.074788       0.018221
                          1       3    3py               2.521825      -0.317572
                                                         1.453920       0.534826
                                                         0.614053      -0.489458
                                                         0.232656       0.245631
                                                         0.074788       0.018221
                          1       3    3pz               2.521825      -0.317572
                                                         1.453920       0.534826
                                                         0.614053      -0.489458
                                                         0.232656       0.245631
                                                         0.074788       0.018221

                          1       4    4dx2              2.521825       3.008522
                                                         1.453920      -1.224251
                                                         0.614053       0.225691
                                                         0.232656       0.125144
                                                         0.074788      -0.015348
                          1       4    4dxy              2.521825       5.210912
                                                         1.453920      -2.120465
                                                         0.614053       0.390909
                                                         0.232656       0.216756
                                                         0.074788      -0.026584
                          1       4    4dxz              2.521825       5.210912
                                                         1.453920      -2.120465
                                                         0.614053       0.390909
                                                         0.232656       0.216756
                                                         0.074788      -0.026584
                          1       4    4dy2              2.521825       3.008522
                                                         1.453920      -1.224251
                                                         0.614053       0.225691
                                                         0.232656       0.125144
                                                         0.074788      -0.015348
                          1       4    4dyz              2.521825       5.210912
                                                         1.453920      -2.120465
                                                         0.614053       0.390909
                                                         0.232656       0.216756
                                                         0.074788      -0.026584
                          1       4    4dz2              2.521825       3.008522
                                                         1.453920      -1.224251
                                                         0.614053       0.225691
                                                         0.232656       0.125144
                                                         0.074788      -0.015348

                          1       5    5dx2              2.521825       0.698026
                                                         1.453920      -1.511486
                                                         0.614053      -0.335394
                                                         0.232656      -0.025564
                                                         0.074788      -0.002699
                          1       5    5dxy              2.521825       1.209017
                                                         1.453920      -2.617970
                                                         0.614053      -0.580920
                                                         0.232656      -0.044277
                                                         0.074788      -0.004674
                          1       5    5dxz              2.521825       1.209017
                                                         1.453920      -2.617970
                                                         0.614053      -0.580920
                                                         0.232656      -0.044277
                                                         0.074788      -0.004674
                          1       5    5dy2              2.521825       0.698026
                                                         1.453920      -1.511486
                                                         0.614053      -0.335394
                                                         0.232656      -0.025564
                                                         0.074788      -0.002699
                          1       5    5dyz              2.521825       1.209017
                                                         1.453920      -2.617970
                                                         0.614053      -0.580920
                                                         0.232656      -0.044277
                                                         0.074788      -0.004674
                          1       5    5dz2              2.521825       0.698026
                                                         1.453920      -1.511486
                                                         0.614053      -0.335394
                                                         0.232656      -0.025564
                                                         0.074788      -0.002699

                          1       6    6dx2              2.521825       0.831079
                                                         1.453920      -0.709226
                                                         0.614053      -0.137351
                                                         0.232656       0.068642
                                                         0.074788       0.011745
                          1       6    6dxy              2.521825       1.439472
                                                         1.453920      -1.228415
                                                         0.614053      -0.237899
                                                         0.232656       0.118891
                                                         0.074788       0.020343
                          1       6    6dxz              2.521825       1.439472
                                                         1.453920      -1.228415
                                                         0.614053      -0.237899
                                                         0.232656       0.118891
                                                         0.074788       0.020343
                          1       6    6dy2              2.521825       0.831079
                                                         1.453920      -0.709226
                                                         0.614053      -0.137351
                                                         0.232656       0.068642
                                                         0.074788       0.011745
                          1       6    6dyz              2.521825       1.439472
                                                         1.453920      -1.228415
                                                         0.614053      -0.237899
                                                         0.232656       0.118891
                                                         0.074788       0.020343
                          1       6    6dz2              2.521825       0.831079
                                                         1.453920      -0.709226
                                                         0.614053      -0.137351
                                                         0.232656       0.068642
                                                         0.074788       0.011745

       Atomic covalent radius [Angstrom]:                                  1.300

       Atomic van der Waals radius [Angstrom]:                             1.750

     GTH Potential information for                                   GTH-PBE-q10

       Description:                       Goedecker-Teter-Hutter pseudopotential
                                           Goedecker et al., PRB 54, 1703 (1996)
                                          Hartwigsen et al., PRB 58, 3641 (1998)
                                                      Krack, TCA 114, 145 (2005)

       Gaussian exponent of the core charge distribution:               1.317676
       Electronic configuration (s p d ...):                           1   0   9

       Parameters of the local part of the GTH pseudopotential:

                          rloc        C1          C2          C3          C4
                        0.616000   11.313635

       Parameters of the non-local part of the GTH pseudopotential:

                   l      r(l)      h(i,j,l)

                   0    0.550904    4.733491   -1.784594
                                   -1.784594    2.303901
                   1    0.674138    2.534798   -1.778066
                                   -1.778066    2.103836
                   2    0.457392   -7.264011    2.558665
                                    2.558665   -2.901253


 MOLECULE KIND INFORMATION


 All atoms are their own molecule, skipping detailed information


 TOTAL NUMBERS AND MAXIMUM NUMBERS

  Total number of            - Atomic kinds:                                   3
                             - Atoms:                                        519
                             - Shell sets:                                   519
                             - Shells:                                      2407
                             - Primitive Cartesian functions:               2595
                             - Cartesian basis functions:                   7392
                             - Spherical basis functions:                   6643

  Maximum angular momentum of- Orbital basis functions:                        2
                             - Local part of the GTH pseudopotential:          2
                             - Non-local part of the GTH pseudopotential:      4


 MODULE QUICKSTEP:  ATOMIC COORDINATES IN angstrom

 Atom  Kind  Element       X           Y           Z          Z(eff)       Mass
    1   1 O    8       3.220000   -2.950000   38.047999       6.0000     15.9994
    2   2 H    1       2.590000   -2.450000   38.567998       1.0000      1.0079
    3   2 H    1       2.930000   -3.890000   38.167998       1.0000      1.0079
    4   1 O    8     -16.230000  -18.020000   37.198001       6.0000     15.9994
    5   2 H    1     -16.450001  -17.590000   38.068000       1.0000      1.0079
    6   2 H    1     -15.470000  -18.580000   37.447999       1.0000      1.0079
    7   1 O    8       6.790000   13.240002   36.067998       6.0000     15.9994
    8   2 H    1       6.620001   13.260001   37.058001       1.0000      1.0079
    9   2 H    1       7.640000   13.670001   35.837998       1.0000      1.0079
   10   1 O    8      -9.740001  -21.160002   31.088000       6.0000     15.9994
   11   2 H    1      -9.080001  -20.580002   31.608001       1.0000      1.0079
   12   2 H    1      -9.180000  -21.600000   30.418002       1.0000      1.0079
   13   1 O    8       9.950001   -8.640000   33.057999       6.0000     15.9994
   14   2 H    1       9.230001   -8.080000   32.717997       1.0000      1.0079
   15   2 H    1      10.370001   -8.100000   33.748000       1.0000      1.0079
   16   1 O    8     -12.420001    6.670001   36.468001       6.0000     15.9994
   17   2 H    1     -12.480001    7.700000   36.648000       1.0000      1.0079
   18   2 H    1     -11.700001    6.410000   37.087998       1.0000      1.0079
   19   1 O    8      -0.010000  -13.560000   32.387997       6.0000     15.9994
   20   2 H    1       0.340000  -12.790001   32.807998       1.0000      1.0079
   21   2 H    1       0.700000  -14.220000   32.307999       1.0000      1.0079
   22   1 O    8      22.080002    2.390000   36.598000       6.0000     15.9994
   23   2 H    1      21.460001    3.080000   36.267999       1.0000      1.0079
   24   2 H    1      22.030001    1.660000   35.948001       1.0000      1.0079
   25   1 O    8     -19.110001   30.510002   33.297999       6.0000     15.9994
   26   2 H    1     -18.280001   30.730001   32.907998       1.0000      1.0079
   27   2 H    1      -2.970000   31.060001   32.847998       1.0000      1.0079
   28   1 O    8     -10.270000   20.050001   30.047999       6.0000     15.9994
   29   2 H    1     -10.470000   20.070002   31.018000       1.0000      1.0079
   30   2 H    1     -10.010000   20.980000   29.748000       1.0000      1.0079
   31   1 O    8      -5.660000    7.170000   30.107997       6.0000     15.9994
   32   2 H    1      -5.330000    7.000000   31.067998       1.0000      1.0079
   33   2 H    1      -5.660000    8.130000   29.917998       1.0000      1.0079
   34   1 O    8       4.360000   -7.580000   38.968001       6.0000     15.9994
   35   2 H    1       5.240001   -7.270000   39.377999       1.0000      1.0079
   36   2 H    1       4.150000   -8.290001   39.628001       1.0000      1.0079
   37   1 O    8      19.420002   10.000000   38.617999       6.0000     15.9994
   38   2 H    1      20.290001    9.840000   38.078000       1.0000      1.0079
   39   2 H    1       2.660000   10.630001   39.377999       1.0000      1.0079
   40   1 O    8     -12.470001    9.760000   34.537999       6.0000     15.9994
   41   2 H    1     -11.660000   10.290001   34.257998       1.0000      1.0079
   42   2 H    1     -12.440001    8.810000   34.137999       1.0000      1.0079
   43   1 O    8     -17.930000   18.200001   35.537999       6.0000     15.9994
   44   2 H    1     -18.880001   17.850000   35.948001       1.0000      1.0079
   45   2 H    1     -17.880001   17.770000   34.728000       1.0000      1.0079
   46   1 O    8      12.340001   10.300001   34.467999       6.0000     15.9994
   47   2 H    1      12.230001   11.250000   34.787997       1.0000      1.0079
   48   2 H    1      12.570001    9.830000   35.307998       1.0000      1.0079
   49   1 O    8     -10.500001   19.780001   32.588000       6.0000     15.9994
   50   2 H    1     -18.090002   34.100002   32.998000       1.0000      1.0079
   51   2 H    1     -11.180000   19.090000   32.478000       1.0000      1.0079
   52   1 O    8       1.670000    0.900000   29.207999       6.0000     15.9994
   53   2 H    1       0.800000    1.140000   29.658000       1.0000      1.0079
   54   2 H    1       1.940000   -0.020000   29.557998       1.0000      1.0079
   55   1 O    8     -22.160000    1.140000   34.198001       6.0000     15.9994
   56   2 H    1     -22.750000    1.220000   35.057999       1.0000      1.0079
   57   2 H    1     -21.420002    0.590000   34.487998       1.0000      1.0079
   58   1 O    8       0.910000    5.590000   38.297999       6.0000     15.9994
   59   2 H    1       1.470000    6.380000   38.648000       1.0000      1.0079
   60   2 H    1       0.200000    6.080000   37.867999       1.0000      1.0079
   61   1 O    8     -33.380001   20.230000   38.527999       6.0000     15.9994
   62   2 H    1     -32.910000   20.480001   39.357999       1.0000      1.0079
   63   2 H    1     -32.770000   20.050001   37.818000       1.0000      1.0079
   64   1 O    8      36.959999   -4.640000   29.897998       6.0000     15.9994
   65   2 H    1      37.130001   -4.410000   28.957999       1.0000      1.0079
   66   2 H    1      37.920002   -4.520000   30.207999       1.0000      1.0079
   67   1 O    8       7.130001    9.900001   37.777999       6.0000     15.9994
   68   2 H    1       7.560000    9.130000   37.297999       1.0000      1.0079
   69   2 H    1       7.100000    9.560000   38.738000       1.0000      1.0079
   70   1 O    8      -6.760001   14.580001   32.347998       6.0000     15.9994
   71   2 H    1      -5.970000   15.150002   32.487998       1.0000      1.0079
   72   2 H    1      -6.530001   13.790001   31.838000       1.0000      1.0079
   73   1 O    8      12.520000   -3.220000   31.487998       6.0000     15.9994
   74   2 H    1      13.250000   -3.920000   31.508000       1.0000      1.0079
   75   2 H    1      12.970000   -2.390000   31.707999       1.0000      1.0079
   76   1 O    8       5.680000   13.230000   32.637999       6.0000     15.9994
   77   2 H    1       5.700001   14.220000   32.697999       1.0000      1.0079
   78   2 H    1       6.170001   12.790001   33.387999       1.0000      1.0079
   79   1 O    8       8.510000   16.190001   31.338000       6.0000     15.9994
   80   2 H    1       9.090000   16.910002   31.187999       1.0000      1.0079
   81   2 H    1       9.050000   15.480001   31.857999       1.0000      1.0079
   82   1 O    8     -34.389999    7.310000   36.267999       6.0000     15.9994
   83   2 H    1     -34.740002    8.010000   36.757998       1.0000      1.0079
   84   2 H    1     -34.940002    7.120000   35.498000       1.0000      1.0079
   85   1 O    8       0.000000  -17.270000   39.598000       6.0000     15.9994
   86   2 H    1       0.100000  -16.350000   40.007998       1.0000      1.0079
   87   2 H    1       0.590000  -17.800001   40.107999       1.0000      1.0079
   88   1 O    8       3.680000  -11.930000   37.398000       6.0000     15.9994
   89   2 H    1       4.280000  -12.560000   37.068000       1.0000      1.0079
   90   2 H    1       3.200000  -12.200001   38.197999       1.0000      1.0079
   91   1 O    8     -18.530001    0.900000   39.898000       6.0000     15.9994
   92   2 H    1     -18.710001    1.850000   40.068000       1.0000      1.0079
   93   2 H    1     -18.390001    0.590000   40.827998       1.0000      1.0079
   94   1 O    8      31.850002    3.940000   39.758000       6.0000     15.9994
   95   2 H    1      32.170002    4.290000   38.838000       1.0000      1.0079
   96   2 H    1      30.910000    4.100000   39.758000       1.0000      1.0079
   97   1 O    8      -1.930000   15.190001   38.897998       6.0000     15.9994
   98   2 H    1      14.550000   15.890001   38.327998       1.0000      1.0079
   99   2 H    1      -2.490000   14.340000   38.697999       1.0000      1.0079
  100   1 O    8       2.980000    7.710000   29.187999       6.0000     15.9994
  101   2 H    1       2.350000    8.210000   29.687999       1.0000      1.0079
  102   2 H    1       3.780000    8.180000   29.568000       1.0000      1.0079
  103   1 O    8      -9.160001   29.040001   34.698001       6.0000     15.9994
  104   2 H    1      -9.070001   28.030003   34.777999       1.0000      1.0079
  105   2 H    1      -8.890000   29.280003   33.827998       1.0000      1.0079
  106   1 O    8       0.460000   -3.310000   30.068000       6.0000     15.9994
  107   2 H    1      -8.910000   11.650001   30.167998       1.0000      1.0079
  108   2 H    1       0.510000   -3.690000   29.167998       1.0000      1.0079
  109   1 O    8      10.590000   -6.990001   39.607999       6.0000     15.9994
  110   2 H    1      11.570001   -7.140000   39.728000       1.0000      1.0079
  111   2 H    1      10.670000   -6.050000   39.098000       1.0000      1.0079
  112   1 O    8      17.170002    3.610000   29.097998       6.0000     15.9994
  113   2 H    1      16.390001    4.190001   29.417998       1.0000      1.0079
  114   2 H    1      17.910002    4.200000   29.367999       1.0000      1.0079
  115   1 O    8      18.390001    2.840000   38.547999       6.0000     15.9994
  116   2 H    1      18.120001    3.810000   38.367999       1.0000      1.0079
  117   2 H    1      18.190001    2.420000   37.697999       1.0000      1.0079
  118   1 O    8      -6.150000   -9.510000   30.327998       6.0000     15.9994
  119   2 H    1      -6.350000   -9.420000   31.307999       1.0000      1.0079
  120   2 H    1      -5.730000   -8.620001   30.087996       1.0000      1.0079
  121   1 O    8      30.670002   -9.400001   30.537999       6.0000     15.9994
  122   2 H    1      31.000002  -10.170001   30.027999       1.0000      1.0079
  123   2 H    1      31.230001   -8.660001   30.257998       1.0000      1.0079
  124   1 O    8     -28.620003   29.710003   34.828000       6.0000     15.9994
  125   2 H    1     -10.760001   29.460001   34.838000       1.0000      1.0079
  126   2 H    1     -29.160002   28.950003   35.137999       1.0000      1.0079
  127   1 O    8      -6.810000    2.520000   39.207999       6.0000     15.9994
  128   2 H    1      -7.470000    3.120000   38.827998       1.0000      1.0079
  129   2 H    1      -6.510000    2.760000   40.127999       1.0000      1.0079
  130   1 O    8      -2.250000   17.800001   29.038001       6.0000     15.9994
  131   2 H    1      -1.260000   17.740000   29.167998       1.0000      1.0079
  132   2 H    1      -2.580000   17.030001   29.608001       1.0000      1.0079
  133   1 O    8      -2.540000   30.900002   36.078000       6.0000     15.9994
  134   2 H    1      -2.130000   30.150002   36.497998       1.0000      1.0079
  135   2 H    1      -2.330000   30.760002   35.088000       1.0000      1.0079
  136   1 O    8      14.040001   12.760000   38.857999       6.0000     15.9994
  137   2 H    1      13.150001   12.420001   38.518000       1.0000      1.0079
  138   2 H    1      14.810000   12.150001   38.687999       1.0000      1.0079
  139   1 O    8     -13.220000   27.570002   35.607999       6.0000     15.9994
  140   2 H    1     -13.340001   27.180002   36.497998       1.0000      1.0079
  141   2 H    1     -14.070001   27.970001   35.407998       1.0000      1.0079
  142   1 O    8       7.760000    3.630000   32.428000       6.0000     15.9994
  143   2 H    1       6.760001    3.770000   32.547999       1.0000      1.0079
  144   2 H    1       8.340000    4.250000   32.957999       1.0000      1.0079
  145   1 O    8       8.450001   18.810001   34.507998       6.0000     15.9994
  146   2 H    1       9.050000   19.570002   34.248000       1.0000      1.0079
  147   2 H    1       8.270000   18.980001   35.477998       1.0000      1.0079
  148   1 O    8     -23.880001   34.800003   34.047999       6.0000     15.9994
  149   2 H    1     -23.730001   34.310001   34.908000       1.0000      1.0079
  150   2 H    1     -24.740002   35.290001   34.068000       1.0000      1.0079
  151   1 O    8       0.180000   18.270000   29.847998       6.0000     15.9994
  152   2 H    1       8.960000    4.450000   29.507998       1.0000      1.0079
  153   2 H    1     -16.930000   18.300001   30.807998       1.0000      1.0079
  154   1 O    8       4.350000   -9.150001   28.997996       6.0000     15.9994
  155   2 H    1       5.250000   -9.350000   29.318000       1.0000      1.0079
  156   2 H    1       3.910000   -8.290001   29.347998       1.0000      1.0079
  157   1 O    8     -11.370001    7.140000   33.318000       6.0000     15.9994
  158   2 H    1     -12.020000    6.530001   32.918000       1.0000      1.0079
  159   2 H    1     -10.800000    7.320001   32.547999       1.0000      1.0079
  160   1 O    8     -18.740002   -2.400000   30.128001       6.0000     15.9994
  161   2 H    1     -19.010002   -1.880000   30.927998       1.0000      1.0079
  162   2 H    1     -18.860001   -1.970000   29.228000       1.0000      1.0079
  163   1 O    8      -5.910000    8.720000   38.367999       6.0000     15.9994
  164   2 H    1      -6.520000    8.430000   37.647998       1.0000      1.0079
  165   2 H    1      -5.260000    8.040000   38.597998       1.0000      1.0079
  166   1 O    8      -4.330000   -1.670000   35.467999       6.0000     15.9994
  167   2 H    1      -3.320000   -1.720000   35.488000       1.0000      1.0079
  168   2 H    1      -4.420000   -1.570000   34.457999       1.0000      1.0079
  169   1 O    8      -6.920000    3.870000   36.318000       6.0000     15.9994
  170   2 H    1      -6.230001    3.200000   36.598000       1.0000      1.0079
  171   2 H    1      -7.700000    3.380000   36.238000       1.0000      1.0079
  172   1 O    8      12.340001   19.020000   35.297999       6.0000     15.9994
  173   2 H    1      21.020000    4.440001   34.357999       1.0000      1.0079
  174   2 H    1      12.810000   19.750002   35.717999       1.0000      1.0079
  175   1 O    8       6.910000   24.170000   37.758000       6.0000     15.9994
  176   2 H    1       7.600000   24.780003   37.577998       1.0000      1.0079
  177   2 H    1       7.010000   24.020002   38.748000       1.0000      1.0079
  178   1 O    8       8.470000   -5.990000   33.037999       6.0000     15.9994
  179   2 H    1       8.970000   -5.490000   33.637997       1.0000      1.0079
  180   2 H    1       7.570000   -5.680000   33.137999       1.0000      1.0079
  181   1 O    8      -2.970000   12.930001   29.987998       6.0000     15.9994
  182   2 H    1      -2.940000   13.130001   29.067996       1.0000      1.0079
  183   2 H    1       5.730000   -2.600000   30.117999       1.0000      1.0079
  184   1 O    8      -3.810000    8.990001   36.547999       6.0000     15.9994
  185   2 H    1      -4.520000    8.990001   37.198001       1.0000      1.0079
  186   2 H    1      -3.040000    9.380000   37.037999       1.0000      1.0079
  187   1 O    8       1.950000   23.450001   33.847998       6.0000     15.9994
  188   2 H    1       2.290000   22.740002   33.197999       1.0000      1.0079
  189   2 H    1      11.160001    9.480001   34.047999       1.0000      1.0079
  190   1 O    8      14.400001   10.350000   30.488002       6.0000     15.9994
  191   2 H    1      14.600000   10.280000   31.447999       1.0000      1.0079
  192   2 H    1      14.860001    9.510000   30.007998       1.0000      1.0079
  193   1 O    8       1.730000    2.050000   35.307998       6.0000     15.9994
  194   2 H    1       1.320000    2.810000   34.828000       1.0000      1.0079
  195   2 H    1       2.580000    2.420000   35.507998       1.0000      1.0079
  196   1 O    8       6.900001   18.790001   37.068000       6.0000     15.9994
  197   2 H    1       6.070001   19.390001   36.978000       1.0000      1.0079
  198   2 H    1       6.550000   17.889999   36.967999       1.0000      1.0079
  199   1 O    8     -14.340000  -15.680000   37.688001       6.0000     15.9994
  200   2 H    1     -13.610001  -16.049999   37.107999       1.0000      1.0079
  201   2 H    1     -14.940001  -16.430000   37.597998       1.0000      1.0079
  202   1 O    8      -6.180000   -0.550000   32.358001       6.0000     15.9994
  203   2 H    1      -5.960000    0.070000   33.177998       1.0000      1.0079
  204   2 H    1      -5.460000   -0.400000   31.727998       1.0000      1.0079
  205   1 O    8       0.040000   -4.540000   32.437999       6.0000     15.9994
  206   2 H    1       0.310000   -4.130000   31.547999       1.0000      1.0079
  207   2 H    1       0.940000   -4.950000   32.737998       1.0000      1.0079
  208   1 O    8       5.120000    9.180000   30.087996       6.0000     15.9994
  209   2 H    1       5.180000    9.750000   29.277999       1.0000      1.0079
  210   2 H    1       6.050000    8.920000   30.237998       1.0000      1.0079
  211   1 O    8      -0.020000   13.270000   29.897998       6.0000     15.9994
  212   2 H    1      -9.160001   27.520000   29.367999       1.0000      1.0079
  213   2 H    1       0.600000   12.500000   30.117999       1.0000      1.0079
  214   1 O    8      14.220000    6.970000   34.408000       6.0000     15.9994
  215   2 H    1       5.940001   20.740002   33.947999       1.0000      1.0079
  216   2 H    1       5.400000   21.510000   35.337998       1.0000      1.0079
  217   1 O    8       7.420001    6.390000   35.597998       6.0000     15.9994
  218   2 H    1       6.600000    6.660000   35.068000       1.0000      1.0079
  219   2 H    1       7.370000    5.440001   35.467999       1.0000      1.0079
  220   1 O    8      10.460000   21.730001   35.377997       6.0000     15.9994
  221   2 H    1      10.880001   21.170002   36.008000       1.0000      1.0079
  222   2 H    1       9.580001   21.950001   35.757998       1.0000      1.0079
  223   1 O    8     -17.530001   11.700001   34.838000       6.0000     15.9994
  224   2 H    1     -16.590000   11.550001   34.498000       1.0000      1.0079
  225   2 H    1     -17.440001   11.390000   35.787999       1.0000      1.0079
  226   1 O    8      11.890000    6.910000   32.617999       6.0000     15.9994
  227   2 H    1      11.340000    6.300001   33.137999       1.0000      1.0079
  228   2 H    1      12.700001    7.110000   33.177998       1.0000      1.0079
  229   1 O    8       8.780001    6.410000   29.687999       6.0000     15.9994
  230   2 H    1       9.660000    6.720000   29.998000       1.0000      1.0079
  231   2 H    1       8.660001    6.640000   28.707999       1.0000      1.0079
  232   1 O    8     -18.280001    8.140000   29.768000       6.0000     15.9994
  233   2 H    1     -17.280001    8.260000   29.867999       1.0000      1.0079
  234   2 H    1     -18.320002    8.140000   28.687999       1.0000      1.0079
  235   1 O    8       1.520000  -18.050001   33.427998       6.0000     15.9994
  236   2 H    1       1.550000  -17.340000   32.767999       1.0000      1.0079
  237   2 H    1       2.500000  -18.250000   33.527999       1.0000      1.0079
  238   1 O    8       3.360000    2.840000   29.077998       6.0000     15.9994
  239   2 H    1       3.200000    3.670000   29.617999       1.0000      1.0079
  240   2 H    1       2.820000    2.030000   29.318000       1.0000      1.0079
  241   1 O    8      12.340001   15.870001   32.507998       6.0000     15.9994
  242   2 H    1      12.820001   15.650001   31.678000       1.0000      1.0079
  243   2 H    1      12.870001   15.560001   33.297999       1.0000      1.0079
  244   1 O    8       6.260000   12.980001   38.838000       6.0000     15.9994
  245   2 H    1       6.430000   13.940001   39.087998       1.0000      1.0079
  246   2 H    1       7.070000   12.500000   39.108001       1.0000      1.0079
  247   1 O    8      29.690001    2.970000   32.597998       6.0000     15.9994
  248   2 H    1      29.200001    3.010000   31.687999       1.0000      1.0079
  249   2 H    1      28.980003    2.620000   33.158000       1.0000      1.0079
  250   1 O    8     -15.490000   15.760001   36.137999       6.0000     15.9994
  251   2 H    1     -15.200001   15.270000   36.947999       1.0000      1.0079
  252   2 H    1     -16.320002   15.300001   35.887999       1.0000      1.0079
  253   1 O    8      26.810001    0.850000   29.088000       6.0000     15.9994
  254   2 H    1      27.690001    0.660000   29.408000       1.0000      1.0079
  255   2 H    1      26.250002    0.100000   29.338000       1.0000      1.0079
  256   1 O    8       0.760000   -2.140000   39.507998       6.0000     15.9994
  257   2 H    1       0.760000   -2.910000   40.077998       1.0000      1.0079
  258   2 H    1       1.180000   -1.560000   40.158000       1.0000      1.0079
  259   1 O    8       5.070000    3.930000   32.788001       6.0000     15.9994
  260   2 H    1       4.990000    4.470000   31.927998       1.0000      1.0079
  261   2 H    1       4.480000    3.130000   32.597998       1.0000      1.0079
  262   1 O    8      -3.840000    5.600000   36.678000       6.0000     15.9994
  263   2 H    1      -3.930000    6.200000   37.498000       1.0000      1.0079
  264   2 H    1      -4.500000    4.880000   36.828000       1.0000      1.0079
  265   1 O    8      -7.210000   23.470001   30.577998       6.0000     15.9994
  266   2 H    1      -7.250000   24.490002   30.347998       1.0000      1.0079
  267   2 H    1      -7.320001   23.430002   31.547999       1.0000      1.0079
  268   1 O    8      11.760000    3.220000   30.268000       6.0000     15.9994
  269   2 H    1       2.510000   17.490002   29.797999       1.0000      1.0079
  270   2 H    1      12.160001    3.920000   29.698001       1.0000      1.0079
  271   1 O    8      14.610001    1.640000   29.967997       6.0000     15.9994
  272   2 H    1      15.000001    1.830000   29.047999       1.0000      1.0079
  273   2 H    1      15.360001    1.340000   30.527999       1.0000      1.0079
  274   1 O    8     -10.840001    5.860000   38.678000       6.0000     15.9994
  275   2 H    1      -9.840000    5.740000   38.608001       1.0000      1.0079
  276   2 H    1     -11.180000    5.010000   39.098000       1.0000      1.0079
  277   1 O    8      -6.010000   13.120001   30.037997       6.0000     15.9994
  278   2 H    1      -5.030000   12.860001   29.887999       1.0000      1.0079
  279   2 H    1      -6.470000   12.380000   29.617999       1.0000      1.0079
  280   1 O    8     -11.090001   30.250000   30.677998       6.0000     15.9994
  281   2 H    1     -10.270000   30.300003   31.167998       1.0000      1.0079
  282   2 H    1     -11.050000   29.380001   30.338000       1.0000      1.0079
  283   1 O    8      21.370001    9.390000   37.068000       6.0000     15.9994
  284   2 H    1      21.340000    9.570000   36.088000       1.0000      1.0079
  285   2 H    1      22.360001    9.550000   37.288001       1.0000      1.0079
  286   1 O    8      -7.680000  -21.049999   36.257998       6.0000     15.9994
  287   2 H    1      -7.240000  -20.840000   35.358001       1.0000      1.0079
  288   2 H    1      -8.150001  -21.890001   35.927998       1.0000      1.0079
  289   1 O    8       6.760001   11.260000   34.097998       6.0000     15.9994
  290   2 H    1       7.540000   10.840001   33.608001       1.0000      1.0079
  291   2 H    1       7.000000   11.400002   34.967999       1.0000      1.0079
  292   1 O    8       9.660000  -15.190001   35.328000       6.0000     15.9994
  293   2 H    1       9.560000  -15.270000   34.297999       1.0000      1.0079
  294   2 H    1       9.760000  -14.230001   35.527999       1.0000      1.0079
  295   1 O    8     -14.890001   11.280001   29.877997       6.0000     15.9994
  296   2 H    1     -14.690001   11.420001   28.957999       1.0000      1.0079
  297   2 H    1     -14.090000   11.300000   30.358001       1.0000      1.0079
  298   1 O    8      -4.380000    0.090000   30.147998       6.0000     15.9994
  299   2 H    1      -4.080000   -0.670000   29.577998       1.0000      1.0079
  300   2 H    1      -3.620000    0.720000   30.107997       1.0000      1.0079
  301   1 O    8     -10.680000   -4.440001   33.257998       6.0000     15.9994
  302   2 H    1     -10.190001   -3.910000   33.947999       1.0000      1.0079
  303   2 H    1     -11.650001   -4.330000   33.488000       1.0000      1.0079
  304   3 Pt  78       1.720000    0.760000   26.937999      10.0000    195.0840
  305   3 Pt  78       4.550000    0.500000   26.797999      10.0000    195.0840
  306   3 Pt  78       7.400000    0.640000   26.857997      10.0000    195.0840
  307   3 Pt  78      10.280000    0.690000   26.878001      10.0000    195.0840
  308   3 Pt  78      13.020000    0.580000   26.878001      10.0000    195.0840
  309   3 Pt  78      15.800000    0.660000   26.857997      10.0000    195.0840
  310   3 Pt  78       3.140000    3.010000   26.878001      10.0000    195.0840
  311   3 Pt  78       5.960000    3.040000   26.787997      10.0000    195.0840
  312   3 Pt  78       8.850000    3.040000   26.667998      10.0000    195.0840
  313   3 Pt  78      11.560000    3.160000   26.838000      10.0000    195.0840
  314   3 Pt  78      14.330001    3.140000   26.897998      10.0000    195.0840
  315   3 Pt  78       0.160000    3.200000   26.857997      10.0000    195.0840
  316   3 Pt  78       4.460000    5.470000   26.667998      10.0000    195.0840
  317   3 Pt  78       7.300000    5.570001   26.588000      10.0000    195.0840
  318   3 Pt  78      10.070001    5.440001   26.757998      10.0000    195.0840
  319   3 Pt  78      12.950001    5.480001   26.808001      10.0000    195.0840
  320   3 Pt  78      -1.170000    5.660000   26.887999      10.0000    195.0840
  321   3 Pt  78       1.630000    5.680000   26.738002      10.0000    195.0840
  322   3 Pt  78       5.950000    8.000000   26.748000      10.0000    195.0840
  323   3 Pt  78       8.640000    7.980001   27.027999      10.0000    195.0840
  324   3 Pt  78      11.510000    7.830000   26.838000      10.0000    195.0840
  325   3 Pt  78      -2.480000    8.000000   26.897998      10.0000    195.0840
  326   3 Pt  78       0.370000    8.120001   26.728000      10.0000    195.0840
  327   3 Pt  78       3.030000    8.100000   26.838000      10.0000    195.0840
  328   3 Pt  78       7.310000   10.440001   26.857997      10.0000    195.0840
  329   3 Pt  78      10.130000   10.180000   27.018000      10.0000    195.0840
  330   3 Pt  78      -3.890000   10.310000   26.897998      10.0000    195.0840
  331   3 Pt  78      -1.070000   10.400001   26.957999      10.0000    195.0840
  332   3 Pt  78       1.820000   10.470000   26.857997      10.0000    195.0840
  333   3 Pt  78       4.580000   10.450001   26.827998      10.0000    195.0840
  334   3 Pt  78       8.740000   12.890000   26.908000      10.0000    195.0840
  335   3 Pt  78      -5.380001   12.690001   26.897998      10.0000    195.0840
  336   3 Pt  78      -2.430000   12.640000   26.847998      10.0000    195.0840
  337   3 Pt  78       0.450000   12.900001   26.867999      10.0000    195.0840
  338   3 Pt  78       3.190000   12.910000   26.767997      10.0000    195.0840
  339   3 Pt  78       5.970000   12.930001   26.728000      10.0000    195.0840
  340   3 Pt  78       0.260000    1.640000   24.577998      10.0000    195.0840
  341   3 Pt  78       3.080000    1.500000   24.647998      10.0000    195.0840
  342   3 Pt  78       5.920000    1.540000   24.478000      10.0000    195.0840
  343   3 Pt  78       8.640000    1.430000   24.408000      10.0000    195.0840
  344   3 Pt  78      11.560000    1.460000   24.487998      10.0000    195.0840
  345   3 Pt  78      14.340000    1.510000   24.597998      10.0000    195.0840
  346   3 Pt  78       1.800000    4.040000   24.588000      10.0000    195.0840
  347   3 Pt  78       4.530000    3.840000   24.468001      10.0000    195.0840
  348   3 Pt  78       7.380000    3.960000   24.308001      10.0000    195.0840
  349   3 Pt  78      10.130000    3.910000   24.338000      10.0000    195.0840
  350   3 Pt  78      12.910000    3.930000   24.427996      10.0000    195.0840
  351   3 Pt  78      -1.240000    4.030000   24.527999      10.0000    195.0840
  352   3 Pt  78       3.090000    6.480000   24.497996      10.0000    195.0840
  353   3 Pt  78       5.900001    6.370000   24.417998      10.0000    195.0840
  354   3 Pt  78       8.760000    6.450000   24.448001      10.0000    195.0840
  355   3 Pt  78      11.440001    6.340000   24.478000      10.0000    195.0840
  356   3 Pt  78      -2.500000    6.410000   24.478000      10.0000    195.0840
  357   3 Pt  78       0.260000    6.350000   24.427996      10.0000    195.0840
  358   3 Pt  78       4.470000    8.920000   24.437999      10.0000    195.0840
  359   3 Pt  78       7.290000    8.860001   24.518000      10.0000    195.0840
  360   3 Pt  78      10.050000    8.880001   24.608001      10.0000    195.0840
  361   3 Pt  78      -3.930000    8.770000   24.507998      10.0000    195.0840
  362   3 Pt  78      -1.130000    8.830000   24.408000      10.0000    195.0840
  363   3 Pt  78       1.660000    8.890000   24.547999      10.0000    195.0840
  364   3 Pt  78       6.020000   11.190001   24.487998      10.0000    195.0840
  365   3 Pt  78       8.710001   11.380000   24.557998      10.0000    195.0840
  366   3 Pt  78      -5.330000   11.260000   24.627997      10.0000    195.0840
  367   3 Pt  78      -2.410000   11.150000   24.497996      10.0000    195.0840
  368   3 Pt  78       0.390000   11.260000   24.457999      10.0000    195.0840
  369   3 Pt  78       3.200000   11.270000   24.417998      10.0000    195.0840
  370   3 Pt  78       7.340000   13.810000   24.457999      10.0000    195.0840
  371   3 Pt  78      -6.770000   13.770000   24.658000      10.0000    195.0840
  372   3 Pt  78      -3.860000   13.650000   24.547999      10.0000    195.0840
  373   3 Pt  78      -1.110000   13.670001   24.627997      10.0000    195.0840
  374   3 Pt  78       1.690000   13.650000   24.507998      10.0000    195.0840
  375   3 Pt  78       4.520000   13.710001   24.378001      10.0000    195.0840
  376   3 Pt  78      -8.270000   14.570000   22.198001      10.0000    195.0840
  377   3 Pt  78      -5.470000   14.560001   22.357997      10.0000    195.0840
  378   3 Pt  78      -2.590000   14.500000   22.237998      10.0000    195.0840
  379   3 Pt  78       0.180000   14.430000   22.177996      10.0000    195.0840
  380   3 Pt  78       2.960000   14.440001   22.147998      10.0000    195.0840
  381   3 Pt  78       5.810000   14.530001   22.088000      10.0000    195.0840
  382   3 Pt  78       1.550000    2.450000   22.217997      10.0000    195.0840
  383   3 Pt  78       4.440001    2.420000   22.137999      10.0000    195.0840
  384   3 Pt  78       7.290000    2.280000   22.097998      10.0000    195.0840
  385   3 Pt  78      10.030001    2.160000   22.068000      10.0000    195.0840
  386   3 Pt  78      12.880001    2.300000   22.077998      10.0000    195.0840
  387   3 Pt  78      -1.270000    2.310000   22.217997      10.0000    195.0840
  388   3 Pt  78       3.090000    4.820000   22.217997      10.0000    195.0840
  389   3 Pt  78       5.850000    4.830000   22.167998      10.0000    195.0840
  390   3 Pt  78       8.690001    4.840000   22.047995      10.0000    195.0840
  391   3 Pt  78      11.350001    4.770000   22.128001      10.0000    195.0840
  392   3 Pt  78      -2.680000    4.720000   22.198001      10.0000    195.0840
  393   3 Pt  78       0.190000    4.730000   22.207999      10.0000    195.0840
  394   3 Pt  78       4.430000    7.210000   22.147998      10.0000    195.0840
  395   3 Pt  78       7.250000    7.210000   22.167998      10.0000    195.0840
  396   3 Pt  78      10.000000    7.320001   22.167998      10.0000    195.0840
  397   3 Pt  78      -4.060000    7.220001   22.217997      10.0000    195.0840
  398   3 Pt  78      -1.150000    7.160000   22.107997      10.0000    195.0840
  399   3 Pt  78       1.620000    7.210000   22.207999      10.0000    195.0840
  400   3 Pt  78       5.840001    9.680000   22.177996      10.0000    195.0840
  401   3 Pt  78       8.650001    9.650001   22.327998      10.0000    195.0840
  402   3 Pt  78      -5.330000    9.690001   22.357997      10.0000    195.0840
  403   3 Pt  78      -2.590000    9.590000   22.167998      10.0000    195.0840
  404   3 Pt  78       0.260000    9.580001   22.167998      10.0000    195.0840
  405   3 Pt  78       3.010000    9.700001   22.128001      10.0000    195.0840
  406   3 Pt  78       7.190001   12.120000   22.147998      10.0000    195.0840
  407   3 Pt  78      -6.900001   12.100000   22.277999      10.0000    195.0840
  408   3 Pt  78      -4.030000   12.050000   22.277999      10.0000    195.0840
  409   3 Pt  78      -1.200000   11.960001   22.247996      10.0000    195.0840
  410   3 Pt  78       1.560000   12.070000   22.077998      10.0000    195.0840
  411   3 Pt  78       4.400000   12.140001   22.107997      10.0000    195.0840
  412   3 Pt  78       1.630000    0.690000   19.980000      10.0000    195.0840
  413   3 Pt  78       4.430000    0.600000   20.010000      10.0000    195.0840
  414   3 Pt  78       7.150001    0.680000   19.810000      10.0000    195.0840
  415   3 Pt  78       9.950001    0.710000   19.790000      10.0000    195.0840
  416   3 Pt  78      12.740001    0.740000   19.810000      10.0000    195.0840
  417   3 Pt  78      15.600000    0.720000   19.880000      10.0000    195.0840
  418   3 Pt  78       3.060000    3.080000   19.880000      10.0000    195.0840
  419   3 Pt  78       5.730000    3.180000   19.840000      10.0000    195.0840
  420   3 Pt  78       8.520000    3.180000   19.780000      10.0000    195.0840
  421   3 Pt  78      11.300000    3.130000   19.850000      10.0000    195.0840
  422   3 Pt  78      14.190001    3.150000   19.760000      10.0000    195.0840
  423   3 Pt  78       0.140000    3.060000   19.840000      10.0000    195.0840
  424   3 Pt  78       4.380000    5.560000   19.880000      10.0000    195.0840
  425   3 Pt  78       7.170000    5.740000   19.840000      10.0000    195.0840
  426   3 Pt  78       9.900001    5.650000   19.740000      10.0000    195.0840
  427   3 Pt  78      12.730000    5.530000   19.850000      10.0000    195.0840
  428   3 Pt  78      -1.260000    5.520000   19.870000      10.0000    195.0840
  429   3 Pt  78       1.650000    5.470000   19.920000      10.0000    195.0840
  430   3 Pt  78       5.750000    8.080000   19.850000      10.0000    195.0840
  431   3 Pt  78       8.590000    8.050001   19.860000      10.0000    195.0840
  432   3 Pt  78      11.390000    8.050001   19.860000      10.0000    195.0840
  433   3 Pt  78      -2.690000    7.910000   19.870000      10.0000    195.0840
  434   3 Pt  78       0.130000    7.920001   19.890000      10.0000    195.0840
  435   3 Pt  78       2.940000    8.030001   19.930000      10.0000    195.0840
  436   3 Pt  78       7.220001   10.460000   19.910000      10.0000    195.0840
  437   3 Pt  78       9.990001   10.490000   20.000000      10.0000    195.0840
  438   3 Pt  78      -3.980000   10.430001   19.990000      10.0000    195.0840
  439   3 Pt  78      -1.230000   10.330000   19.860000      10.0000    195.0840
  440   3 Pt  78       1.460000   10.440001   19.780000      10.0000    195.0840
  441   3 Pt  78       4.310000   10.450001   19.840000      10.0000    195.0840
  442   3 Pt  78       8.510000   12.940001   19.790000      10.0000    195.0840
  443   3 Pt  78      -5.540000   12.780001   20.110000      10.0000    195.0840
  444   3 Pt  78      -2.600000   12.800001   19.860000      10.0000    195.0840
  445   3 Pt  78       0.100000   12.840000   19.750000      10.0000    195.0840
  446   3 Pt  78       2.890000   12.870001   19.740000      10.0000    195.0840
  447   3 Pt  78       5.680000   12.910000   19.850000      10.0000    195.0840
  448   3 Pt  78       0.230000    1.550000   17.600000      10.0000    195.0840
  449   3 Pt  78       3.070000    1.470000   17.620000      10.0000    195.0840
  450   3 Pt  78       5.800000    1.490000   17.500000      10.0000    195.0840
  451   3 Pt  78       8.570001    1.490000   17.490000      10.0000    195.0840
  452   3 Pt  78      11.280001    1.400000   17.520000      10.0000    195.0840
  453   3 Pt  78      14.280001    1.490000   17.620000      10.0000    195.0840
  454   3 Pt  78       1.530000    3.890000   17.530000      10.0000    195.0840
  455   3 Pt  78       4.360000    3.850000   17.490000      10.0000    195.0840
  456   3 Pt  78       7.120000    3.950000   17.530000      10.0000    195.0840
  457   3 Pt  78       9.850000    4.010000   17.520000      10.0000    195.0840
  458   3 Pt  78      12.770000    3.950000   17.620000      10.0000    195.0840
  459   3 Pt  78      -1.230000    3.860000   17.590000      10.0000    195.0840
  460   3 Pt  78       2.930000    6.290000   17.520000      10.0000    195.0840
  461   3 Pt  78       5.770000    6.410000   17.430000      10.0000    195.0840
  462   3 Pt  78       8.570001    6.400001   17.430000      10.0000    195.0840
  463   3 Pt  78      11.290001    6.350000   17.540000      10.0000    195.0840
  464   3 Pt  78      -2.700000    6.260000   17.550000      10.0000    195.0840
  465   3 Pt  78       0.160000    6.310000   17.640000      10.0000    195.0840
  466   3 Pt  78       4.410000    8.700001   17.570000      10.0000    195.0840
  467   3 Pt  78       7.170000    8.770000   17.590000      10.0000    195.0840
  468   3 Pt  78      10.050000    8.910000   17.540000      10.0000    195.0840
  469   3 Pt  78      -4.150000    8.780001   17.650000      10.0000    195.0840
  470   3 Pt  78      -1.310000    8.670000   17.600000      10.0000    195.0840
  471   3 Pt  78       1.600000    8.650001   17.570000      10.0000    195.0840
  472   3 Pt  78       5.860000   11.140001   17.430000      10.0000    195.0840
  473   3 Pt  78       8.600000   11.270000   17.540000      10.0000    195.0840
  474   3 Pt  78      -5.400000   11.310000   17.710001      10.0000    195.0840
  475   3 Pt  78      -2.650000   11.120001   17.570000      10.0000    195.0840
  476   3 Pt  78       0.130000   11.170001   17.440000      10.0000    195.0840
  477   3 Pt  78       3.000000   11.090001   17.540000      10.0000    195.0840
  478   3 Pt  78       7.200000   13.640001   17.330000      10.0000    195.0840
  479   3 Pt  78      -6.830000   13.770000   17.710001      10.0000    195.0840
  480   3 Pt  78      -4.010000   13.660001   17.640000      10.0000    195.0840
  481   3 Pt  78      -1.360000   13.690001   17.550000      10.0000    195.0840
  482   3 Pt  78       1.490000   13.720001   17.500000      10.0000    195.0840
  483   3 Pt  78       4.370000   13.600000   17.490000      10.0000    195.0840
  484   3 Pt  78      -8.190001   14.600000   15.130000      10.0000    195.0840
  485   3 Pt  78      -5.460000   14.500000   15.190000      10.0000    195.0840
  486   3 Pt  78      -2.690000   14.550000   15.220000      10.0000    195.0840
  487   3 Pt  78       0.100000   14.460001   15.410000      10.0000    195.0840
  488   3 Pt  78       3.000000   14.300001   15.320000      10.0000    195.0840
  489   3 Pt  78       5.840001   14.400001   15.120000      10.0000    195.0840
  490   3 Pt  78       1.560000    2.300000   15.170001      10.0000    195.0840
  491   3 Pt  78       4.330000    2.320000   15.120000      10.0000    195.0840
  492   3 Pt  78       7.280001    2.230000   15.250000      10.0000    195.0840
  493   3 Pt  78      10.040001    2.230000   15.220000      10.0000    195.0840
  494   3 Pt  78      12.830001    2.310000   15.320000      10.0000    195.0840
  495   3 Pt  78      -1.210000    2.320000   15.220000      10.0000    195.0840
  496   3 Pt  78       3.070000    4.610000   15.100000      10.0000    195.0840
  497   3 Pt  78       5.880000    4.620000   15.000000      10.0000    195.0840
  498   3 Pt  78       8.580000    4.570000   15.050000      10.0000    195.0840
  499   3 Pt  78      11.450001    4.520000   15.370000      10.0000    195.0840
  500   3 Pt  78      -2.690000    4.650001   15.160000      10.0000    195.0840
  501   3 Pt  78       0.160000    4.680000   15.130000      10.0000    195.0840
  502   3 Pt  78       4.420000    7.120000   15.210001      10.0000    195.0840
  503   3 Pt  78       7.100000    7.100000   15.130000      10.0000    195.0840
  504   3 Pt  78       9.900001    7.020000   15.090000      10.0000    195.0840
  505   3 Pt  78      -4.120000    7.050000   15.180000      10.0000    195.0840
[...]
 -                                                                             -
 -                                DBCSR STATISTICS                             -
 -                                                                             -
 -------------------------------------------------------------------------------
 COUNTER                                    TOTAL       BLAS       SMM       ACC
 flops     5 x    32 x     5           4046764800       0.0%    100.0%      0.0%
 flops    13 x    32 x     5           5160205440       0.0%    100.0%      0.0%
 flops     5 x    32 x    13           5160205440       0.0%    100.0%      0.0%
 flops    13 x    32 x    13           6133905024       0.0%    100.0%      0.0%
 flops    13 x    32 x    20           8702220800       0.0%    100.0%      0.0%
 flops    20 x    32 x    13           8702220800       0.0%    100.0%      0.0%
 flops     5 x    32 x    20           9259328000       0.0%    100.0%      0.0%
 flops    20 x    32 x     5           9259328000       0.0%    100.0%      0.0%
 flops     5 x     5 x    96          10035820800       0.0%    100.0%      0.0%
 flops     5 x    13 x    96          12724508160       0.0%    100.0%      0.0%
 flops    13 x     5 x    96          12743602560       0.0%    100.0%      0.0%
 flops    13 x    13 x    96          15304034304       0.0%    100.0%      0.0%
 flops    13 x    20 x    96          21426462720       0.0%    100.0%      0.0%
 flops    20 x    13 x    96          21523207680       0.0%    100.0%      0.0%
 flops    20 x     5 x    96          22840819200       0.0%    100.0%      0.0%
 flops     5 x    20 x    96          22858444800       0.0%    100.0%      0.0%
 flops    20 x    32 x    20          74052403200       0.0%    100.0%      0.0%
 flops     5 x     5 x   128          93667660800       0.0%    100.0%      0.0%
 flops     5 x    13 x   128         118762076160       0.0%    100.0%      0.0%
 flops    13 x     5 x   128         118940290560       0.0%    100.0%      0.0%
 flops    13 x    13 x   128         142837653504       0.0%    100.0%      0.0%
 flops    20 x    20 x    96         183588249600       0.0%    100.0%      0.0%
 flops    13 x    20 x   128         199980318720       0.0%    100.0%      0.0%
 flops    20 x    13 x   128         200883271680       0.0%    100.0%      0.0%
 flops    20 x     5 x   128         213180979200       0.0%    100.0%      0.0%
 flops     5 x    20 x   128         213345484800       0.0%    100.0%      0.0%
 flops    20 x    20 x   128        1713490329600       0.0%    100.0%      0.0%
 flops inhomo. stacks                           0       0.0%      0.0%      0.0%
 flops total                         3.468610E+12       0.0%    100.0%      0.0%
 flops max/rank                     31.528450E+09       0.0%    100.0%      0.0%
 matmuls inhomo. stacks                         0       0.0%      0.0%      0.0%
 matmuls total                           94282722       0.0%    100.0%      0.0%
 number of processed stacks                960480       0.0%    100.0%      0.0%
 average stack size                                     0.0      98.2       0.0
 marketing flops                     7.126643E+12
 -------------------------------------------------------------------------------
 # multiplications                             52
 max memory usage/rank               1.622012E+09
 # max total images/rank                        2
 # max 3D layers                                1
 # MPI messages exchanged                  193024
 MPI messages size (bytes):
  total size                       122.985021E+09
  min size                         288.768000E+03
  max size                           2.221728E+06
  average size                     637.148875E+03
 MPI breakdown and total messages size (bytes):
             size <=      128                   0                        0
       128 < size <=     8192                   0                        0
      8192 < size <=    32768                   0                        0
     32768 < size <=   131072                   0                        0
    131072 < size <=  4194304              193024             122985023144
   4194304 < size <= 16777216                   0                        0
  16777216 < size                               0                        0
 -------------------------------------------------------------------------------

 *** WARNING in dbcsr_mm.F:290 :: Using a non-square number of MPI ranks ***
 *** might lead to poor performance. Used ranks: 128 Suggested: 121 256  ***

 -------------------------------------------------------------------------------
 -                                                                             -
 -                      DBCSR MESSAGE PASSING PERFORMANCE                      -
 -                                                                             -
 -------------------------------------------------------------------------------
 ROUTINE             CALLS      AVE VOLUME [Bytes]
 MP_Bcast               28                     12.
 MP_Allreduce          431                     11.
 MP_Alltoall          1449                 572300.
 MP_ISend             3328                 300504.
 MP_IRecv             3328                 294012.
 -------------------------------------------------------------------------------

 -------------------------------------------------------------------------------
 -                                                                             -
 -                                DBM STATISTICS                               -
 -                                                                             -
 -------------------------------------------------------------------------------
    M  x    N  x    K                                          COUNT     PERCENT
 -------------------------------------------------------------------------------

 -------------------------------------------------------------------------------
 -                                                                             -
 -                                GRID STATISTICS                              -
 -                                                                             -
 -------------------------------------------------------------------------------
 LP    KERNEL             BACKEND                              COUNT     PERCENT
 4     collocate general  REF                               20341000      21.99%
 4     integrate general  REF                               20220341      21.86%
 3     collocate general  REF                               14308050      15.47%
 3     integrate general  REF                               14251150      15.41%
 2     collocate general  REF                               11463050      12.39%
 2     integrate general  REF                               11233789      12.15%
 5     integrate general  REF                                 406820       0.44%
 0     collocate general  REF                                 132864       0.14%
 0     integrate general  REF                                  66432       0.07%
 1     integrate general  REF                                  66432       0.07%
 -------------------------------------------------------------------------------

 MEMORY| Estimated peak process memory [MiB]                                1813

 -------------------------------------------------------------------------------
 ----                             MULTIGRID INFO                            ----
 -------------------------------------------------------------------------------
 count for grid        1:        1097957          cutoff [a.u.]          200.00
 count for grid        2:        1093227          cutoff [a.u.]           66.67
 count for grid        3:         718600          cutoff [a.u.]           22.22
 count for grid        4:         557812          cutoff [a.u.]            7.41
 total gridlevel count  :        3467596

 -------------------------------------------------------------------------------
 -                                                                             -
 -                         MESSAGE PASSING PERFORMANCE                         -
 -                                                                             -
 -------------------------------------------------------------------------------

 ROUTINE             CALLS      AVE VOLUME [Bytes]
 MP_Group                4
 MP_Bcast             2246                 301063.
 MP_Allreduce         3673                  29697.
 MP_Sync               106
 MP_Alltoall          2972               16283611.
 MP_SendRecv           508                   5883.
 MP_ISendRecv        25400                  61740.
 MP_Wait             44864
 MP_comm_split          51
 MP_ISend            18344                 256260.
 MP_IRecv            18344                 256260.
 MP_Recv               183                1700608.
 MP_Write_All            3                1797408.
 -------------------------------------------------------------------------------


 -------------------------------------------------------------------------------
 -                                                                             -
 -                           R E F E R E N C E S                               -
 -                                                                             -
 -------------------------------------------------------------------------------
 
 CP2K version 2022.1, the CP2K developers group (2022).
 CP2K is freely available from https://www.cp2k.org/ .

 Kuehne,Thomas D.; Iannuzzi,Marcella; Del Ben,Mauro;
 Rybkin,Vladimir V.; Seewald,Patrick; Stein,Frederick; Laino,Teodoro;
 Khaliullin,Rustam Z.; Schuett,Ole; Schiffmann,Florian; Golze,Dorothea;
 Wilhelm,Jan; Chulkov,Sergey; Bani-Hashemian,Mohammad Hossein;
 Weber,Valery; Borstnik,Urban; Taillefumier,Mathieu;
 Jakobovits,Alice Shoshana; Lazzaro,Alfio; Pabst,Hans; Mueller,Tiziano;
 Schade,Robert; Guidon,Manuel; Andermatt,Samuel; Holmberg,Nico;
 Schenter,Gregory K.; Hehn,Anna; Bussy,Augustin; Belleflamme,Fabian;
 Tabacchi,Gloria; Gloess,Andreas; Lass,Michael; Bethune,Iain;
 Mundy,Christopher J.; Plessl,Christian; Watkins,Matt;
 VandeVondele,Joost; Krack,Matthias; Hutter,Juerg. 
 The Journal of Chemical Physics, 152 (19), (2020). 
 CP2K: An electronic structure and molecular dynamics software package -
 Quickstep: Efficient and accurate electronic structure calculations.
 https://doi.org/10.1063/5.0007045

 Goerigk, Lars; Hansen, Andreas; Bauer, Christoph; Ehrlich, Stephan;
 Najibi, Asim; Grimme, Stefan. , 19 (48), (2017). 
 A look at the density functional theory zoo with the advanced GMTKN55 database
 for general main group thermochemistry, kinetics and noncovalent interactions.
 https://doi.org/10.1039/C7CP04913G

 Bani-Hashemian, MH; Bruck, S; Luisier, M; VandeVondele, J. 
 JOURNAL OF CHEMICAL PHYSICS, 144 (4), 044113 (2016). 
 A generalized Poisson solver for first-principles device simulations.
 https://doi.org/10.1063/1.4940796

 Schuett, Ole; Messmer, Peter; Hutter, Juerg; VandeVondele, Joost. 
 Electronic Structure Calculations on Graphics Processing Units, John
 Wiley & Sons, Ltd, 173-190 (2016). 
 GPU-Accelerated Sparse Matrix-Matrix Multiplication for
 Linear Scaling Density Functional Theory.
 https://doi.org/10.1002/9781118670712.ch8

 Heinecke, A; Henry, G; Hutchinson, M; Pabst, H. 
 Proceedings of Intl. Supercomputing Conference, 981-991 (2016). 
 LIBXSMM: Accelerating Small Matrix Multiplications
 by Runtime Code Generation.
 https://doi.org/10.1109/SC.2016.83

 Borstnik, U; VandeVondele, J; Weber, V; Hutter, J. 
 PARALLEL COMPUTING, 40 (5-6), 47-58 (2014). 
 Sparse matrix multiplication: The distributed block-compressed sparse
 row library.
 https://doi.org/10.1016/j.parco.2014.03.012

 Hutter, J; Iannuzzi, M; Schiffmann, F; VandeVondele, J. 
 WIREs Comput Mol Sci., 4 (1), 15-25 (2014). 
 CP2K: atomistic simulations of condensed matter systems.
 https://doi.org/10.1002/wcms.1159

 Marek, A; Blum, V; Johanni, R; Havu, V; Lang, B; Auckenthaler, T;
 Heinecke, A; Bungartz, H; Lederer, H. 
 Journal of Physics: Condensed Matter, 26 (21), (2014). 
 The ELPA library: scalable parallel eigenvalue solutions for
 electronic structure
 theory and computational science.
 https://doi.org/10.1088/0953-8984/26/21/213201

 Grimme, S; Ehrlich, S; Goerigk, L. 
 JOURNAL OF COMPUTATIONAL CHEMISTRY, 32, 1456 (2011). 
 Effect of the damping function in dispersion corrected density functional theory.
 https://doi.org/10.1002/jcc.21759

 Grimme, S; Antony, J; Ehrlich, S; Krieg, H. 
 JOURNAL OF CHEMICAL PHYSICS, 132 (15), 154104 (2010). 
 A consistent and accurate ab initio parametrization of density
 functional dispersion correction (DFT-D) for the 94 elements H-Pu.
 https://doi.org/10.1063/1.3382344

 VandeVondele, J; Hutter, J. 
 JOURNAL OF CHEMICAL PHYSICS, 127 (11), 114105 (2007). 
 Gaussian basis sets for accurate calculations on molecular systems in
 gas and condensed phases.
 https://doi.org/10.1063/1.2770708

 Krack, M. 
 THEORETICAL CHEMISTRY ACCOUNTS, 114 (1-3), 145-152 (2005). 
 Pseudopotentials for H to Kr optimized for gradient-corrected
 exchange-correlation functionals.
 https://doi.org/10.1007/s00214-005-0655-y

 VandeVondele, J; Krack, M; Mohamed, F; Parrinello, M; Chassaing, T;
 Hutter, J. COMPUTER PHYSICS COMMUNICATIONS, 167 (2), 103-128 (2005). 
 QUICKSTEP: Fast and accurate density functional calculations using a
 mixed Gaussian and plane waves approach.
 https://doi.org/10.1016/j.cpc.2004.12.014

 Frigo, M; Johnson, SG. 
 PROCEEDINGS OF THE IEEE, 93 (2), 216-231 (2005). 
 The design and implementation of FFTW3.
 https://doi.org/10.1109/JPROC.2004.840301

 Hartwigsen, C; Goedecker, S; Hutter, J. 
 PHYSICAL REVIEW B, 58 (7), 3641-3662 (1998). 
 Relativistic separable dual-space Gaussian pseudopotentials from H to Rn.
 https://doi.org/10.1103/PhysRevB.58.3641

 Lippert, G; Hutter, J; Parrinello, M. 
 MOLECULAR PHYSICS, 92 (3), 477-487 (1997). 
 A hybrid Gaussian and plane wave density functional scheme.
 https://doi.org/10.1080/002689797170220

 Perdew, JP; Burke, K; Ernzerhof, M. 
 PHYSICAL REVIEW LETTERS, 77 (18), 3865-3868 (1996). 
 Generalized gradient approximation made simple.
 https://doi.org/10.1103/PhysRevLett.77.3865

 Goedecker, S; Teter, M; Hutter, J. 
 PHYSICAL REVIEW B, 54 (3), 1703-1710 (1996). 
 Separable dual-space Gaussian pseudopotentials.
 https://doi.org/10.1103/PhysRevB.54.1703


 -------------------------------------------------------------------------------
 -                                                                             -
 -                                T I M I N G                                  -
 -                                                                             -
 -------------------------------------------------------------------------------
 SUBROUTINE                       CALLS  ASD         SELF TIME        TOTAL TIME
                                MAXIMUM       AVERAGE  MAXIMUM  AVERAGE  MAXIMUM
 CP2K                                 1  1.0    0.369    0.384  347.562  347.564
 qs_forces                            1  2.0    0.002    0.002  346.853  346.854
 qs_energies                          1  3.0    0.000    0.001  340.657  340.661
 scf_env_do_scf                       1  4.0    0.000    0.000  331.436  331.579
 scf_env_do_scf_inner_loop           49  5.0    0.003    0.008  331.433  331.576
 rebuild_ks_matrix                   50  6.9    0.000    0.000  175.743  175.788
 qs_ks_build_kohn_sham_matrix        50  7.9    0.008    0.012  175.742  175.788
 qs_ks_update_qs_env                 49  6.0    0.000    0.000  171.709  171.754
 pw_transfer                       2554 12.2    0.187    0.261  109.859  112.383
 fft_wrap_pw1pw2                   2554 13.2    0.024    0.029  109.672  112.172
 fft_wrap_pw1pw2_200               2254 14.4    7.474    8.834  108.190  110.597
 qs_scf_new_mos                      49  6.0    0.002    0.005   96.316   96.462
 pw_poisson_solve                    50  8.9    0.004    0.014   93.722   93.756
 fft3d_ps                          2554 15.2   31.954   35.893   88.060   91.649
 eigensolver                         49  7.0    0.004    0.006   90.824   91.123
 implicit_poisson_solver_mixed_      50  9.9    1.990    2.434   88.602   88.711
 cp_fm_diag_elpa                     51  8.0    0.001    0.001   63.621   63.784
 cp_fm_redistribute_end              51  9.0    8.409   63.017    8.515   63.074
 derive_fft                         290 12.1    0.019    0.023   62.210   62.393
 cp_fm_diag_elpa_base                51  9.0   53.744   61.640   54.256   62.171
 mp_alltoall_z22v                  2554 17.2   46.789   58.178   46.789   58.178
 qs_rho_update_rho_low               50  6.0    0.000    0.000   55.764   55.777
 calculate_rho_elec                  50  7.0    0.097    0.119   55.764   55.777
 sum_up_and_integrate                50  8.9    0.271    0.330   54.488   54.540
 integrate_v_rspace                  50  9.9    0.002    0.003   54.217   54.349
 apply_P_operator                   240 11.1    1.278    1.419   52.716   52.871
 grid_collocate_task_list            50  8.0   36.633   43.696   36.633   43.696
 grid_integrate_task_list            50 10.9   33.980   39.380   33.980   39.380
 x_to_yz                           1466 16.4    6.232    8.013   35.369   36.847
 cp_fm_triangular_multiply          147  8.0   28.529   28.789   28.529   28.789
 rs_pw_transfer                     404 10.4    0.005    0.006   24.090   27.743
 yz_to_x                            788 16.4    2.150    2.507   19.611   26.931
 qs_vxc_create                       50  8.9    0.001    0.002   24.680   24.977
 xc_vxc_pw_create                    50  9.9    0.425    0.533   24.678   24.976
 density_rs2pw                       50  8.0    0.003    0.004   17.870   21.273
 xc_pw_derive                       300 11.9    0.004    0.005   17.340   19.191
 apply_poisson_operator_fft          50 10.9    0.001    0.001   16.052   16.333
 apply_inv_laplace_operator_fft     147 11.6    0.371    0.441   14.100   14.595
 mp_waitany                       18344 12.4   10.407   14.391   10.407   14.391
 potential_pw2rs                     50 10.9    0.015    0.016   14.194   14.310
 rs_pw_transfer_RS2PW_200            52  9.9    3.402    3.796   10.518   14.167
 xc_rho_set_and_dset_create          50 10.9    0.247    0.287   12.052   13.244
 xc_pw_divergence                    50 10.9    0.002    0.003   11.768   13.197
 mp_alltoall_d11v                   722 10.3    7.625   11.377    7.625   11.377
 ps_implicit_compute_veps            50 10.9    0.290    0.344   11.065   11.254
 ps_implicit_compute_error_fft       95 10.9    0.597    0.721   10.231   10.951
 pw_scatter_p                      1616 15.4    8.989   10.544    8.989   10.544
 rs_gather_matrices                  50 10.9    0.061    0.085    6.030    9.625
 gspace_mixing                       48  6.0    0.091    0.111    8.432    8.435
 rs_pw_transfer_PW2RS_200            52 12.8    3.941    4.110    8.223    8.387
 pw_derive                         1170 13.1    7.428    8.009    7.428    8.009
 -------------------------------------------------------------------------------

 The number of warnings for this run is : 1
 
 -------------------------------------------------------------------------------
  **** **** ******  **  PROGRAM ENDED AT                 2023-12-02 10:14:10.734
 ***** ** ***  *** **   PROGRAM RAN ON                                     cu001
 **    ****   ******    PROGRAM RAN BY                                     jxzhu
 ***** **    ** ** **   PROGRAM PROCESS ID                                 50518
  **** **  *******  **  PROGRAM STOPPED IN /public/home/jxzhu/tmp_calc/d97729937
                                           07a116a57c3f6509f5d48a1f63635b0/calc/
                                           001200.000/task_hi.000000
