 DBCSR| CPU Multiplication driver                                           XSMM
 DBCSR| Multrec recursion limit                                              512
 DBCSR| Multiplication stack size                                           1000
 DBCSR| Maximum elements for images                                    UNLIMITED
 DBCSR| Multiplicative factor virtual images                                   1
 DBCSR| Use multiplication densification                                       T
 DBCSR| Multiplication size stacks                                             3
 DBCSR| Use memory pool for CPU allocation                                     F
 DBCSR| Number of 3D layers                                               SINGLE
 DBCSR| Use MPI memory allocation                                              F
 DBCSR| Use RMA algorithm                                                      F
 DBCSR| Use Communication thread                                               T
 DBCSR| Communication thread load                                             87
 DBCSR| MPI: My node id                                                        0
 DBCSR| MPI: Number of nodes                                                 128
 DBCSR| OMP: Current number of threads                                         1
 DBCSR| OMP: Max number of threads                                             1
 DBCSR| Split modifier for TAS multiplication algorithm                  1.0E+00


  **** **** ******  **  PROGRAM STARTED AT               2023-12-02 05:45:46.765
 ***** ** ***  *** **   PROGRAM STARTED ON                                 cu067
 **    ****   ******    PROGRAM STARTED BY                                 jxzhu
 ***** **    ** ** **   PROGRAM PROCESS ID                                 56283
  **** **  *******  **  PROGRAM STARTED IN /public/home/jxzhu/tmp_calc/f5ee6801e
                                           c562a280c4e8d95cbe3d3a8d3437250/calc/
                                           000800.000/search_hi.000000

 CP2K| version string:                                       CP2K version 2022.1
 CP2K| source code revision number:                                  git:2caeb6f
 CP2K| cp2kflags: omp libint fftw3 libxc elpa parallel mpi3 scalapack cosma xsmm
 CP2K|             plumed2 spglib mkl sirius libvori libbqb
 CP2K| is freely available from                            https://www.cp2k.org/
 CP2K| Program compiled at                           Mon Jul 3 17:37:06 CST 2023
 CP2K| Program compiled on                                                 mu003
 CP2K| Program compiled for                                                local
 CP2K| Data directory path                             /public/home/jxzhu/basis/
 CP2K| Input file name                                                 input.inp
 
 GLOBAL| Force Environment number                                              1
 GLOBAL| Basis set file name                                        BASIS_MOLOPT
 GLOBAL| Potential file name                                      GTH_POTENTIALS
 GLOBAL| MM Potential file name                                     MM_POTENTIAL
 GLOBAL| Coordinate file name                                          coord.xyz
 GLOBAL| Method name                                                        CP2K
 GLOBAL| Project name                                                       cp2k
 GLOBAL| Run type                                                   ENERGY_FORCE
 GLOBAL| FFT library                                                       FFTW3
 GLOBAL| Diagonalization library                                            ELPA
 GLOBAL| Minimum number of eigenvectors for ELPA usage                        16
 GLOBAL| Orthonormality check for eigenvectors                          DISABLED
 GLOBAL| Matrix multiplication library                                     COSMA
 GLOBAL| All-to-all communication in single precision                          F
 GLOBAL| FFTs using library dependent lengths                                  T
 GLOBAL| Grid backend                                                       AUTO
 GLOBAL| Global print level                                               MEDIUM
 GLOBAL| MPI I/O enabled                                                       T
 GLOBAL| Total number of message passing processes                           128
 GLOBAL| Number of threads for this process                                    1
 GLOBAL| This output is from process                                           0
 GLOBAL| Stack size for threads created by OpenMP (OMP_STACKSIZE)        default
 GLOBAL| CPU model name                 Intel(R) Xeon(R) Gold 6338 CPU @ 2.00GHz
 GLOBAL| CPUID                                                              1003

 MEMORY| system memory details [Kb]
 MEMORY|                        rank 0           min           max       average
 MEMORY| MemTotal            263619172     263619168     263619172     263619170
 MEMORY| MemFree             187382504     187382016     197463436     192422966
 MEMORY| Buffers                    36            20            36            28
 MEMORY| Cached                1045044        668708       1045044        856876
 MEMORY| Slab                  1975020       1687104       1975020       1831062
 MEMORY| SReclaimable           222652        218612        222652        220632
 MEMORY| MemLikelyFree       188650236     188649748     198350776     193500502


 *** Fundamental physical constants (SI units) ***

 *** Literature: B. J. Mohr and B. N. Taylor,
 ***             CODATA recommended values of the fundamental physical
 ***             constants: 2006, Web Version 5.1
 ***             http://physics.nist.gov/constants

 Speed of light in vacuum [m/s]                             2.99792458000000E+08
 Magnetic constant or permeability of vacuum [N/A**2]       1.25663706143592E-06
 Electric constant or permittivity of vacuum [F/m]          8.85418781762039E-12
 Planck constant (h) [J*s]                                  6.62606896000000E-34
 Planck constant (h-bar) [J*s]                              1.05457162825177E-34
 Elementary charge [C]                                      1.60217648700000E-19
 Electron mass [kg]                                         9.10938215000000E-31
 Electron g factor [ ]                                     -2.00231930436220E+00
 Proton mass [kg]                                           1.67262163700000E-27
 Fine-structure constant                                    7.29735253760000E-03
 Rydberg constant [1/m]                                     1.09737315685270E+07
 Avogadro constant [1/mol]                                  6.02214179000000E+23
 Boltzmann constant [J/K]                                   1.38065040000000E-23
 Atomic mass unit [kg]                                      1.66053878200000E-27
 Bohr radius [m]                                            5.29177208590000E-11

 *** Conversion factors ***

 [u] -> [a.u.]                                              1.82288848426455E+03
 [Angstrom] -> [Bohr] = [a.u.]                              1.88972613288564E+00
 [a.u.] = [Bohr] -> [Angstrom]                              5.29177208590000E-01
 [a.u.] -> [s]                                              2.41888432650478E-17
 [a.u.] -> [fs]                                             2.41888432650478E-02
 [a.u.] -> [J]                                              4.35974393937059E-18
 [a.u.] -> [N]                                              8.23872205491840E-08
 [a.u.] -> [K]                                              3.15774647902944E+05
 [a.u.] -> [kJ/mol]                                         2.62549961709828E+03
 [a.u.] -> [kcal/mol]                                       6.27509468713739E+02
 [a.u.] -> [Pa]                                             2.94210107994716E+13
 [a.u.] -> [bar]                                            2.94210107994716E+08
 [a.u.] -> [atm]                                            2.90362800883016E+08
 [a.u.] -> [eV]                                             2.72113838565563E+01
 [a.u.] -> [Hz]                                             6.57968392072181E+15
 [a.u.] -> [1/cm] (wave numbers)                            2.19474631370540E+05
 [a.u./Bohr**2] -> [1/cm]                                   5.14048714338585E+03
 

 CELL_TOP| Volume [angstrom^3]:                                     17614.982639
 CELL_TOP| Vector a [angstrom    16.869     0.000     0.000   |a| =    16.869000
 CELL_TOP| Vector b [angstrom    -8.434    14.609     0.000   |b| =    16.869015
 CELL_TOP| Vector c [angstrom     0.000     0.000    71.478   |c| =    71.478000
 CELL_TOP| Angle (b,c), alpha [degree]:                                90.000000
 CELL_TOP| Angle (a,c), beta  [degree]:                                90.000000
 CELL_TOP| Angle (a,b), gamma [degree]:                               119.999970
 CELL_TOP| Numerically orthorhombic:                                          NO
 
 GENERATE|  Preliminary Number of Bonds generated:                             0
 GENERATE|  Achieved consistency in connectivity generation.

 CELL| Volume [angstrom^3]:                                         17614.982639
 CELL| Vector a [angstrom]:      16.869     0.000     0.000   |a| =    16.869000
 CELL| Vector b [angstrom]:      -8.434    14.609     0.000   |b| =    16.869015
 CELL| Vector c [angstrom]:       0.000     0.000    71.478   |c| =    71.478000
 CELL| Angle (b,c), alpha [degree]:                                    90.000000
 CELL| Angle (a,c), beta  [degree]:                                    90.000000
 CELL| Angle (a,b), gamma [degree]:                                   119.999970
 CELL| Numerically orthorhombic:                                              NO

 CELL_REF| Volume [angstrom^3]:                                     17614.982639
 CELL_REF| Vector a [angstrom    16.869     0.000     0.000   |a| =    16.869000
 CELL_REF| Vector b [angstrom    -8.434    14.609     0.000   |b| =    16.869015
 CELL_REF| Vector c [angstrom     0.000     0.000    71.478   |c| =    71.478000
 CELL_REF| Angle (b,c), alpha [degree]:                                90.000000
 CELL_REF| Angle (a,c), beta  [degree]:                                90.000000
 CELL_REF| Angle (a,b), gamma [degree]:                               119.999970
 CELL_REF| Numerically orthorhombic:                                          NO

 *******************************************************************************
 *******************************************************************************
 **                                                                           **
 **     #####                         ##              ##                      **
 **    ##   ##            ##          ##              ##                      **
 **   ##     ##                       ##            ######                    **
 **   ##     ##  ##   ##  ##   #####  ##  ##   ####   ##    #####    #####    **
 **   ##     ##  ##   ##  ##  ##      ## ##   ##      ##   ##   ##  ##   ##   **
 **   ##  ## ##  ##   ##  ##  ##      ####     ###    ##   ######   ######    **
 **    ##  ###   ##   ##  ##  ##      ## ##      ##   ##   ##       ##        **
 **     #######   #####   ##   #####  ##  ##  ####    ##    #####   ##        **
 **           ##                                                    ##        **
 **                                                                           **
 **                                                ... make the atoms dance   **
 **                                                                           **
 **            Copyright (C) by CP2K developers group (2000-2022)             **
 **                      J. Chem. Phys. 152, 194103 (2020)                    **
 **                                                                           **
 *******************************************************************************

 DFT| Spin restricted Kohn-Sham (RKS) calculation                            RKS
 DFT| Multiplicity                                                             1
 DFT| Number of spin states                                                    1
 DFT| Charge                                                                   0
 DFT| Self-interaction correction (SIC)                                       NO
 DFT| Cutoffs: density                                              1.000000E-10
 DFT|          gradient                                             1.000000E-10
 DFT|          tau                                                  1.000000E-10
 DFT|          cutoff_smoothing_range                               0.000000E+00
 DFT| XC density smoothing                                                  NONE
 DFT| XC derivatives                                                          PW

 FUNCTIONAL| PBE:
 FUNCTIONAL| J.P.Perdew, K.Burke, M.Ernzerhof, Phys. Rev. Letter, vol. 77, n 18,
 FUNCTIONAL|  pp. 3865-3868, (1996){spin unpolarized}                           

 vdW POTENTIAL|                                                   Pair Potential
 vdW POTENTIAL|          DFT-D3 (Version 3.1)
 vdW POTENTIAL|          Potential Form: S. Grimme et al, JCP 132: 154104 (2010)
 vdW POTENTIAL|          Zero Damping
 vdW POTENTIAL|          Cutoff Radius [Bohr]:                             20.00
 vdW POTENTIAL|          s6 Scaling Factor:                               1.0000
 vdW POTENTIAL|          sr6 Scaling Factor:                              1.2170
 vdW POTENTIAL|          s8 Scaling Factor:                               0.7220
 vdW POTENTIAL|          Cutoff for CN calculation:                   0.1000E-05

 QS| Method:                                                                 GPW
 QS| Density plane wave grid type                        NON-SPHERICAL FULLSPACE
 QS| Number of grid levels:                                                    4
 QS| Density cutoff [a.u.]:                                                200.0
 QS| Multi grid cutoff [a.u.]: 1) grid level                               200.0
 QS|                           2) grid level                                66.7
 QS|                           3) grid level                                22.2
 QS|                           4) grid level                                 7.4
 QS| Grid level progression factor:                                          3.0
 QS| Relative density cutoff [a.u.]:                                        20.0
 QS| Interaction thresholds: eps_pgf_orb:                                3.2E-07
 QS|                         eps_filter_matrix:                          0.0E+00
 QS|                         eps_core_charge:                            1.0E-15
 QS|                         eps_rho_gspace:                             1.0E-13
 QS|                         eps_rho_rspace:                             1.0E-13
 QS|                         eps_gvg_rspace:                             3.2E-07
 QS|                         eps_ppl:                                    1.0E-02
 QS|                         eps_ppnl:                                   3.2E-09


 ATOMIC KIND INFORMATION

  1. Atomic kind: O                                     Number of atoms:      98

     Orbital Basis Set                                        DZVP-MOLOPT-SR-GTH

       Number of orbital shell sets:                                           1
       Number of orbital shells:                                               5
       Number of primitive Cartesian functions:                                5
       Number of Cartesian basis functions:                                   14
       Number of spherical basis functions:                                   13
       Norm type:                                                              2

       Normalised Cartesian orbitals:

                        Set   Shell   Orbital            Exponent    Coefficient

                          1       1    2s               10.389228       0.396646
                                                         3.849621       0.208811
                                                         1.388401      -0.301641
                                                         0.496955      -0.274061
                                                         0.162492      -0.033677

                          1       2    3s               10.389228       0.303673
                                                         3.849621       0.240943
                                                         1.388401      -0.313066
                                                         0.496955      -0.043055
                                                         0.162492       0.213991

                          1       3    3px              10.389228      -1.530415
                                                         3.849621      -1.371928
                                                         1.388401      -0.761951
                                                         0.496955      -0.253695
                                                         0.162492      -0.035541
                          1       3    3py              10.389228      -1.530415
                                                         3.849621      -1.371928
                                                         1.388401      -0.761951
                                                         0.496955      -0.253695
                                                         0.162492      -0.035541
                          1       3    3pz              10.389228      -1.530415
                                                         3.849621      -1.371928
                                                         1.388401      -0.761951
                                                         0.496955      -0.253695
                                                         0.162492      -0.035541

                          1       4    4px              10.389228      -0.565392
                                                         3.849621      -0.038231
                                                         1.388401      -0.382373
                                                         0.496955       0.179070
                                                         0.162492       0.122714
                          1       4    4py              10.389228      -0.565392
                                                         3.849621      -0.038231
                                                         1.388401      -0.382373
                                                         0.496955       0.179070
                                                         0.162492       0.122714
                          1       4    4pz              10.389228      -0.565392
                                                         3.849621      -0.038231
                                                         1.388401      -0.382373
                                                         0.496955       0.179070
                                                         0.162492       0.122714

                          1       5    4dx2             10.389228       1.867377
                                                         3.849621       0.670994
                                                         1.388401       1.353441
                                                         0.496955       0.273538
                                                         0.162492       0.006620
                          1       5    4dxy             10.389228       3.234392
                                                         3.849621       1.162195
                                                         1.388401       2.344229
                                                         0.496955       0.473781
                                                         0.162492       0.011466
                          1       5    4dxz             10.389228       3.234392
                                                         3.849621       1.162195
                                                         1.388401       2.344229
                                                         0.496955       0.473781
                                                         0.162492       0.011466
                          1       5    4dy2             10.389228       1.867377
                                                         3.849621       0.670994
                                                         1.388401       1.353441
                                                         0.496955       0.273538
                                                         0.162492       0.006620
                          1       5    4dyz             10.389228       3.234392
                                                         3.849621       1.162195
                                                         1.388401       2.344229
                                                         0.496955       0.473781
                                                         0.162492       0.011466
                          1       5    4dz2             10.389228       1.867377
                                                         3.849621       0.670994
                                                         1.388401       1.353441
                                                         0.496955       0.273538
                                                         0.162492       0.006620

       Atomic covalent radius [Angstrom]:                                  0.730

       Atomic van der Waals radius [Angstrom]:                             1.520

     GTH Potential information for                                    GTH-PBE-q6

       Description:                       Goedecker-Teter-Hutter pseudopotential
                                           Goedecker et al., PRB 54, 1703 (1996)
                                          Hartwigsen et al., PRB 58, 3641 (1998)
                                                      Krack, TCA 114, 145 (2005)

       Gaussian exponent of the core charge distribution:               8.360253
       Electronic configuration (s p d ...):                               2   4

       Parameters of the local part of the GTH pseudopotential:

                          rloc        C1          C2          C3          C4
                        0.244554  -16.667215    2.487311

       Parameters of the non-local part of the GTH pseudopotential:

                   l      r(l)      h(i,j,l)

                   0    0.220956   18.337458
                   1    0.211332

  2. Atomic kind: H                                     Number of atoms:     196

     Orbital Basis Set                                        DZVP-MOLOPT-SR-GTH

       Number of orbital shell sets:                                           1
       Number of orbital shells:                                               3
       Number of primitive Cartesian functions:                                5
       Number of Cartesian basis functions:                                    5
       Number of spherical basis functions:                                    5
       Norm type:                                                              2

       Normalised Cartesian orbitals:

                        Set   Shell   Orbital            Exponent    Coefficient

                          1       1    2s               10.068468      -0.133023
                                                         2.680223      -0.177618
                                                         0.791502      -0.258419
                                                         0.239116      -0.107525
                                                         0.082193      -0.014019

                          1       2    3s               10.068468       0.344673
                                                         2.680223       1.819821
                                                         0.791502      -0.999069
                                                         0.239116       0.017430
                                                         0.082193       0.082660

                          1       3    3px              10.068468       0.155326
                                                         2.680223       0.367157
                                                         0.791502       0.311480
                                                         0.239116       0.080105
                                                         0.082193       0.033440
                          1       3    3py              10.068468       0.155326
                                                         2.680223       0.367157
                                                         0.791502       0.311480
                                                         0.239116       0.080105
                                                         0.082193       0.033440
                          1       3    3pz              10.068468       0.155326
                                                         2.680223       0.367157
                                                         0.791502       0.311480
                                                         0.239116       0.080105
                                                         0.082193       0.033440

       Atomic covalent radius [Angstrom]:                                  0.320

       Atomic van der Waals radius [Angstrom]:                             1.090

     GTH Potential information for                                    GTH-PBE-q1

       Description:                       Goedecker-Teter-Hutter pseudopotential
                                           Goedecker et al., PRB 54, 1703 (1996)
                                          Hartwigsen et al., PRB 58, 3641 (1998)
                                                      Krack, TCA 114, 145 (2005)

       Gaussian exponent of the core charge distribution:              12.500000
       Electronic configuration (s p d ...):                                   1

       Parameters of the local part of the GTH pseudopotential:

                          rloc        C1          C2          C3          C4
                        0.200000   -4.178900    0.724463

  3. Atomic kind: Pt                                    Number of atoms:     216

     Orbital Basis Set                      DZVP-A5-Q10-323-MOL-T1-DERIVED_SET-1

       Number of orbital shell sets:                                           1
       Number of orbital shells:                                               6
       Number of primitive Cartesian functions:                                5
       Number of Cartesian basis functions:                                   23
       Number of spherical basis functions:                                   20
       Norm type:                                                              2

       Normalised Cartesian orbitals:

                        Set   Shell   Orbital            Exponent    Coefficient

                          1       1    2s                2.521825       0.177473
                                                         1.453920      -0.063399
                                                         0.614053      -0.407089
                                                         0.232656       0.262254
                                                         0.074788       0.047371

                          1       2    3s                2.521825      -0.049056
                                                         1.453920       0.044904
                                                         0.614053      -0.009756
                                                         0.232656      -0.144709
                                                         0.074788       0.144085

                          1       3    3px               2.521825      -0.317572
                                                         1.453920       0.534826
                                                         0.614053      -0.489458
                                                         0.232656       0.245631
                                                         0.074788       0.018221
                          1       3    3py               2.521825      -0.317572
                                                         1.453920       0.534826
                                                         0.614053      -0.489458
                                                         0.232656       0.245631
                                                         0.074788       0.018221
                          1       3    3pz               2.521825      -0.317572
                                                         1.453920       0.534826
                                                         0.614053      -0.489458
                                                         0.232656       0.245631
                                                         0.074788       0.018221

                          1       4    4dx2              2.521825       3.008522
                                                         1.453920      -1.224251
                                                         0.614053       0.225691
                                                         0.232656       0.125144
                                                         0.074788      -0.015348
                          1       4    4dxy              2.521825       5.210912
                                                         1.453920      -2.120465
                                                         0.614053       0.390909
                                                         0.232656       0.216756
                                                         0.074788      -0.026584
                          1       4    4dxz              2.521825       5.210912
                                                         1.453920      -2.120465
                                                         0.614053       0.390909
                                                         0.232656       0.216756
                                                         0.074788      -0.026584
                          1       4    4dy2              2.521825       3.008522
                                                         1.453920      -1.224251
                                                         0.614053       0.225691
                                                         0.232656       0.125144
                                                         0.074788      -0.015348
                          1       4    4dyz              2.521825       5.210912
                                                         1.453920      -2.120465
                                                         0.614053       0.390909
                                                         0.232656       0.216756
                                                         0.074788      -0.026584
                          1       4    4dz2              2.521825       3.008522
                                                         1.453920      -1.224251
                                                         0.614053       0.225691
                                                         0.232656       0.125144
                                                         0.074788      -0.015348

                          1       5    5dx2              2.521825       0.698026
                                                         1.453920      -1.511486
                                                         0.614053      -0.335394
                                                         0.232656      -0.025564
                                                         0.074788      -0.002699
                          1       5    5dxy              2.521825       1.209017
                                                         1.453920      -2.617970
                                                         0.614053      -0.580920
                                                         0.232656      -0.044277
                                                         0.074788      -0.004674
                          1       5    5dxz              2.521825       1.209017
                                                         1.453920      -2.617970
                                                         0.614053      -0.580920
                                                         0.232656      -0.044277
                                                         0.074788      -0.004674
                          1       5    5dy2              2.521825       0.698026
                                                         1.453920      -1.511486
                                                         0.614053      -0.335394
                                                         0.232656      -0.025564
                                                         0.074788      -0.002699
                          1       5    5dyz              2.521825       1.209017
                                                         1.453920      -2.617970
                                                         0.614053      -0.580920
                                                         0.232656      -0.044277
                                                         0.074788      -0.004674
                          1       5    5dz2              2.521825       0.698026
                                                         1.453920      -1.511486
                                                         0.614053      -0.335394
                                                         0.232656      -0.025564
                                                         0.074788      -0.002699

                          1       6    6dx2              2.521825       0.831079
                                                         1.453920      -0.709226
                                                         0.614053      -0.137351
                                                         0.232656       0.068642
                                                         0.074788       0.011745
                          1       6    6dxy              2.521825       1.439472
                                                         1.453920      -1.228415
                                                         0.614053      -0.237899
                                                         0.232656       0.118891
                                                         0.074788       0.020343
                          1       6    6dxz              2.521825       1.439472
                                                         1.453920      -1.228415
                                                         0.614053      -0.237899
                                                         0.232656       0.118891
                                                         0.074788       0.020343
                          1       6    6dy2              2.521825       0.831079
                                                         1.453920      -0.709226
                                                         0.614053      -0.137351
                                                         0.232656       0.068642
                                                         0.074788       0.011745
                          1       6    6dyz              2.521825       1.439472
                                                         1.453920      -1.228415
                                                         0.614053      -0.237899
                                                         0.232656       0.118891
                                                         0.074788       0.020343
                          1       6    6dz2              2.521825       0.831079
                                                         1.453920      -0.709226
                                                         0.614053      -0.137351
                                                         0.232656       0.068642
                                                         0.074788       0.011745

       Atomic covalent radius [Angstrom]:                                  1.300

       Atomic van der Waals radius [Angstrom]:                             1.750

     GTH Potential information for                                   GTH-PBE-q10

       Description:                       Goedecker-Teter-Hutter pseudopotential
                                           Goedecker et al., PRB 54, 1703 (1996)
                                          Hartwigsen et al., PRB 58, 3641 (1998)
                                                      Krack, TCA 114, 145 (2005)

       Gaussian exponent of the core charge distribution:               1.317676
       Electronic configuration (s p d ...):                           1   0   9

       Parameters of the local part of the GTH pseudopotential:

                          rloc        C1          C2          C3          C4
                        0.616000   11.313635

       Parameters of the non-local part of the GTH pseudopotential:

                   l      r(l)      h(i,j,l)

                   0    0.550904    4.733491   -1.784594
                                   -1.784594    2.303901
                   1    0.674138    2.534798   -1.778066
                                   -1.778066    2.103836
                   2    0.457392   -7.264011    2.558665
                                    2.558665   -2.901253


 MOLECULE KIND INFORMATION


 All atoms are their own molecule, skipping detailed information


 TOTAL NUMBERS AND MAXIMUM NUMBERS

  Total number of            - Atomic kinds:                                   3
                             - Atoms:                                        510
                             - Shell sets:                                   510
                             - Shells:                                      2374
                             - Primitive Cartesian functions:               2550
                             - Cartesian basis functions:                   7320
                             - Spherical basis functions:                   6574

  Maximum angular momentum of- Orbital basis functions:                        2
                             - Local part of the GTH pseudopotential:          2
                             - Non-local part of the GTH pseudopotential:      4


 MODULE QUICKSTEP:  ATOMIC COORDINATES IN angstrom

 Atom  Kind  Element       X           Y           Z          Z(eff)       Mass
    1   1 O    8       7.160000  -11.960001   36.298000       6.0000     15.9994
    2   2 H    1       7.180000  -11.900001   37.267999       1.0000      1.0079
    3   2 H    1       7.560000  -11.090001   35.897998       1.0000      1.0079
    4   1 O    8      13.660001   14.810000   33.167999       6.0000     15.9994
    5   2 H    1      12.920000   14.520000   32.548000       1.0000      1.0079
    6   2 H    1      13.550000   15.810001   33.197997       1.0000      1.0079
    7   1 O    8       1.420000   -6.010000   38.498000       6.0000     15.9994
    8   2 H    1       1.090000   -6.010000   37.557998       1.0000      1.0079
    9   2 H    1       1.920000   -6.780000   38.638000       1.0000      1.0079
   10   1 O    8      -3.900000  -22.980001   37.097999       6.0000     15.9994
   11   2 H    1      -4.060000  -22.130001   36.498000       1.0000      1.0079
   12   2 H    1      -2.850000  -23.040001   37.088001       1.0000      1.0079
   13   1 O    8       8.830000   -1.530000   29.007999       6.0000     15.9994
   14   2 H    1       8.720000   -2.150000   29.777999       1.0000      1.0079
   15   2 H    1       9.460000   -0.830000   29.347999       1.0000      1.0079
   16   1 O    8      -5.010000    1.350000   33.177999       6.0000     15.9994
   17   2 H    1      -5.070000    0.500000   32.637998       1.0000      1.0079
   18   2 H    1      -5.930000    1.580000   33.378000       1.0000      1.0079
   19   1 O    8      -1.030000   -9.730001   36.617997       6.0000     15.9994
   20   2 H    1      -0.690000   -9.830000   37.587999       1.0000      1.0079
   21   2 H    1      -1.940000  -10.120001   36.527999       1.0000      1.0079
   22   1 O    8      15.730000    3.570000   32.388000       6.0000     15.9994
   23   2 H    1      16.610001    3.070000   32.567998       1.0000      1.0079
   24   2 H    1      15.660001    3.990000   33.277999       1.0000      1.0079
   25   1 O    8     -15.830001   23.850002   33.097999       6.0000     15.9994
   26   2 H    1     -15.410002   24.740002   33.037998       1.0000      1.0079
   27   2 H    1       0.340000   23.770000   32.417999       1.0000      1.0079
   28   1 O    8      -8.640000   16.150002   29.867999       6.0000     15.9994
   29   2 H    1      -8.410000   17.130001   29.967998       1.0000      1.0079
   30   2 H    1      -8.800000   16.060001   28.908000       1.0000      1.0079
   31   1 O    8      -1.290000    7.920001   29.897998       6.0000     15.9994
   32   2 H    1      -1.100000    7.870001   28.908000       1.0000      1.0079
   33   2 H    1      -1.530000    6.980000   30.147998       1.0000      1.0079
   34   1 O    8      -1.910000   -1.810000   34.117997       6.0000     15.9994
   35   2 H    1      -2.730000   -2.270000   33.847999       1.0000      1.0079
   36   2 H    1      -2.200000   -0.940000   34.477998       1.0000      1.0079
   37   1 O    8     -19.380001   13.580000   35.548000       6.0000     15.9994
   38   2 H    1     -19.500000   14.170000   34.747997       1.0000      1.0079
   39   2 H    1     -20.050001   12.910000   35.367997       1.0000      1.0079
   40   1 O    8       9.250001    2.760000   30.237998       6.0000     15.9994
   41   2 H    1      10.000000    2.980000   29.687999       1.0000      1.0079
   42   2 H    1       8.830000    3.610000   30.507997       1.0000      1.0079
   43   1 O    8     -16.940001    7.520000   33.227998       6.0000     15.9994
   44   2 H    1     -16.770000    8.310000   33.857997       1.0000      1.0079
   45   2 H    1     -16.870001    6.730001   33.798000       1.0000      1.0079
   46   1 O    8       5.930000   -1.640000   29.167999       6.0000     15.9994
   47   2 H    1       5.040000   -1.310000   29.568000       1.0000      1.0079
   48   2 H    1       5.970000   -2.630000   29.217998       1.0000      1.0079
   49   1 O    8      -0.270000   -2.850000   39.897998       6.0000     15.9994
   50   2 H    1      -0.390000   -2.130000   39.097999       1.0000      1.0079
   51   2 H    1      -1.140000   -3.100000   40.257999       1.0000      1.0079
   52   1 O    8      30.140001  -11.220001   36.147998       6.0000     15.9994
   53   2 H    1      29.330002  -10.700001   36.357997       1.0000      1.0079
   54   2 H    1      29.970001  -11.340000   35.178001       1.0000      1.0079
   55   1 O    8     -31.740002    4.990000   36.667999       6.0000     15.9994
   56   2 H    1     -15.050001    4.650001   37.567998       1.0000      1.0079
   57   2 H    1     -14.630001    5.960000   36.717998       1.0000      1.0079
   58   1 O    8       5.390000   14.810000   38.817998       6.0000     15.9994
   59   2 H    1       6.160001   14.410001   38.327998       1.0000      1.0079
   60   2 H    1       4.850000   15.270000   38.107999       1.0000      1.0079
   61   1 O    8      18.160002    2.580000   33.517999       6.0000     15.9994
   62   2 H    1      18.670002    3.380000   33.807998       1.0000      1.0079
   63   2 H    1      18.830002    1.960000   33.677999       1.0000      1.0079
   64   1 O    8       8.490001    7.820001   29.027995       6.0000     15.9994
   65   2 H    1       9.230001    7.190001   29.317996       1.0000      1.0079
   66   2 H    1       7.610001    7.320001   29.177997       1.0000      1.0079
   67   1 O    8       3.370000   13.670001   31.907998       6.0000     15.9994
   68   2 H    1       2.630000   13.500000   31.298000       1.0000      1.0079
   69   2 H    1       3.460000   12.800001   32.307998       1.0000      1.0079
   70   1 O    8     -17.210001    5.160000   35.037998       6.0000     15.9994
   71   2 H    1     -17.630001    5.800000   35.667999       1.0000      1.0079
   72   2 H    1     -16.360001    5.010000   35.397998       1.0000      1.0079
   73   1 O    8       1.470000  -19.420002   38.338001       6.0000     15.9994
   74   2 H    1       2.020000  -19.660000   39.128000       1.0000      1.0079
   75   2 H    1       1.850000  -18.650002   37.847999       1.0000      1.0079
   76   1 O    8       8.350000   -4.330000   33.807998       6.0000     15.9994
   77   2 H    1       8.040000   -3.760000   34.517997       1.0000      1.0079
   78   2 H    1       8.180000   -3.890000   32.927999       1.0000      1.0079
   79   1 O    8     -12.050000    2.910000   30.478000       6.0000     15.9994
   80   2 H    1     -11.230000    2.470000   30.257999       1.0000      1.0079
   81   2 H    1     -12.830001    2.380000   30.117999       1.0000      1.0079
   82   1 O    8       4.540000    5.270000   29.117999       6.0000     15.9994
   83   2 H    1       4.740000    4.320000   29.527999       1.0000      1.0079
   84   2 H    1       3.720000    5.540000   29.607997       1.0000      1.0079
   85   1 O    8     -11.700001   11.200000   37.908000       6.0000     15.9994
   86   2 H    1     -11.640000   11.340000   38.877998       1.0000      1.0079
   87   2 H    1     -11.690001   10.170001   37.897998       1.0000      1.0079
   88   1 O    8       3.390000   -6.220000   29.777999       6.0000     15.9994
   89   2 H    1      -4.560000    8.180000   28.967998       1.0000      1.0079
   90   2 H    1       2.880000   -7.040000   30.027999       1.0000      1.0079
   91   1 O    8       5.790000   -6.800000   33.487998       6.0000     15.9994
   92   2 H    1       6.800000   -6.780000   33.357997       1.0000      1.0079
   93   2 H    1       5.420001   -6.330000   34.228000       1.0000      1.0079
   94   1 O    8      12.450000    8.560000   35.697997       6.0000     15.9994
   95   2 H    1      11.720000    8.200001   35.027999       1.0000      1.0079
   96   2 H    1      12.590000    9.540001   35.548000       1.0000      1.0079
   97   1 O    8      20.020000   11.070000   29.877998       6.0000     15.9994
   98   2 H    1      19.980001   10.690001   28.927997       1.0000      1.0079
   99   2 H    1      19.160002   10.750000   30.158000       1.0000      1.0079
  100   1 O    8       2.890000    0.660000   35.267997       6.0000     15.9994
  101   2 H    1       3.430000   -0.070000   35.548000       1.0000      1.0079
  102   2 H    1       2.210000    0.830000   35.947999       1.0000      1.0079
  103   1 O    8      -9.430000   11.320001   36.387998       6.0000     15.9994
  104   2 H    1      -9.760000   11.890000   35.697997       1.0000      1.0079
  105   2 H    1     -10.200001   11.300000   36.997999       1.0000      1.0079
  106   1 O    8      27.790001   -8.480000   30.448001       6.0000     15.9994
  107   2 H    1      27.030001   -9.030001   30.347999       1.0000      1.0079
  108   2 H    1      27.410002   -7.610001   30.147998       1.0000      1.0079
  109   1 O    8       9.930000   -0.230000   36.237998       6.0000     15.9994
  110   2 H    1       0.760000   14.640001   36.888000       1.0000      1.0079
  111   2 H    1      10.610001    0.460000   36.507999       1.0000      1.0079
  112   1 O    8     -31.150002   20.850000   38.977998       6.0000     15.9994
  113   2 H    1     -13.450001   20.730001   38.447999       1.0000      1.0079
  114   2 H    1     -30.840000   20.700001   39.927999       1.0000      1.0079
  115   1 O    8       0.820000    1.150000   37.117999       6.0000     15.9994
  116   2 H    1       0.090000    1.720000   36.767999       1.0000      1.0079
  117   2 H    1       1.040000    1.480000   38.037999       1.0000      1.0079
  118   1 O    8      -0.470000   11.790000   35.857997       6.0000     15.9994
  119   2 H    1       0.260000   12.370001   36.117999       1.0000      1.0079
  120   2 H    1      -1.300000   12.360001   35.908000       1.0000      1.0079
  121   1 O    8       3.810000   15.650001   36.907998       6.0000     15.9994
  122   2 H    1       4.060000   16.610001   36.807998       1.0000      1.0079
  123   2 H    1       4.370000   15.320001   36.147998       1.0000      1.0079
  124   1 O    8       8.100000   13.690001   32.088001       6.0000     15.9994
  125   2 H    1       7.650001   14.130001   31.347999       1.0000      1.0079
  126   2 H    1       7.450001   13.370000   32.797998       1.0000      1.0079
  127   1 O    8       8.750001    4.210001   39.208000       6.0000     15.9994
  128   2 H    1       8.010000    4.300000   39.857999       1.0000      1.0079
  129   2 H    1       9.350000    4.960000   39.327998       1.0000      1.0079
  130   1 O    8      11.850000   13.250000   29.977996       6.0000     15.9994
  131   2 H    1      11.260000   14.070001   30.167999       1.0000      1.0079
  132   2 H    1      11.280001   12.610001   29.537998       1.0000      1.0079
  133   1 O    8     -11.350001   15.280001   34.837999       6.0000     15.9994
  134   2 H    1     -11.910001   15.710001   34.128000       1.0000      1.0079
  135   2 H    1     -10.660001   15.980000   35.097999       1.0000      1.0079
  136   1 O    8      -5.820000    7.160000   34.007999       6.0000     15.9994
  137   2 H    1      -6.290000    6.360001   34.347999       1.0000      1.0079
  138   2 H    1      -6.460000    7.810000   33.687999       1.0000      1.0079
  139   1 O    8       4.110000   18.210001   35.677999       6.0000     15.9994
  140   2 H    1      12.520000    4.540000   35.997997       1.0000      1.0079
  141   2 H    1     -12.480001   18.350000   34.777997       1.0000      1.0079
  142   1 O    8       4.760000   -8.940001   32.517999       6.0000     15.9994
  143   2 H    1       4.900000   -8.290001   33.227998       1.0000      1.0079
  144   2 H    1       3.830000   -8.930000   32.318000       1.0000      1.0079
  145   1 O    8       5.930000   -4.640000   39.527999       6.0000     15.9994
  146   2 H    1       6.470000   -5.080000   38.817998       1.0000      1.0079
  147   2 H    1       4.960000   -4.490000   39.247999       1.0000      1.0079
  148   1 O    8       3.030000    7.690001   33.308000       6.0000     15.9994
  149   2 H    1       2.950000    8.490001   33.937999       1.0000      1.0079
  150   2 H    1       2.270000    7.550001   32.748000       1.0000      1.0079
  151   1 O    8     -10.880001   -4.390000   29.827998       6.0000     15.9994
  152   2 H    1     -10.790000   -5.360000   29.987998       1.0000      1.0079
  153   2 H    1     -11.660000   -4.300000   30.437999       1.0000      1.0079
  154   1 O    8      -4.070000   11.320001   35.367997       6.0000     15.9994
  155   2 H    1      -4.810000   11.290001   36.027997       1.0000      1.0079
  156   2 H    1      -4.430000   11.550001   34.477998       1.0000      1.0079
  157   1 O    8       2.200000   -0.230000   32.847999       6.0000     15.9994
  158   2 H    1       1.240000   -0.540000   32.648000       1.0000      1.0079
  159   2 H    1       2.250000    0.230000   33.727998       1.0000      1.0079
  160   1 O    8      -8.750001    0.550000   38.077998       6.0000     15.9994
  161   2 H    1      -8.220000    0.550000   38.917999       1.0000      1.0079
  162   2 H    1      -9.710001    0.330000   38.268001       1.0000      1.0079
  163   1 O    8       8.910000   19.030001   29.877998       6.0000     15.9994
  164   2 H    1      17.600000    4.750000   28.947997       1.0000      1.0079
  165   2 H    1       8.000000   19.340002   30.167999       1.0000      1.0079
  166   1 O    8      -0.180000    6.540000   39.728000       6.0000     15.9994
  167   2 H    1      -0.180000    7.330000   40.277999       1.0000      1.0079
  168   2 H    1      -0.720000    5.870000   40.308000       1.0000      1.0079
  169   1 O    8       2.380000    9.840000   34.787999       6.0000     15.9994
  170   2 H    1       1.450000    9.920000   34.357999       1.0000      1.0079
  171   2 H    1       2.370000   10.520000   35.497999       1.0000      1.0079
  172   1 O    8       2.020000   -4.090000   29.408000       6.0000     15.9994
  173   2 H    1       2.560000   -4.860000   29.627998       1.0000      1.0079
  174   2 H    1       1.220000   -4.090000   30.088001       1.0000      1.0079
  175   1 O    8       2.000000   20.670002   29.787998       6.0000     15.9994
  176   2 H    1       1.480000   20.340002   30.577998       1.0000      1.0079
  177   2 H    1      11.190001    5.380001   29.677997       1.0000      1.0079
  178   1 O    8       5.790000   12.930001   29.917999       6.0000     15.9994
  179   2 H    1       6.600000   12.360001   29.757999       1.0000      1.0079
  180   2 H    1       4.990000   12.280001   30.037998       1.0000      1.0079
  181   1 O    8      -9.200000   -5.150001   37.218000       6.0000     15.9994
  182   2 H    1      -8.370000   -5.180000   37.767997       1.0000      1.0079
  183   2 H    1      -9.130000   -4.420000   36.607999       1.0000      1.0079
  184   1 O    8       8.660001    5.070000   31.708000       6.0000     15.9994
  185   2 H    1       8.490001    4.490000   32.487998       1.0000      1.0079
  186   2 H    1       7.750000    5.350000   31.387998       1.0000      1.0079
  187   1 O    8       4.350000   11.480000   33.327998       6.0000     15.9994
  188   2 H    1       3.700000   10.940001   33.857997       1.0000      1.0079
  189   2 H    1       4.980001   10.960001   32.827998       1.0000      1.0079
  190   1 O    8      -9.890000  -22.070000   35.167999       6.0000     15.9994
  191   2 H    1      -9.120001  -21.480000   35.277999       1.0000      1.0079
  192   2 H    1      -9.650001  -22.800003   35.808000       1.0000      1.0079
  193   1 O    8      -8.770000   -2.980000   31.377998       6.0000     15.9994
  194   2 H    1      -9.450001   -3.440000   30.847999       1.0000      1.0079
  195   2 H    1      -9.150001   -2.140000   31.737998       1.0000      1.0079
  196   1 O    8       5.600000    2.860000   33.587999       6.0000     15.9994
  197   2 H    1       5.140000    3.620000   33.057998       1.0000      1.0079
  198   2 H    1       6.580000    3.250000   33.787998       1.0000      1.0079
  199   1 O    8       8.650001    9.070001   36.107999       6.0000     15.9994
  200   2 H    1       9.220000    9.390000   35.357999       1.0000      1.0079
  201   2 H    1       7.960001    9.720000   36.157998       1.0000      1.0079
  202   1 O    8       1.380000    8.910000   29.817996       6.0000     15.9994
  203   2 H    1      -7.470000   23.860001   28.967998       1.0000      1.0079
  204   2 H    1       0.600000    8.550000   30.357997       1.0000      1.0079
  205   1 O    8     -22.560001   11.540001   33.137998       6.0000     15.9994
  206   2 H    1     -22.750000   12.390001   32.718000       1.0000      1.0079
  207   2 H    1     -21.940001   10.880001   32.607997       1.0000      1.0079
  208   1 O    8       3.300000   -0.530000   39.058000       6.0000     15.9994
  209   2 H    1       3.870000   -0.080000   38.397998       1.0000      1.0079
  210   2 H    1       2.950000   -1.200000   38.517999       1.0000      1.0079
  211   1 O    8      13.380001    2.500000   31.217998       6.0000     15.9994
  212   2 H    1      14.250001    2.860000   31.657996       1.0000      1.0079
  213   2 H    1      12.700001    2.200000   31.987998       1.0000      1.0079
  214   1 O    8     -11.170001    9.990001   31.317998       6.0000     15.9994
  215   2 H    1     -11.900001   10.010000   30.697997       1.0000      1.0079
  216   2 H    1     -11.190001    9.090000   31.757999       1.0000      1.0079
  217   1 O    8      -0.910000  -15.100001   32.017997       6.0000     15.9994
  218   2 H    1      -1.710000  -14.850000   32.497999       1.0000      1.0079
  219   2 H    1      -0.940000  -14.610001   31.167999       1.0000      1.0079
  220   1 O    8       2.650000    1.240000   30.327998       6.0000     15.9994
  221   2 H    1       2.450000    1.070000   31.267999       1.0000      1.0079
  222   2 H    1       1.730000    1.350000   29.958000       1.0000      1.0079
  223   1 O    8      -1.630000    2.990000   39.287999       6.0000     15.9994
  224   2 H    1      -1.150000    2.350000   39.907998       1.0000      1.0079
  225   2 H    1      -2.310000    2.360000   39.068000       1.0000      1.0079
  226   1 O    8     -14.430000   -2.740000   37.007999       6.0000     15.9994
  227   2 H    1     -14.010000   -3.200000   37.847999       1.0000      1.0079
  228   2 H    1     -15.330001   -3.210000   36.967998       1.0000      1.0079
  229   1 O    8      21.860001    1.090000   37.407998       6.0000     15.9994
  230   2 H    1      22.280003    0.490000   36.677999       1.0000      1.0079
  231   2 H    1      21.550003    1.890000   36.877998       1.0000      1.0079
  232   1 O    8     -10.200001    6.380000   30.467998       6.0000     15.9994
  233   2 H    1     -10.680000    6.860001   31.227998       1.0000      1.0079
  234   2 H    1     -11.020000    5.960000   30.018001       1.0000      1.0079
  235   1 O    8       1.360000   19.590000   35.097999       6.0000     15.9994
  236   2 H    1       1.870000   18.790001   35.378000       1.0000      1.0079
  237   2 H    1       0.680000   19.740002   35.808000       1.0000      1.0079
  238   1 O    8      20.190001    5.020000   33.708000       6.0000     15.9994
  239   2 H    1      19.860001    4.700000   32.787999       1.0000      1.0079
  240   2 H    1      19.980001    6.010000   33.777999       1.0000      1.0079
  241   1 O    8       0.500000  -13.890000   33.947997       6.0000     15.9994
  242   2 H    1       0.340000  -14.530001   33.247999       1.0000      1.0079
  243   2 H    1       0.870000  -14.350000   34.777997       1.0000      1.0079
  244   1 O    8       3.030000    7.800000   36.798000       6.0000     15.9994
  245   2 H    1       2.490000    8.120001   37.507999       1.0000      1.0079
  246   2 H    1       2.890000    8.490001   36.097999       1.0000      1.0079
  247   1 O    8      -9.350000    7.630000   39.687999       6.0000     15.9994
  248   2 H    1     -10.130000    7.740001   39.138000       1.0000      1.0079
  249   2 H    1      -8.590000    7.970000   39.208000       1.0000      1.0079
  250   1 O    8       3.760000   18.800001   29.537998       6.0000     15.9994
  251   2 H    1       4.180000   18.680000   28.627998       1.0000      1.0079
  252   2 H    1       4.180000   18.240002   30.207996       1.0000      1.0079
  253   1 O    8       5.540000    8.420001   37.857999       6.0000     15.9994
  254   2 H    1      -3.740000   22.590000   37.567998       1.0000      1.0079
  255   2 H    1       6.250000    8.220000   37.177997       1.0000      1.0079
  256   1 O    8       8.050001   11.280001   30.597999       6.0000     15.9994
  257   2 H    1       7.350000   10.580001   30.777999       1.0000      1.0079
  258   2 H    1       8.060000   11.800001   31.407998       1.0000      1.0079
  259   1 O    8      -1.240000   15.780001   29.867999       6.0000     15.9994
  260   2 H    1      -0.570000   16.450001   29.568000       1.0000      1.0079
  261   2 H    1      -1.550000   15.420000   29.048000       1.0000      1.0079
  262   1 O    8      -2.650000   22.240002   32.617999       6.0000     15.9994
  263   2 H    1      -3.610000   22.090000   32.937997       1.0000      1.0079
  264   2 H    1      -2.190000   21.770000   33.408000       1.0000      1.0079
  265   1 O    8      -8.860001   13.580000   37.837997       6.0000     15.9994
  266   2 H    1      -8.270000   14.390000   37.718000       1.0000      1.0079
  267   2 H    1      -8.900001   12.920000   37.128000       1.0000      1.0079
  268   1 O    8       7.320001   -7.970000   37.327998       6.0000     15.9994
  269   2 H    1       7.350000   -7.010000   37.117999       1.0000      1.0079
  270   2 H    1       7.550001   -8.140000   38.268001       1.0000      1.0079
  271   1 O    8      14.740001    5.340000   30.207996       6.0000     15.9994
  272   2 H    1      14.330001    5.410000   31.117999       1.0000      1.0079
  273   2 H    1      14.070001    5.270000   29.568000       1.0000      1.0079
  274   1 O    8     -13.570002   -4.020000   39.097999       6.0000     15.9994
  275   2 H    1     -13.810000   -3.650000   39.997999       1.0000      1.0079
  276   2 H    1     -14.180001   -4.820000   38.898000       1.0000      1.0079
  277   1 O    8       4.180000   -5.090000   32.107997       6.0000     15.9994
  278   2 H    1       4.690000   -5.840001   32.517999       1.0000      1.0079
  279   2 H    1       3.670000   -5.560000   31.427997       1.0000      1.0079
  280   1 O    8      18.650002    4.490000   39.518001       6.0000     15.9994
  281   2 H    1       2.680000    4.790000   39.818000       1.0000      1.0079
  282   2 H    1      18.040001    5.260000   39.777997       1.0000      1.0079
  283   1 O    8     -12.380000   15.330001   29.208000       6.0000     15.9994
  284   2 H    1     -12.000000   14.490002   29.548000       1.0000      1.0079
  285   2 H    1     -11.850000   16.080000   29.587997       1.0000      1.0079
  286   1 O    8      -6.440001    0.360000   29.647998       6.0000     15.9994
  287   2 H    1      -5.490000    0.630000   29.417999       1.0000      1.0079
  288   2 H    1      -6.750000    1.140000   30.228000       1.0000      1.0079
  289   1 O    8       2.690000   11.690001   36.717998       6.0000     15.9994
  290   2 H    1       2.480000   12.590000   36.527999       1.0000      1.0079
  291   2 H    1       3.520000   11.530000   37.237998       1.0000      1.0079
  292   1 O    8      -8.770000    3.150000   33.957998       6.0000     15.9994
  293   2 H    1      -8.310000    2.200000   34.017997       1.0000      1.0079
  294   2 H    1      -8.310000    3.750000   34.597999       1.0000      1.0079
  295   3 Pt  78       1.780000    0.620000   26.817996      10.0000    195.0840
  296   3 Pt  78       4.590000    0.800000   26.957996      10.0000    195.0840
  297   3 Pt  78       7.380000    0.850000   26.717998      10.0000    195.0840
  298   3 Pt  78      10.140000    0.750000   26.838001      10.0000    195.0840
  299   3 Pt  78      12.890000    0.680000   26.827998      10.0000    195.0840
  300   3 Pt  78      15.780001    0.730000   26.838001      10.0000    195.0840
  301   3 Pt  78       3.170000    3.170000   26.817996      10.0000    195.0840
  302   3 Pt  78       6.080000    3.210000   26.937999      10.0000    195.0840
  303   3 Pt  78       8.830000    3.220000   26.727996      10.0000    195.0840
  304   3 Pt  78      11.580001    3.240000   26.967998      10.0000    195.0840
  305   3 Pt  78      14.470000    3.130000   26.867999      10.0000    195.0840
  306   3 Pt  78       0.350000    3.000000   26.838001      10.0000    195.0840
  307   3 Pt  78       4.410000    5.530000   26.937999      10.0000    195.0840
  308   3 Pt  78       7.220001    5.580000   26.627998      10.0000    195.0840
  309   3 Pt  78      10.130000    5.540000   26.667999      10.0000    195.0840
  310   3 Pt  78      13.020000    5.580000   26.747997      10.0000    195.0840
  311   3 Pt  78      -1.120000    5.480001   26.687999      10.0000    195.0840
  312   3 Pt  78       1.600000    5.510000   26.857997      10.0000    195.0840
  313   3 Pt  78       5.860000    8.060000   26.857997      10.0000    195.0840
  314   3 Pt  78       8.790001    7.940001   26.897998      10.0000    195.0840
  315   3 Pt  78      11.550001    7.920001   26.687999      10.0000    195.0840
  316   3 Pt  78      -2.500000    8.000000   26.698001      10.0000    195.0840
  317   3 Pt  78       0.230000    7.970000   26.638000      10.0000    195.0840
  318   3 Pt  78       3.150000    7.970000   26.847999      10.0000    195.0840
  319   3 Pt  78       7.310000   10.490000   26.807998      10.0000    195.0840
  320   3 Pt  78      10.090000   10.270000   27.057998      10.0000    195.0840
  321   3 Pt  78      -3.870000   10.350000   26.947997      10.0000    195.0840
  322   3 Pt  78      -1.120000   10.450001   26.747997      10.0000    195.0840
  323   3 Pt  78       1.680000   10.420000   26.687999      10.0000    195.0840
  324   3 Pt  78       4.580000   10.460000   26.807998      10.0000    195.0840
  325   3 Pt  78       8.720000   12.940001   26.827998      10.0000    195.0840
  326   3 Pt  78      -5.280000   12.760000   26.928001      10.0000    195.0840
  327   3 Pt  78      -2.520000   12.900001   26.847999      10.0000    195.0840
  328   3 Pt  78       0.300000   12.900001   26.807998      10.0000    195.0840
  329   3 Pt  78       3.110000   12.810000   26.747997      10.0000    195.0840
  330   3 Pt  78       5.900001   12.920000   26.827998      10.0000    195.0840
  331   3 Pt  78       0.270000    1.590000   24.527999      10.0000    195.0840
  332   3 Pt  78       3.100000    1.550000   24.548000      10.0000    195.0840
  333   3 Pt  78       5.880000    1.400000   24.417999      10.0000    195.0840
  334   3 Pt  78       8.690001    1.350000   24.357997      10.0000    195.0840
  335   3 Pt  78      11.440001    1.390000   24.437999      10.0000    195.0840
  336   3 Pt  78      14.210001    1.470000   24.577998      10.0000    195.0840
  337   3 Pt  78       1.760000    3.990000   24.478000      10.0000    195.0840
  338   3 Pt  78       4.520000    4.000000   24.557998      10.0000    195.0840
  339   3 Pt  78       7.260000    3.770000   24.377998      10.0000    195.0840
  340   3 Pt  78      10.020000    3.840000   24.247997      10.0000    195.0840
  341   3 Pt  78      12.820001    3.940000   24.417999      10.0000    195.0840
  342   3 Pt  78      -1.210000    3.950000   24.377998      10.0000    195.0840
  343   3 Pt  78       3.240000    6.330000   24.638000      10.0000    195.0840
  344   3 Pt  78       5.900001    6.380000   24.417999      10.0000    195.0840
  345   3 Pt  78       8.540000    6.370000   24.478000      10.0000    195.0840
  346   3 Pt  78      11.360001    6.420000   24.317996      10.0000    195.0840
  347   3 Pt  78      -2.560000    6.370000   24.347999      10.0000    195.0840
  348   3 Pt  78       0.270000    6.270000   24.417999      10.0000    195.0840
  349   3 Pt  78       4.410000    8.830000   24.437999      10.0000    195.0840
  350   3 Pt  78       7.240000    8.780001   24.467998      10.0000    195.0840
  351   3 Pt  78      10.010000    8.880001   24.587997      10.0000    195.0840
  352   3 Pt  78      -4.030000    8.800000   24.417999      10.0000    195.0840
  353   3 Pt  78      -1.080000    8.760000   24.387996      10.0000    195.0840
  354   3 Pt  78       1.740000    8.730000   24.437999      10.0000    195.0840
  355   3 Pt  78       5.880000   11.300000   24.417999      10.0000    195.0840
  356   3 Pt  78       8.570001   11.310000   24.498000      10.0000    195.0840
  357   3 Pt  78      -5.440001   11.250000   24.597999      10.0000    195.0840
  358   3 Pt  78      -2.620000   11.200000   24.417999      10.0000    195.0840
  359   3 Pt  78       0.330000   11.230000   24.377998      10.0000    195.0840
  360   3 Pt  78       3.130000   11.320001   24.367999      10.0000    195.0840
  361   3 Pt  78       7.220001   13.780001   24.507999      10.0000    195.0840
  362   3 Pt  78      -6.870000   13.620001   24.498000      10.0000    195.0840
  363   3 Pt  78      -3.980000   13.710001   24.467998      10.0000    195.0840
  364   3 Pt  78      -1.200000   13.600000   24.487998      10.0000    195.0840
  365   3 Pt  78       1.670000   13.640001   24.537998      10.0000    195.0840
  366   3 Pt  78       4.600000   13.660001   24.457996      10.0000    195.0840
  367   3 Pt  78      -8.270000   14.500000   22.177997      10.0000    195.0840
  368   3 Pt  78      -5.410000   14.530001   22.267997      10.0000    195.0840
  369   3 Pt  78      -2.550000   14.450001   22.137996      10.0000    195.0840
  370   3 Pt  78       0.180000   14.350000   22.147998      10.0000    195.0840
  371   3 Pt  78       3.030000   14.440001   22.127998      10.0000    195.0840
  372   3 Pt  78       5.820000   14.560001   22.037998      10.0000    195.0840
  373   3 Pt  78       1.590000    2.410000   22.177997      10.0000    195.0840
  374   3 Pt  78       4.410000    2.410000   22.197997      10.0000    195.0840
  375   3 Pt  78       7.240000    2.330000   22.048000      10.0000    195.0840
  376   3 Pt  78      10.040001    2.180000   22.067996      10.0000    195.0840
  377   3 Pt  78      12.860001    2.320000   22.077998      10.0000    195.0840
  378   3 Pt  78      -1.220000    2.280000   22.117999      10.0000    195.0840
  379   3 Pt  78       3.120000    4.840000   22.207996      10.0000    195.0840
  380   3 Pt  78       5.840001    4.740000   22.147998      10.0000    195.0840
  381   3 Pt  78       8.680000    4.760000   22.057998      10.0000    195.0840
  382   3 Pt  78      11.390000    4.760000   22.057998      10.0000    195.0840
  383   3 Pt  78      -2.580000    4.750000   22.107997      10.0000    195.0840
  384   3 Pt  78       0.240000    4.730000   22.167999      10.0000    195.0840
  385   3 Pt  78       4.500000    7.270000   22.158000      10.0000    195.0840
  386   3 Pt  78       7.170000    7.190001   22.127998      10.0000    195.0840
  387   3 Pt  78       9.970000    7.340000   22.167999      10.0000    195.0840
  388   3 Pt  78      -4.110000    7.180000   22.077998      10.0000    195.0840
  389   3 Pt  78      -1.160000    7.150001   22.037998      10.0000    195.0840
  390   3 Pt  78       1.660000    7.160000   22.228000      10.0000    195.0840
  391   3 Pt  78       5.820000    9.710001   22.197997      10.0000    195.0840
  392   3 Pt  78       8.610001    9.630001   22.247997      10.0000    195.0840
  393   3 Pt  78      -5.440001    9.690001   22.277999      10.0000    195.0840
  394   3 Pt  78      -2.560000    9.500000   22.228000      10.0000    195.0840
  395   3 Pt  78       0.310000    9.550000   22.088001      10.0000    195.0840
  396   3 Pt  78       3.030000    9.600000   22.088001      10.0000    195.0840
  397   3 Pt  78       7.180000   12.160001   22.117999      10.0000    195.0840
  398   3 Pt  78      -6.870000   12.150001   22.277999      10.0000    195.0840
  399   3 Pt  78      -4.020000   12.070000   22.158000      10.0000    195.0840
  400   3 Pt  78      -1.230000   12.000000   22.158000      10.0000    195.0840
  401   3 Pt  78       1.560000   12.080001   22.018001      10.0000    195.0840
  402   3 Pt  78       4.290000   12.130001   22.067996      10.0000    195.0840
  403   3 Pt  78       1.550000    0.730000   19.950000      10.0000    195.0840
  404   3 Pt  78       4.430000    0.710000   19.970000      10.0000    195.0840
  405   3 Pt  78       7.230001    0.700000   19.900000      10.0000    195.0840
  406   3 Pt  78       9.860001    0.650000   19.780000      10.0000    195.0840
  407   3 Pt  78      12.720001    0.660000   19.720000      10.0000    195.0840
  408   3 Pt  78      15.580001    0.690000   19.840000      10.0000    195.0840
  409   3 Pt  78       3.070000    3.100000   19.840000      10.0000    195.0840
  410   3 Pt  78       5.790000    3.190000   19.790000      10.0000    195.0840
  411   3 Pt  78       8.540000    3.250000   19.820000      10.0000    195.0840
  412   3 Pt  78      11.320001    3.030000   19.780000      10.0000    195.0840
  413   3 Pt  78      14.180001    3.070000   19.780000      10.0000    195.0840
  414   3 Pt  78       0.160000    3.060000   19.750000      10.0000    195.0840
  415   3 Pt  78       4.360000    5.630000   19.820000      10.0000    195.0840
  416   3 Pt  78       7.120000    5.650000   19.810000      10.0000    195.0840
  417   3 Pt  78       9.960001    5.690000   19.760000      10.0000    195.0840
  418   3 Pt  78      12.690001    5.500000   19.820000      10.0000    195.0840
  419   3 Pt  78      -1.200000    5.460000   19.800000      10.0000    195.0840
  420   3 Pt  78       1.640000    5.430000   19.890000      10.0000    195.0840
  421   3 Pt  78       5.840001    8.090000   19.820000      10.0000    195.0840
  422   3 Pt  78       8.590000    8.070001   19.840000      10.0000    195.0840
  423   3 Pt  78      11.420001    8.000000   19.840000      10.0000    195.0840
  424   3 Pt  78      -2.670000    7.980001   19.790000      10.0000    195.0840
  425   3 Pt  78       0.180000    7.900000   19.830000      10.0000    195.0840
  426   3 Pt  78       2.990000    7.950000   19.790000      10.0000    195.0840
  427   3 Pt  78       7.120000   10.520000   19.870000      10.0000    195.0840
  428   3 Pt  78       9.980000   10.490000   19.940000      10.0000    195.0840
  429   3 Pt  78      -4.000000   10.480001   19.910000      10.0000    195.0840
  430   3 Pt  78      -1.250000   10.370001   19.720000      10.0000    195.0840
  431   3 Pt  78       1.540000   10.440001   19.740000      10.0000    195.0840
  432   3 Pt  78       4.340000   10.430001   19.850000      10.0000    195.0840
  433   3 Pt  78       8.590000   12.870001   19.810000      10.0000    195.0840
  434   3 Pt  78      -5.510000   12.830001   20.040000      10.0000    195.0840
  435   3 Pt  78      -2.700000   12.800001   19.820000      10.0000    195.0840
  436   3 Pt  78       0.060000   12.830001   19.820000      10.0000    195.0840
  437   3 Pt  78       2.870000   12.870001   19.680000      10.0000    195.0840
  438   3 Pt  78       5.730000   12.920000   19.810000      10.0000    195.0840
  439   3 Pt  78       0.080000    1.510000   17.430000      10.0000    195.0840
  440   3 Pt  78       2.860000    1.390000   17.610000      10.0000    195.0840
  441   3 Pt  78       5.650000    1.550000   17.690000      10.0000    195.0840
  442   3 Pt  78       8.440001    1.610000   17.530000      10.0000    195.0840
  443   3 Pt  78      11.350001    1.610000   17.400000      10.0000    195.0840
  444   3 Pt  78      14.140000    1.550000   17.520000      10.0000    195.0840
  445   3 Pt  78       1.460000    3.830000   17.440000      10.0000    195.0840
  446   3 Pt  78       4.280000    3.930000   17.490000      10.0000    195.0840
  447   3 Pt  78       7.020000    4.040000   17.360000      10.0000    195.0840
  448   3 Pt  78       9.870001    3.970000   17.560000      10.0000    195.0840
  449   3 Pt  78      12.730000    4.020000   17.510000      10.0000    195.0840
  450   3 Pt  78      -1.380000    3.980000   17.470000      10.0000    195.0840
  451   3 Pt  78       2.920000    6.210001   17.530000      10.0000    195.0840
  452   3 Pt  78       5.700001    6.440001   17.550000      10.0000    195.0840
  453   3 Pt  78       8.450001    6.430000   17.430000      10.0000    195.0840
  454   3 Pt  78      11.270000    6.450000   17.510000      10.0000    195.0840
  455   3 Pt  78      -2.580000    6.390000   17.610000      10.0000    195.0840
  456   3 Pt  78       0.160000    6.230001   17.540000      10.0000    195.0840
  457   3 Pt  78       4.220000    8.780001   17.460000      10.0000    195.0840
  458   3 Pt  78       7.080000    8.820001   17.420000      10.0000    195.0840
  459   3 Pt  78       9.950001    8.780001   17.600000      10.0000    195.0840
  460   3 Pt  78      -4.080000    8.830000   17.520000      10.0000    195.0840
  461   3 Pt  78      -1.250000    8.810000   17.470000      10.0000    195.0840
  462   3 Pt  78       1.530000    8.760000   17.490000      10.0000    195.0840
  463   3 Pt  78       5.770000   11.280001   17.430000      10.0000    195.0840
  464   3 Pt  78       8.530001   11.220001   17.590000      10.0000    195.0840
  465   3 Pt  78      -5.570001   11.200000   17.620000      10.0000    195.0840
  466   3 Pt  78      -2.740000   11.270000   17.560000      10.0000    195.0840
  467   3 Pt  78      -0.020000   11.300000   17.450000      10.0000    195.0840
  468   3 Pt  78       2.900000   11.240001   17.560000      10.0000    195.0840
  469   3 Pt  78       7.100000   13.660001   17.510000      10.0000    195.0840
  470   3 Pt  78      -7.000000   13.730000   17.660000      10.0000    195.0840
  471   3 Pt  78      -4.150000   13.640001   17.730000      10.0000    195.0840
  472   3 Pt  78      -1.270000   13.690001   17.510000      10.0000    195.0840
  473   3 Pt  78       1.470000   13.640001   17.450000      10.0000    195.0840
  474   3 Pt  78       4.260000   13.660001   17.390000      10.0000    195.0840
  475   3 Pt  78      -8.500000   14.500000   15.200000      10.0000    195.0840
  476   3 Pt  78      -5.790000   14.480001   15.240000      10.0000    195.0840
  477   3 Pt  78      -2.880000   14.420000   15.320000      10.0000    195.0840
  478   3 Pt  78       0.050000   14.500000   15.220000      10.0000    195.0840
  479   3 Pt  78       2.860000   14.480001   15.140000      10.0000    195.0840
  480   3 Pt  78       5.680000   14.580001   15.090000      10.0000    195.0840
  481   3 Pt  78       1.420000    2.280000   15.000000      10.0000    195.0840
  482   3 Pt  78       4.230000    2.130000   15.289999      10.0000    195.0840
  483   3 Pt  78       6.980000    2.180000   15.140000      10.0000    195.0840
  484   3 Pt  78       9.720000    2.360000   15.159999      10.0000    195.0840
  485   3 Pt  78      12.460001    2.430000   15.030000      10.0000    195.0840
  486   3 Pt  78      -1.560000    2.330000   15.159999      10.0000    195.0840
  487   3 Pt  78       2.880000    4.640000   15.240000      10.0000    195.0840
  488   3 Pt  78       5.760000    4.550000   15.020000      10.0000    195.0840
  489   3 Pt  78       8.530001    4.800000   15.050000      10.0000    195.0840
  490   3 Pt  78      11.240001    4.850000   15.020000      10.0000    195.0840
  491   3 Pt  78      -2.840000    4.830000   15.210000      10.0000    195.0840
  492   3 Pt  78       0.040000    4.640000   15.210000      10.0000    195.0840
  493   3 Pt  78       4.260000    7.020000   15.070000      10.0000    195.0840
  494   3 Pt  78       7.070000    7.160000   15.200000      10.0000    195.0840
  495   3 Pt  78       9.880000    7.250000   15.099999      10.0000    195.0840
  496   3 Pt  78      -4.200000    7.240000   15.159999      10.0000    195.0840
  497   3 Pt  78      -1.390000    7.120000   15.240000      10.0000    195.0840
  498   3 Pt  78       1.390000    7.150001   15.099999      10.0000    195.0840
  499   3 Pt  78       5.550000    9.580001   15.270000      10.0000    195.0840
  500   3 Pt  78       8.380001    9.730001   15.159999      10.0000    195.0840
  501   3 Pt  78      -5.700001    9.640000   15.320000      10.0000    195.0840
  502   3 Pt  78      -2.820000    9.630001   15.130000      10.0000    195.0840
  503   3 Pt  78      -0.070000    9.550000   15.110000      10.0000    195.0840
  504   3 Pt  78       2.690000    9.540001   15.110000      10.0000    195.0840
  505   3 Pt  78       7.010000   12.090001   15.059999      10.0000    195.0840
[...]
 -                                                                             -
 -                                DBCSR STATISTICS                             -
 -                                                                             -
 -------------------------------------------------------------------------------
 COUNTER                                    TOTAL       BLAS       SMM       ACC
 flops     5 x     5 x   116           5708644200       0.0%    100.0%      0.0%
 flops     5 x    13 x   116           7251655320       0.0%    100.0%      0.0%
 flops    13 x     5 x   116           7255500720       0.0%    100.0%      0.0%
 flops    13 x    13 x   116           8654303424       0.0%    100.0%      0.0%
 flops     5 x     5 x    96           9448790400       0.0%    100.0%      0.0%
 flops     5 x    13 x    96          12002739840       0.0%    100.0%      0.0%
 flops    13 x     5 x    96          12009104640       0.0%    100.0%      0.0%
 flops    20 x    13 x   116          12514469760       0.0%    100.0%      0.0%
 flops    13 x    20 x   116          12572919840       0.0%    100.0%      0.0%
 flops    20 x     5 x   116          13346496000       0.0%    100.0%      0.0%
 flops     5 x    20 x   116          13357144800       0.0%    100.0%      0.0%
 flops    13 x    13 x    96          14324364288       0.0%    100.0%      0.0%
 flops    20 x    13 x    96          20713605120       0.0%    100.0%      0.0%
 flops    13 x    20 x    96          20810350080       0.0%    100.0%      0.0%
 flops    20 x     5 x    96          22090752000       0.0%    100.0%      0.0%
 flops     5 x    20 x    96          22108377600       0.0%    100.0%      0.0%
 flops     5 x     5 x   128          81889516800       0.0%    100.0%      0.0%
 flops     5 x    13 x   128         104023745280       0.0%    100.0%      0.0%
 flops    13 x     5 x   128         104078906880       0.0%    100.0%      0.0%
 flops    20 x    20 x   116         110917900800       0.0%    100.0%      0.0%
 flops    13 x    13 x   128         124144490496       0.0%    100.0%      0.0%
 flops    20 x    13 x   128         179517911040       0.0%    100.0%      0.0%
 flops    13 x    20 x   128         180356367360       0.0%    100.0%      0.0%
 flops    20 x    20 x    96         183588249600       0.0%    100.0%      0.0%
 flops    20 x     5 x   128         191453184000       0.0%    100.0%      0.0%
 flops     5 x    20 x   128         191605939200       0.0%    100.0%      0.0%
 flops    20 x    20 x   128        1591098163200       0.0%    100.0%      0.0%
 flops inhomo. stacks                           0       0.0%      0.0%      0.0%
 flops total                         3.256844E+12       0.0%    100.0%      0.0%
 flops max/rank                     27.666150E+09       0.0%    100.0%      0.0%
 matmuls inhomo. stacks                         0       0.0%      0.0%      0.0%
 matmuls total                           78866400       0.0%    100.0%      0.0%
 number of processed stacks                937584       0.0%    100.0%      0.0%
 average stack size                                     0.0      84.1       0.0
 marketing flops                     6.758869E+12
 -------------------------------------------------------------------------------
 # multiplications                             51
 max memory usage/rank               1.630003E+09
 # max total images/rank                        2
 # max 3D layers                                1
 # MPI messages exchanged                  189312
 MPI messages size (bytes):
  total size                       116.364214E+09
  min size                         314.880000E+03
  max size                         843.776000E+03
  average size                     614.669000E+03
 MPI breakdown and total messages size (bytes):
             size <=      128                   0                        0
       128 < size <=     8192                   0                        0
      8192 < size <=    32768                   0                        0
     32768 < size <=   131072                   0                        0
    131072 < size <=  4194304              189312             116364217728
   4194304 < size <= 16777216                   0                        0
  16777216 < size                               0                        0
 -------------------------------------------------------------------------------

 *** WARNING in dbcsr_mm.F:290 :: Using a non-square number of MPI ranks ***
 *** might lead to poor performance. Used ranks: 128 Suggested: 121 256  ***

 -------------------------------------------------------------------------------
 -                                                                             -
 -                      DBCSR MESSAGE PASSING PERFORMANCE                      -
 -                                                                             -
 -------------------------------------------------------------------------------
 ROUTINE             CALLS      AVE VOLUME [Bytes]
 MP_Bcast               28                     12.
 MP_Allreduce          431                     11.
 MP_Alltoall          1440                 600715.
 MP_ISend             3264                 292036.
 MP_IRecv             3264                 285487.
 -------------------------------------------------------------------------------

 -------------------------------------------------------------------------------
 -                                                                             -
 -                                DBM STATISTICS                               -
 -                                                                             -
 -------------------------------------------------------------------------------
    M  x    N  x    K                                          COUNT     PERCENT
 -------------------------------------------------------------------------------

 -------------------------------------------------------------------------------
 -                                                                             -
 -                                GRID STATISTICS                              -
 -                                                                             -
 -------------------------------------------------------------------------------
 LP    KERNEL             BACKEND                              COUNT     PERCENT
 4     collocate general  REF                               20590332      22.52%
 4     integrate general  REF                               20458941      22.37%
 3     collocate general  REF                               13889391      15.19%
 3     integrate general  REF                               13834973      15.13%
 2     collocate general  REF                               11114073      12.15%
 2     integrate general  REF                               10896150      11.92%
 5     integrate general  REF                                 403732       0.44%
 0     collocate general  REF                                 130560       0.14%
 0     integrate general  REF                                  65280       0.07%
 1     integrate general  REF                                  65280       0.07%
 -------------------------------------------------------------------------------

 MEMORY| Estimated peak process memory [MiB]                                1811

 -------------------------------------------------------------------------------
 ----                             MULTIGRID INFO                            ----
 -------------------------------------------------------------------------------
 count for grid        1:        1093682          cutoff [a.u.]          200.00
 count for grid        2:        1088111          cutoff [a.u.]           66.67
 count for grid        3:         710535          cutoff [a.u.]           22.22
 count for grid        4:         547014          cutoff [a.u.]            7.41
 total gridlevel count  :        3439342

 -------------------------------------------------------------------------------
 -                                                                             -
 -                         MESSAGE PASSING PERFORMANCE                         -
 -                                                                             -
 -------------------------------------------------------------------------------

 ROUTINE             CALLS      AVE VOLUME [Bytes]
 MP_Group                4
 MP_Bcast              256                2227480.
 MP_Allreduce         3711                  28927.
 MP_Sync               106
 MP_Alltoall          3082               17097040.
 MP_SendRecv           508                   5892.
 MP_ISendRecv        25908                  61740.
 MP_Wait             45750
 MP_comm_split          51
 MP_ISend            18700                 256252.
 MP_IRecv            18700                 256252.
 MP_Recv               183                1682944.
 MP_Write_All            3                1797408.
 -------------------------------------------------------------------------------


 -------------------------------------------------------------------------------
 -                                                                             -
 -                           R E F E R E N C E S                               -
 -                                                                             -
 -------------------------------------------------------------------------------
 
 CP2K version 2022.1, the CP2K developers group (2022).
 CP2K is freely available from https://www.cp2k.org/ .

 Kuehne,Thomas D.; Iannuzzi,Marcella; Del Ben,Mauro;
 Rybkin,Vladimir V.; Seewald,Patrick; Stein,Frederick; Laino,Teodoro;
 Khaliullin,Rustam Z.; Schuett,Ole; Schiffmann,Florian; Golze,Dorothea;
 Wilhelm,Jan; Chulkov,Sergey; Bani-Hashemian,Mohammad Hossein;
 Weber,Valery; Borstnik,Urban; Taillefumier,Mathieu;
 Jakobovits,Alice Shoshana; Lazzaro,Alfio; Pabst,Hans; Mueller,Tiziano;
 Schade,Robert; Guidon,Manuel; Andermatt,Samuel; Holmberg,Nico;
 Schenter,Gregory K.; Hehn,Anna; Bussy,Augustin; Belleflamme,Fabian;
 Tabacchi,Gloria; Gloess,Andreas; Lass,Michael; Bethune,Iain;
 Mundy,Christopher J.; Plessl,Christian; Watkins,Matt;
 VandeVondele,Joost; Krack,Matthias; Hutter,Juerg. 
 The Journal of Chemical Physics, 152 (19), (2020). 
 CP2K: An electronic structure and molecular dynamics software package -
 Quickstep: Efficient and accurate electronic structure calculations.
 https://doi.org/10.1063/5.0007045

 Goerigk, Lars; Hansen, Andreas; Bauer, Christoph; Ehrlich, Stephan;
 Najibi, Asim; Grimme, Stefan. , 19 (48), (2017). 
 A look at the density functional theory zoo with the advanced GMTKN55 database
 for general main group thermochemistry, kinetics and noncovalent interactions.
 https://doi.org/10.1039/C7CP04913G

 Bani-Hashemian, MH; Bruck, S; Luisier, M; VandeVondele, J. 
 JOURNAL OF CHEMICAL PHYSICS, 144 (4), 044113 (2016). 
 A generalized Poisson solver for first-principles device simulations.
 https://doi.org/10.1063/1.4940796

 Schuett, Ole; Messmer, Peter; Hutter, Juerg; VandeVondele, Joost. 
 Electronic Structure Calculations on Graphics Processing Units, John
 Wiley & Sons, Ltd, 173-190 (2016). 
 GPU-Accelerated Sparse Matrix-Matrix Multiplication for
 Linear Scaling Density Functional Theory.
 https://doi.org/10.1002/9781118670712.ch8

 Heinecke, A; Henry, G; Hutchinson, M; Pabst, H. 
 Proceedings of Intl. Supercomputing Conference, 981-991 (2016). 
 LIBXSMM: Accelerating Small Matrix Multiplications
 by Runtime Code Generation.
 https://doi.org/10.1109/SC.2016.83

 Borstnik, U; VandeVondele, J; Weber, V; Hutter, J. 
 PARALLEL COMPUTING, 40 (5-6), 47-58 (2014). 
 Sparse matrix multiplication: The distributed block-compressed sparse
 row library.
 https://doi.org/10.1016/j.parco.2014.03.012

 Hutter, J; Iannuzzi, M; Schiffmann, F; VandeVondele, J. 
 WIREs Comput Mol Sci., 4 (1), 15-25 (2014). 
 CP2K: atomistic simulations of condensed matter systems.
 https://doi.org/10.1002/wcms.1159

 Marek, A; Blum, V; Johanni, R; Havu, V; Lang, B; Auckenthaler, T;
 Heinecke, A; Bungartz, H; Lederer, H. 
 Journal of Physics: Condensed Matter, 26 (21), (2014). 
 The ELPA library: scalable parallel eigenvalue solutions for
 electronic structure
 theory and computational science.
 https://doi.org/10.1088/0953-8984/26/21/213201

 Grimme, S; Ehrlich, S; Goerigk, L. 
 JOURNAL OF COMPUTATIONAL CHEMISTRY, 32, 1456 (2011). 
 Effect of the damping function in dispersion corrected density functional theory.
 https://doi.org/10.1002/jcc.21759

 Grimme, S; Antony, J; Ehrlich, S; Krieg, H. 
 JOURNAL OF CHEMICAL PHYSICS, 132 (15), 154104 (2010). 
 A consistent and accurate ab initio parametrization of density
 functional dispersion correction (DFT-D) for the 94 elements H-Pu.
 https://doi.org/10.1063/1.3382344

 VandeVondele, J; Hutter, J. 
 JOURNAL OF CHEMICAL PHYSICS, 127 (11), 114105 (2007). 
 Gaussian basis sets for accurate calculations on molecular systems in
 gas and condensed phases.
 https://doi.org/10.1063/1.2770708

 Krack, M. 
 THEORETICAL CHEMISTRY ACCOUNTS, 114 (1-3), 145-152 (2005). 
 Pseudopotentials for H to Kr optimized for gradient-corrected
 exchange-correlation functionals.
 https://doi.org/10.1007/s00214-005-0655-y

 VandeVondele, J; Krack, M; Mohamed, F; Parrinello, M; Chassaing, T;
 Hutter, J. COMPUTER PHYSICS COMMUNICATIONS, 167 (2), 103-128 (2005). 
 QUICKSTEP: Fast and accurate density functional calculations using a
 mixed Gaussian and plane waves approach.
 https://doi.org/10.1016/j.cpc.2004.12.014

 Frigo, M; Johnson, SG. 
 PROCEEDINGS OF THE IEEE, 93 (2), 216-231 (2005). 
 The design and implementation of FFTW3.
 https://doi.org/10.1109/JPROC.2004.840301

 Hartwigsen, C; Goedecker, S; Hutter, J. 
 PHYSICAL REVIEW B, 58 (7), 3641-3662 (1998). 
 Relativistic separable dual-space Gaussian pseudopotentials from H to Rn.
 https://doi.org/10.1103/PhysRevB.58.3641

 Lippert, G; Hutter, J; Parrinello, M. 
 MOLECULAR PHYSICS, 92 (3), 477-487 (1997). 
 A hybrid Gaussian and plane wave density functional scheme.
 https://doi.org/10.1080/002689797170220

 Perdew, JP; Burke, K; Ernzerhof, M. 
 PHYSICAL REVIEW LETTERS, 77 (18), 3865-3868 (1996). 
 Generalized gradient approximation made simple.
 https://doi.org/10.1103/PhysRevLett.77.3865

 Goedecker, S; Teter, M; Hutter, J. 
 PHYSICAL REVIEW B, 54 (3), 1703-1710 (1996). 
 Separable dual-space Gaussian pseudopotentials.
 https://doi.org/10.1103/PhysRevB.54.1703


 -------------------------------------------------------------------------------
 -                                                                             -
 -                                T I M I N G                                  -
 -                                                                             -
 -------------------------------------------------------------------------------
 SUBROUTINE                       CALLS  ASD         SELF TIME        TOTAL TIME
                                MAXIMUM       AVERAGE  MAXIMUM  AVERAGE  MAXIMUM
 CP2K                                 1  1.0    0.019    0.036  355.374  355.376
 qs_forces                            1  2.0    0.002    0.003  354.969  354.972
 qs_energies                          1  3.0    0.000    0.000  348.875  348.880
 scf_env_do_scf                       1  4.0    0.000    0.000  340.636  340.772
 scf_env_do_scf_inner_loop           50  5.0    0.003    0.007  340.636  340.771
 rebuild_ks_matrix                   51  6.9    0.000    0.000  183.106  183.147
 qs_ks_build_kohn_sham_matrix        51  7.9    0.008    0.009  183.106  183.146
 qs_ks_update_qs_env                 50  6.0    0.001    0.014  179.162  179.201
 pw_transfer                       2656 12.2    0.193    0.241  115.191  117.457
 fft_wrap_pw1pw2                   2656 13.2    0.026    0.031  114.998  117.227
 fft_wrap_pw1pw2_200               2350 14.4    7.811    9.211  113.453  115.632
 pw_poisson_solve                    51  8.9    0.005    0.012   99.170   99.205
 qs_scf_new_mos                      50  6.0    0.002    0.006   96.434   96.595
 fft3d_ps                          2656 15.2   33.481   37.879   92.308   95.994
 implicit_poisson_solver_mixed_      51  9.9    2.105    2.562   93.966   94.033
 eigensolver                         50  7.0    0.004    0.006   90.938   91.205
 derive_fft                         306 12.1    0.020    0.027   66.027   66.196
 cp_fm_diag_elpa                     51  8.0    0.001    0.001   63.716   63.881
 cp_fm_redistribute_end              51  9.0    8.335   63.130    8.450   63.202
 cp_fm_diag_elpa_base                51  9.0   53.919   61.725   54.443   62.347
 mp_alltoall_z22v                  2656 17.2   49.121   60.999   49.121   60.999
 qs_rho_update_rho_low               51  6.0    0.000    0.000   56.985   56.997
 calculate_rho_elec                  51  7.0    0.098    0.122   56.985   56.996
 apply_P_operator                   255 11.1    1.356    1.502   56.370   56.522
 sum_up_and_integrate                51  8.9    0.276    0.333   55.851   55.898
 integrate_v_rspace                  51  9.9    0.002    0.003   55.574   55.689
 grid_collocate_task_list            51  8.0   36.452   44.718   36.452   44.718
 grid_integrate_task_list            51 10.9   33.776   40.552   33.776   40.552
 x_to_yz                           1531 16.4    6.493    8.215   37.162   38.708
 rs_pw_transfer                     412 10.4    0.005    0.006   25.402   30.897
 cp_fm_triangular_multiply          150  8.0   28.357   28.653   28.357   28.653
 yz_to_x                            819 16.4    2.234    2.602   20.484   27.887
 qs_vxc_create                       51  8.9    0.001    0.002   25.166   25.486
 xc_vxc_pw_create                    51  9.9    0.435    0.536   25.164   25.485
 density_rs2pw                       51  8.0    0.003    0.004   19.328   24.978
 xc_pw_derive                       306 11.9    0.005    0.006   17.746   19.654
 mp_waitany                       18700 12.4   11.501   17.547   11.501   17.547
 rs_pw_transfer_RS2PW_200            53  9.9    3.454    3.880   11.603   17.075
 apply_poisson_operator_fft          51 10.9    0.001    0.001   16.452   16.730
 apply_inv_laplace_operator_fft     155 11.6    0.387    0.460   15.027   15.594
 potential_pw2rs                     51 10.9    0.015    0.016   14.442   14.556
 mp_alltoall_d11v                   721 10.2    8.867   13.873    8.867   13.873
 xc_pw_divergence                    51 10.9    0.003    0.003   11.965   13.403
 xc_rho_set_and_dset_create          51 10.9    0.253    0.297   12.315   13.058
 rs_gather_matrices                  51 10.9    0.061    0.078    7.343   12.260
 ps_implicit_compute_error_fft      102 10.9    0.640    0.778   11.092   11.851
 ps_implicit_compute_veps            51 10.9    0.295    0.348   11.312   11.484
 pw_scatter_p                      1684 15.4    9.457   11.141    9.457   11.141
 gspace_mixing                       49  6.0    0.094    0.115    8.856    8.856
 pw_derive                         1224 13.1    7.775    8.517    7.775    8.517
 rs_pw_transfer_PW2RS_200            53 12.8    4.010    4.249    8.353    8.515
 -------------------------------------------------------------------------------

 The number of warnings for this run is : 1
 
 -------------------------------------------------------------------------------
  **** **** ******  **  PROGRAM ENDED AT                 2023-12-02 05:51:47.193
 ***** ** ***  *** **   PROGRAM RAN ON                                     cu067
 **    ****   ******    PROGRAM RAN BY                                     jxzhu
 ***** **    ** ** **   PROGRAM PROCESS ID                                 56283
  **** **  *******  **  PROGRAM STOPPED IN /public/home/jxzhu/tmp_calc/f5ee6801e
                                           c562a280c4e8d95cbe3d3a8d3437250/calc/
                                           000800.000/search_hi.000000
