 DBCSR| CPU Multiplication driver                                           XSMM
 DBCSR| Multrec recursion limit                                              512
 DBCSR| Multiplication stack size                                           1000
 DBCSR| Maximum elements for images                                    UNLIMITED
 DBCSR| Multiplicative factor virtual images                                   1
 DBCSR| Use multiplication densification                                       T
 DBCSR| Multiplication size stacks                                             3
 DBCSR| Use memory pool for CPU allocation                                     F
 DBCSR| Number of 3D layers                                               SINGLE
 DBCSR| Use MPI memory allocation                                              F
 DBCSR| Use RMA algorithm                                                      F
 DBCSR| Use Communication thread                                               T
 DBCSR| Communication thread load                                             87
 DBCSR| MPI: My node id                                                        0
 DBCSR| MPI: Number of nodes                                                 128
 DBCSR| OMP: Current number of threads                                         1
 DBCSR| OMP: Max number of threads                                             1
 DBCSR| Split modifier for TAS multiplication algorithm                  1.0E+00


  **** **** ******  **  PROGRAM STARTED AT               2023-12-02 04:49:25.716
 ***** ** ***  *** **   PROGRAM STARTED ON                                 cu062
 **    ****   ******    PROGRAM STARTED BY                                 jxzhu
 ***** **    ** ** **   PROGRAM PROCESS ID                                 58048
  **** **  *******  **  PROGRAM STARTED IN /public/home/jxzhu/tmp_calc/782f01e67
                                           96eb1f60906033c3bb780b17a045405/calc/
                                           000700.000/search_hi.000000

 CP2K| version string:                                       CP2K version 2022.1
 CP2K| source code revision number:                                  git:2caeb6f
 CP2K| cp2kflags: omp libint fftw3 libxc elpa parallel mpi3 scalapack cosma xsmm
 CP2K|             plumed2 spglib mkl sirius libvori libbqb
 CP2K| is freely available from                            https://www.cp2k.org/
 CP2K| Program compiled at                           Mon Jul 3 17:37:06 CST 2023
 CP2K| Program compiled on                                                 mu003
 CP2K| Program compiled for                                                local
 CP2K| Data directory path                             /public/home/jxzhu/basis/
 CP2K| Input file name                                                 input.inp
 
 GLOBAL| Force Environment number                                              1
 GLOBAL| Basis set file name                                        BASIS_MOLOPT
 GLOBAL| Potential file name                                      GTH_POTENTIALS
 GLOBAL| MM Potential file name                                     MM_POTENTIAL
 GLOBAL| Coordinate file name                                          coord.xyz
 GLOBAL| Method name                                                        CP2K
 GLOBAL| Project name                                                       cp2k
 GLOBAL| Run type                                                   ENERGY_FORCE
 GLOBAL| FFT library                                                       FFTW3
 GLOBAL| Diagonalization library                                            ELPA
 GLOBAL| Minimum number of eigenvectors for ELPA usage                        16
 GLOBAL| Orthonormality check for eigenvectors                          DISABLED
 GLOBAL| Matrix multiplication library                                     COSMA
 GLOBAL| All-to-all communication in single precision                          F
 GLOBAL| FFTs using library dependent lengths                                  T
 GLOBAL| Grid backend                                                       AUTO
 GLOBAL| Global print level                                               MEDIUM
 GLOBAL| MPI I/O enabled                                                       T
 GLOBAL| Total number of message passing processes                           128
 GLOBAL| Number of threads for this process                                    1
 GLOBAL| This output is from process                                           0
 GLOBAL| Stack size for threads created by OpenMP (OMP_STACKSIZE)        default
 GLOBAL| CPU model name                 Intel(R) Xeon(R) Gold 6338 CPU @ 2.00GHz
 GLOBAL| CPUID                                                              1003

 MEMORY| system memory details [Kb]
 MEMORY|                        rank 0           min           max       average
 MEMORY| MemTotal            263619172     263619168     263619172     263619170
 MEMORY| MemFree             191153868     191152876     194111904     192633105
 MEMORY| Buffers                  3320            44          3320          1682
 MEMORY| Cached                1166136        875512       1166136       1020824
 MEMORY| Slab                  1932228       1804700       1932228       1868464
 MEMORY| SReclaimable           241924        224436        241924        233180
 MEMORY| MemLikelyFree       192565248     192564256     195211896     193888791


 *** Fundamental physical constants (SI units) ***

 *** Literature: B. J. Mohr and B. N. Taylor,
 ***             CODATA recommended values of the fundamental physical
 ***             constants: 2006, Web Version 5.1
 ***             http://physics.nist.gov/constants

 Speed of light in vacuum [m/s]                             2.99792458000000E+08
 Magnetic constant or permeability of vacuum [N/A**2]       1.25663706143592E-06
 Electric constant or permittivity of vacuum [F/m]          8.85418781762039E-12
 Planck constant (h) [J*s]                                  6.62606896000000E-34
 Planck constant (h-bar) [J*s]                              1.05457162825177E-34
 Elementary charge [C]                                      1.60217648700000E-19
 Electron mass [kg]                                         9.10938215000000E-31
 Electron g factor [ ]                                     -2.00231930436220E+00
 Proton mass [kg]                                           1.67262163700000E-27
 Fine-structure constant                                    7.29735253760000E-03
 Rydberg constant [1/m]                                     1.09737315685270E+07
 Avogadro constant [1/mol]                                  6.02214179000000E+23
 Boltzmann constant [J/K]                                   1.38065040000000E-23
 Atomic mass unit [kg]                                      1.66053878200000E-27
 Bohr radius [m]                                            5.29177208590000E-11

 *** Conversion factors ***

 [u] -> [a.u.]                                              1.82288848426455E+03
 [Angstrom] -> [Bohr] = [a.u.]                              1.88972613288564E+00
 [a.u.] = [Bohr] -> [Angstrom]                              5.29177208590000E-01
 [a.u.] -> [s]                                              2.41888432650478E-17
 [a.u.] -> [fs]                                             2.41888432650478E-02
 [a.u.] -> [J]                                              4.35974393937059E-18
 [a.u.] -> [N]                                              8.23872205491840E-08
 [a.u.] -> [K]                                              3.15774647902944E+05
 [a.u.] -> [kJ/mol]                                         2.62549961709828E+03
 [a.u.] -> [kcal/mol]                                       6.27509468713739E+02
 [a.u.] -> [Pa]                                             2.94210107994716E+13
 [a.u.] -> [bar]                                            2.94210107994716E+08
 [a.u.] -> [atm]                                            2.90362800883016E+08
 [a.u.] -> [eV]                                             2.72113838565563E+01
 [a.u.] -> [Hz]                                             6.57968392072181E+15
 [a.u.] -> [1/cm] (wave numbers)                            2.19474631370540E+05
 [a.u./Bohr**2] -> [1/cm]                                   5.14048714338585E+03
 

 CELL_TOP| Volume [angstrom^3]:                                     17614.982639
 CELL_TOP| Vector a [angstrom    16.869     0.000     0.000   |a| =    16.869000
 CELL_TOP| Vector b [angstrom    -8.434    14.609     0.000   |b| =    16.869015
 CELL_TOP| Vector c [angstrom     0.000     0.000    71.478   |c| =    71.478000
 CELL_TOP| Angle (b,c), alpha [degree]:                                90.000000
 CELL_TOP| Angle (a,c), beta  [degree]:                                90.000000
 CELL_TOP| Angle (a,b), gamma [degree]:                               119.999970
 CELL_TOP| Numerically orthorhombic:                                          NO
 
 GENERATE|  Preliminary Number of Bonds generated:                             0
 GENERATE|  Achieved consistency in connectivity generation.

 CELL| Volume [angstrom^3]:                                         17614.982639
 CELL| Vector a [angstrom]:      16.869     0.000     0.000   |a| =    16.869000
 CELL| Vector b [angstrom]:      -8.434    14.609     0.000   |b| =    16.869015
 CELL| Vector c [angstrom]:       0.000     0.000    71.478   |c| =    71.478000
 CELL| Angle (b,c), alpha [degree]:                                    90.000000
 CELL| Angle (a,c), beta  [degree]:                                    90.000000
 CELL| Angle (a,b), gamma [degree]:                                   119.999970
 CELL| Numerically orthorhombic:                                              NO

 CELL_REF| Volume [angstrom^3]:                                     17614.982639
 CELL_REF| Vector a [angstrom    16.869     0.000     0.000   |a| =    16.869000
 CELL_REF| Vector b [angstrom    -8.434    14.609     0.000   |b| =    16.869015
 CELL_REF| Vector c [angstrom     0.000     0.000    71.478   |c| =    71.478000
 CELL_REF| Angle (b,c), alpha [degree]:                                90.000000
 CELL_REF| Angle (a,c), beta  [degree]:                                90.000000
 CELL_REF| Angle (a,b), gamma [degree]:                               119.999970
 CELL_REF| Numerically orthorhombic:                                          NO

 *******************************************************************************
 *******************************************************************************
 **                                                                           **
 **     #####                         ##              ##                      **
 **    ##   ##            ##          ##              ##                      **
 **   ##     ##                       ##            ######                    **
 **   ##     ##  ##   ##  ##   #####  ##  ##   ####   ##    #####    #####    **
 **   ##     ##  ##   ##  ##  ##      ## ##   ##      ##   ##   ##  ##   ##   **
 **   ##  ## ##  ##   ##  ##  ##      ####     ###    ##   ######   ######    **
 **    ##  ###   ##   ##  ##  ##      ## ##      ##   ##   ##       ##        **
 **     #######   #####   ##   #####  ##  ##  ####    ##    #####   ##        **
 **           ##                                                    ##        **
 **                                                                           **
 **                                                ... make the atoms dance   **
 **                                                                           **
 **            Copyright (C) by CP2K developers group (2000-2022)             **
 **                      J. Chem. Phys. 152, 194103 (2020)                    **
 **                                                                           **
 *******************************************************************************

 DFT| Spin restricted Kohn-Sham (RKS) calculation                            RKS
 DFT| Multiplicity                                                             1
 DFT| Number of spin states                                                    1
 DFT| Charge                                                                   0
 DFT| Self-interaction correction (SIC)                                       NO
 DFT| Cutoffs: density                                              1.000000E-10
 DFT|          gradient                                             1.000000E-10
 DFT|          tau                                                  1.000000E-10
 DFT|          cutoff_smoothing_range                               0.000000E+00
 DFT| XC density smoothing                                                  NONE
 DFT| XC derivatives                                                          PW

 FUNCTIONAL| PBE:
 FUNCTIONAL| J.P.Perdew, K.Burke, M.Ernzerhof, Phys. Rev. Letter, vol. 77, n 18,
 FUNCTIONAL|  pp. 3865-3868, (1996){spin unpolarized}                           

 vdW POTENTIAL|                                                   Pair Potential
 vdW POTENTIAL|          DFT-D3 (Version 3.1)
 vdW POTENTIAL|          Potential Form: S. Grimme et al, JCP 132: 154104 (2010)
 vdW POTENTIAL|          Zero Damping
 vdW POTENTIAL|          Cutoff Radius [Bohr]:                             20.00
 vdW POTENTIAL|          s6 Scaling Factor:                               1.0000
 vdW POTENTIAL|          sr6 Scaling Factor:                              1.2170
 vdW POTENTIAL|          s8 Scaling Factor:                               0.7220
 vdW POTENTIAL|          Cutoff for CN calculation:                   0.1000E-05

 QS| Method:                                                                 GPW
 QS| Density plane wave grid type                        NON-SPHERICAL FULLSPACE
 QS| Number of grid levels:                                                    4
 QS| Density cutoff [a.u.]:                                                200.0
 QS| Multi grid cutoff [a.u.]: 1) grid level                               200.0
 QS|                           2) grid level                                66.7
 QS|                           3) grid level                                22.2
 QS|                           4) grid level                                 7.4
 QS| Grid level progression factor:                                          3.0
 QS| Relative density cutoff [a.u.]:                                        20.0
 QS| Interaction thresholds: eps_pgf_orb:                                3.2E-07
 QS|                         eps_filter_matrix:                          0.0E+00
 QS|                         eps_core_charge:                            1.0E-15
 QS|                         eps_rho_gspace:                             1.0E-13
 QS|                         eps_rho_rspace:                             1.0E-13
 QS|                         eps_gvg_rspace:                             3.2E-07
 QS|                         eps_ppl:                                    1.0E-02
 QS|                         eps_ppnl:                                   3.2E-09


 ATOMIC KIND INFORMATION

  1. Atomic kind: O                                     Number of atoms:      97

     Orbital Basis Set                                        DZVP-MOLOPT-SR-GTH

       Number of orbital shell sets:                                           1
       Number of orbital shells:                                               5
       Number of primitive Cartesian functions:                                5
       Number of Cartesian basis functions:                                   14
       Number of spherical basis functions:                                   13
       Norm type:                                                              2

       Normalised Cartesian orbitals:

                        Set   Shell   Orbital            Exponent    Coefficient

                          1       1    2s               10.389228       0.396646
                                                         3.849621       0.208811
                                                         1.388401      -0.301641
                                                         0.496955      -0.274061
                                                         0.162492      -0.033677

                          1       2    3s               10.389228       0.303673
                                                         3.849621       0.240943
                                                         1.388401      -0.313066
                                                         0.496955      -0.043055
                                                         0.162492       0.213991

                          1       3    3px              10.389228      -1.530415
                                                         3.849621      -1.371928
                                                         1.388401      -0.761951
                                                         0.496955      -0.253695
                                                         0.162492      -0.035541
                          1       3    3py              10.389228      -1.530415
                                                         3.849621      -1.371928
                                                         1.388401      -0.761951
                                                         0.496955      -0.253695
                                                         0.162492      -0.035541
                          1       3    3pz              10.389228      -1.530415
                                                         3.849621      -1.371928
                                                         1.388401      -0.761951
                                                         0.496955      -0.253695
                                                         0.162492      -0.035541

                          1       4    4px              10.389228      -0.565392
                                                         3.849621      -0.038231
                                                         1.388401      -0.382373
                                                         0.496955       0.179070
                                                         0.162492       0.122714
                          1       4    4py              10.389228      -0.565392
                                                         3.849621      -0.038231
                                                         1.388401      -0.382373
                                                         0.496955       0.179070
                                                         0.162492       0.122714
                          1       4    4pz              10.389228      -0.565392
                                                         3.849621      -0.038231
                                                         1.388401      -0.382373
                                                         0.496955       0.179070
                                                         0.162492       0.122714

                          1       5    4dx2             10.389228       1.867377
                                                         3.849621       0.670994
                                                         1.388401       1.353441
                                                         0.496955       0.273538
                                                         0.162492       0.006620
                          1       5    4dxy             10.389228       3.234392
                                                         3.849621       1.162195
                                                         1.388401       2.344229
                                                         0.496955       0.473781
                                                         0.162492       0.011466
                          1       5    4dxz             10.389228       3.234392
                                                         3.849621       1.162195
                                                         1.388401       2.344229
                                                         0.496955       0.473781
                                                         0.162492       0.011466
                          1       5    4dy2             10.389228       1.867377
                                                         3.849621       0.670994
                                                         1.388401       1.353441
                                                         0.496955       0.273538
                                                         0.162492       0.006620
                          1       5    4dyz             10.389228       3.234392
                                                         3.849621       1.162195
                                                         1.388401       2.344229
                                                         0.496955       0.473781
                                                         0.162492       0.011466
                          1       5    4dz2             10.389228       1.867377
                                                         3.849621       0.670994
                                                         1.388401       1.353441
                                                         0.496955       0.273538
                                                         0.162492       0.006620

       Atomic covalent radius [Angstrom]:                                  0.730

       Atomic van der Waals radius [Angstrom]:                             1.520

     GTH Potential information for                                    GTH-PBE-q6

       Description:                       Goedecker-Teter-Hutter pseudopotential
                                           Goedecker et al., PRB 54, 1703 (1996)
                                          Hartwigsen et al., PRB 58, 3641 (1998)
                                                      Krack, TCA 114, 145 (2005)

       Gaussian exponent of the core charge distribution:               8.360253
       Electronic configuration (s p d ...):                               2   4

       Parameters of the local part of the GTH pseudopotential:

                          rloc        C1          C2          C3          C4
                        0.244554  -16.667215    2.487311

       Parameters of the non-local part of the GTH pseudopotential:

                   l      r(l)      h(i,j,l)

                   0    0.220956   18.337458
                   1    0.211332

  2. Atomic kind: H                                     Number of atoms:     194

     Orbital Basis Set                                        DZVP-MOLOPT-SR-GTH

       Number of orbital shell sets:                                           1
       Number of orbital shells:                                               3
       Number of primitive Cartesian functions:                                5
       Number of Cartesian basis functions:                                    5
       Number of spherical basis functions:                                    5
       Norm type:                                                              2

       Normalised Cartesian orbitals:

                        Set   Shell   Orbital            Exponent    Coefficient

                          1       1    2s               10.068468      -0.133023
                                                         2.680223      -0.177618
                                                         0.791502      -0.258419
                                                         0.239116      -0.107525
                                                         0.082193      -0.014019

                          1       2    3s               10.068468       0.344673
                                                         2.680223       1.819821
                                                         0.791502      -0.999069
                                                         0.239116       0.017430
                                                         0.082193       0.082660

                          1       3    3px              10.068468       0.155326
                                                         2.680223       0.367157
                                                         0.791502       0.311480
                                                         0.239116       0.080105
                                                         0.082193       0.033440
                          1       3    3py              10.068468       0.155326
                                                         2.680223       0.367157
                                                         0.791502       0.311480
                                                         0.239116       0.080105
                                                         0.082193       0.033440
                          1       3    3pz              10.068468       0.155326
                                                         2.680223       0.367157
                                                         0.791502       0.311480
                                                         0.239116       0.080105
                                                         0.082193       0.033440

       Atomic covalent radius [Angstrom]:                                  0.320

       Atomic van der Waals radius [Angstrom]:                             1.090

     GTH Potential information for                                    GTH-PBE-q1

       Description:                       Goedecker-Teter-Hutter pseudopotential
                                           Goedecker et al., PRB 54, 1703 (1996)
                                          Hartwigsen et al., PRB 58, 3641 (1998)
                                                      Krack, TCA 114, 145 (2005)

       Gaussian exponent of the core charge distribution:              12.500000
       Electronic configuration (s p d ...):                                   1

       Parameters of the local part of the GTH pseudopotential:

                          rloc        C1          C2          C3          C4
                        0.200000   -4.178900    0.724463

  3. Atomic kind: Pt                                    Number of atoms:     216

     Orbital Basis Set                      DZVP-A5-Q10-323-MOL-T1-DERIVED_SET-1

       Number of orbital shell sets:                                           1
       Number of orbital shells:                                               6
       Number of primitive Cartesian functions:                                5
       Number of Cartesian basis functions:                                   23
       Number of spherical basis functions:                                   20
       Norm type:                                                              2

       Normalised Cartesian orbitals:

                        Set   Shell   Orbital            Exponent    Coefficient

                          1       1    2s                2.521825       0.177473
                                                         1.453920      -0.063399
                                                         0.614053      -0.407089
                                                         0.232656       0.262254
                                                         0.074788       0.047371

                          1       2    3s                2.521825      -0.049056
                                                         1.453920       0.044904
                                                         0.614053      -0.009756
                                                         0.232656      -0.144709
                                                         0.074788       0.144085

                          1       3    3px               2.521825      -0.317572
                                                         1.453920       0.534826
                                                         0.614053      -0.489458
                                                         0.232656       0.245631
                                                         0.074788       0.018221
                          1       3    3py               2.521825      -0.317572
                                                         1.453920       0.534826
                                                         0.614053      -0.489458
                                                         0.232656       0.245631
                                                         0.074788       0.018221
                          1       3    3pz               2.521825      -0.317572
                                                         1.453920       0.534826
                                                         0.614053      -0.489458
                                                         0.232656       0.245631
                                                         0.074788       0.018221

                          1       4    4dx2              2.521825       3.008522
                                                         1.453920      -1.224251
                                                         0.614053       0.225691
                                                         0.232656       0.125144
                                                         0.074788      -0.015348
                          1       4    4dxy              2.521825       5.210912
                                                         1.453920      -2.120465
                                                         0.614053       0.390909
                                                         0.232656       0.216756
                                                         0.074788      -0.026584
                          1       4    4dxz              2.521825       5.210912
                                                         1.453920      -2.120465
                                                         0.614053       0.390909
                                                         0.232656       0.216756
                                                         0.074788      -0.026584
                          1       4    4dy2              2.521825       3.008522
                                                         1.453920      -1.224251
                                                         0.614053       0.225691
                                                         0.232656       0.125144
                                                         0.074788      -0.015348
                          1       4    4dyz              2.521825       5.210912
                                                         1.453920      -2.120465
                                                         0.614053       0.390909
                                                         0.232656       0.216756
                                                         0.074788      -0.026584
                          1       4    4dz2              2.521825       3.008522
                                                         1.453920      -1.224251
                                                         0.614053       0.225691
                                                         0.232656       0.125144
                                                         0.074788      -0.015348

                          1       5    5dx2              2.521825       0.698026
                                                         1.453920      -1.511486
                                                         0.614053      -0.335394
                                                         0.232656      -0.025564
                                                         0.074788      -0.002699
                          1       5    5dxy              2.521825       1.209017
                                                         1.453920      -2.617970
                                                         0.614053      -0.580920
                                                         0.232656      -0.044277
                                                         0.074788      -0.004674
                          1       5    5dxz              2.521825       1.209017
                                                         1.453920      -2.617970
                                                         0.614053      -0.580920
                                                         0.232656      -0.044277
                                                         0.074788      -0.004674
                          1       5    5dy2              2.521825       0.698026
                                                         1.453920      -1.511486
                                                         0.614053      -0.335394
                                                         0.232656      -0.025564
                                                         0.074788      -0.002699
                          1       5    5dyz              2.521825       1.209017
                                                         1.453920      -2.617970
                                                         0.614053      -0.580920
                                                         0.232656      -0.044277
                                                         0.074788      -0.004674
                          1       5    5dz2              2.521825       0.698026
                                                         1.453920      -1.511486
                                                         0.614053      -0.335394
                                                         0.232656      -0.025564
                                                         0.074788      -0.002699

                          1       6    6dx2              2.521825       0.831079
                                                         1.453920      -0.709226
                                                         0.614053      -0.137351
                                                         0.232656       0.068642
                                                         0.074788       0.011745
                          1       6    6dxy              2.521825       1.439472
                                                         1.453920      -1.228415
                                                         0.614053      -0.237899
                                                         0.232656       0.118891
                                                         0.074788       0.020343
                          1       6    6dxz              2.521825       1.439472
                                                         1.453920      -1.228415
                                                         0.614053      -0.237899
                                                         0.232656       0.118891
                                                         0.074788       0.020343
                          1       6    6dy2              2.521825       0.831079
                                                         1.453920      -0.709226
                                                         0.614053      -0.137351
                                                         0.232656       0.068642
                                                         0.074788       0.011745
                          1       6    6dyz              2.521825       1.439472
                                                         1.453920      -1.228415
                                                         0.614053      -0.237899
                                                         0.232656       0.118891
                                                         0.074788       0.020343
                          1       6    6dz2              2.521825       0.831079
                                                         1.453920      -0.709226
                                                         0.614053      -0.137351
                                                         0.232656       0.068642
                                                         0.074788       0.011745

       Atomic covalent radius [Angstrom]:                                  1.300

       Atomic van der Waals radius [Angstrom]:                             1.750

     GTH Potential information for                                   GTH-PBE-q10

       Description:                       Goedecker-Teter-Hutter pseudopotential
                                           Goedecker et al., PRB 54, 1703 (1996)
                                          Hartwigsen et al., PRB 58, 3641 (1998)
                                                      Krack, TCA 114, 145 (2005)

       Gaussian exponent of the core charge distribution:               1.317676
       Electronic configuration (s p d ...):                           1   0   9

       Parameters of the local part of the GTH pseudopotential:

                          rloc        C1          C2          C3          C4
                        0.616000   11.313635

       Parameters of the non-local part of the GTH pseudopotential:

                   l      r(l)      h(i,j,l)

                   0    0.550904    4.733491   -1.784594
                                   -1.784594    2.303901
                   1    0.674138    2.534798   -1.778066
                                   -1.778066    2.103836
                   2    0.457392   -7.264011    2.558665
                                    2.558665   -2.901253


 MOLECULE KIND INFORMATION


 All atoms are their own molecule, skipping detailed information


 TOTAL NUMBERS AND MAXIMUM NUMBERS

  Total number of            - Atomic kinds:                                   3
                             - Atoms:                                        507
                             - Shell sets:                                   507
                             - Shells:                                      2363
                             - Primitive Cartesian functions:               2535
                             - Cartesian basis functions:                   7296
                             - Spherical basis functions:                   6551

  Maximum angular momentum of- Orbital basis functions:                        2
                             - Local part of the GTH pseudopotential:          2
                             - Non-local part of the GTH pseudopotential:      4


 MODULE QUICKSTEP:  ATOMIC COORDINATES IN angstrom

 Atom  Kind  Element       X           Y           Z          Z(eff)       Mass
    1   1 O    8       5.790000   -8.600000   32.697997       6.0000     15.9994
    2   2 H    1       6.460000   -7.930000   33.027997       1.0000      1.0079
    3   2 H    1       5.420001   -9.000000   33.568000       1.0000      1.0079
    4   1 O    8      -5.440001  -13.010001   38.988000       6.0000     15.9994
    5   2 H    1      -5.460000  -13.720001   38.307998       1.0000      1.0079
    6   2 H    1      -4.480000  -12.680000   38.897998       1.0000      1.0079
    7   1 O    8      10.559999   19.220001   31.357999       6.0000     15.9994
    8   2 H    1       9.730001   18.980001   30.827998       1.0000      1.0079
    9   2 H    1      10.930000   20.110001   30.847999       1.0000      1.0079
   10   1 O    8       1.250000    3.370000   37.898000       6.0000     15.9994
   11   2 H    1       1.740000    2.810000   38.558000       1.0000      1.0079
   12   2 H    1       1.890000    3.310000   37.157998       1.0000      1.0079
   13   1 O    8      -2.070000  -18.590000   37.617999       6.0000     15.9994
   14   2 H    1      -1.090000  -18.730001   37.627998       1.0000      1.0079
   15   2 H    1      -2.430000  -19.450001   37.987998       1.0000      1.0079
   16   1 O    8      16.510000   -3.720000   30.497997       6.0000     15.9994
   17   2 H    1      15.530001   -3.780000   30.687999       1.0000      1.0079
   18   2 H    1      16.840002   -4.650001   30.257999       1.0000      1.0079
   19   1 O    8      -6.890000    0.470000   34.567998       6.0000     15.9994
   20   2 H    1      -6.400001    1.080000   33.927999       1.0000      1.0079
   21   2 H    1      -7.260000    1.070000   35.277999       1.0000      1.0079
   22   1 O    8      -5.580000   -5.560000   33.357997       6.0000     15.9994
   23   2 H    1      -5.910000   -5.350000   34.287999       1.0000      1.0079
   24   2 H    1      -6.340000   -5.290000   32.797998       1.0000      1.0079
   25   1 O    8      10.030001    4.070000   33.007999       6.0000     15.9994
   26   2 H    1      10.340000    4.150000   32.057998       1.0000      1.0079
   27   2 H    1       9.100000    3.620000   32.867999       1.0000      1.0079
   28   1 O    8     -15.320001   26.049999   32.458000       6.0000     15.9994
   29   2 H    1     -14.880000   26.920002   32.467998       1.0000      1.0079
   30   2 H    1       1.050000   26.080000   31.617999       1.0000      1.0079
   31   1 O    8      -4.200000   14.850000   30.617999       6.0000     15.9994
   32   2 H    1      -4.580000   15.770000   30.568000       1.0000      1.0079
   33   2 H    1      -3.270000   14.930000   30.377998       1.0000      1.0079
   34   1 O    8      -3.570000    6.850000   30.318000       6.0000     15.9994
   35   2 H    1      -3.430000    6.420000   31.208000       1.0000      1.0079
   36   2 H    1      -2.870000    6.460000   29.777999       1.0000      1.0079
   37   1 O    8       6.640000    5.560000   34.407998       6.0000     15.9994
   38   2 H    1       7.030000    4.680000   34.187999       1.0000      1.0079
   39   2 H    1       7.490000    6.070001   34.517999       1.0000      1.0079
   40   1 O    8      -3.450000   -3.980000   30.677999       6.0000     15.9994
   41   2 H    1      -3.410000   -4.820000   31.277999       1.0000      1.0079
   42   2 H    1      -4.330000   -4.090000   30.357997       1.0000      1.0079
   43   1 O    8     -16.310001   16.790001   36.437999       6.0000     15.9994
   44   2 H    1     -17.210001   17.210001   36.257999       1.0000      1.0079
   45   2 H    1     -16.530001   16.130001   37.137998       1.0000      1.0079
   46   1 O    8       2.630000   -0.730000   32.487998       6.0000     15.9994
   47   2 H    1       2.700000   -0.310000   33.337999       1.0000      1.0079
   48   2 H    1       3.480000   -0.730000   31.937999       1.0000      1.0079
   49   1 O    8     -16.340000    9.610001   38.007999       6.0000     15.9994
   50   2 H    1     -15.910001    9.290000   38.888000       1.0000      1.0079
   51   2 H    1     -15.670000    9.980000   37.338001       1.0000      1.0079
   52   1 O    8       2.290000   10.150002   35.847999       6.0000     15.9994
   53   2 H    1       2.340000   11.080000   35.357997       1.0000      1.0079
   54   2 H    1       3.180000   10.110001   36.277999       1.0000      1.0079
   55   1 O    8       5.990000   -4.620000   30.257999       6.0000     15.9994
   56   2 H    1       5.930000   -4.380000   29.307998       1.0000      1.0079
   57   2 H    1       5.240001   -5.210000   30.357997       1.0000      1.0079
   58   1 O    8      -5.020000   -1.870000   37.727998       6.0000     15.9994
   59   2 H    1      -4.450000   -2.120000   38.537999       1.0000      1.0079
   60   2 H    1      -4.680000   -0.990000   37.327998       1.0000      1.0079
   61   1 O    8      25.270002   -7.030000   36.247999       6.0000     15.9994
   62   2 H    1      24.990002   -6.730001   35.308000       1.0000      1.0079
   63   2 H    1      25.330002   -6.210001   36.818000       1.0000      1.0079
   64   1 O    8     -28.440001    8.730000   32.497999       6.0000     15.9994
   65   2 H    1     -12.520000    8.690001   32.867999       1.0000      1.0079
   66   2 H    1     -11.270000    7.850000   32.148000       1.0000      1.0079
   67   1 O    8       1.390000   18.950001   37.597999       6.0000     15.9994
   68   2 H    1       0.630000   19.540001   37.838001       1.0000      1.0079
   69   2 H    1       1.060000   18.140001   37.127998       1.0000      1.0079
   70   1 O    8       4.860000   12.600001   33.068000       6.0000     15.9994
   71   2 H    1       4.030000   12.350000   33.607999       1.0000      1.0079
   72   2 H    1       4.860000   11.720000   32.557998       1.0000      1.0079
   73   1 O    8      13.430000    1.670000   34.557998       6.0000     15.9994
   74   2 H    1      14.160000    1.090000   34.218000       1.0000      1.0079
   75   2 H    1      12.730000    1.660000   33.847999       1.0000      1.0079
   76   1 O    8       8.570001    8.400001   30.007999       6.0000     15.9994
   77   2 H    1       9.110001    7.920001   29.347999       1.0000      1.0079
   78   2 H    1       8.960000    8.040000   30.867999       1.0000      1.0079
   79   1 O    8      -2.580000   14.130001   37.687999       6.0000     15.9994
   80   2 H    1      -1.920000   13.640001   37.017999       1.0000      1.0079
   81   2 H    1      -2.580000   15.050001   37.338001       1.0000      1.0079
   82   1 O    8     -17.500002   12.730000   36.147998       6.0000     15.9994
   83   2 H    1     -16.830002   12.850000   36.867999       1.0000      1.0079
   84   2 H    1     -17.130001   12.630000   35.317998       1.0000      1.0079
   85   1 O    8      10.570001   -2.340000   34.107997       6.0000     15.9994
   86   2 H    1      10.540000   -1.310000   34.218000       1.0000      1.0079
   87   2 H    1       9.930000   -2.580000   33.357997       1.0000      1.0079
   88   1 O    8     -13.050001    2.770000   30.077998       6.0000     15.9994
   89   2 H    1     -13.350000    3.110000   29.158000       1.0000      1.0079
   90   2 H    1     -13.720001    3.300000   30.517997       1.0000      1.0079
   91   1 O    8     -11.200000   10.690001   39.417999       6.0000     15.9994
   92   2 H    1       6.180000   11.460000   39.757999       1.0000      1.0079
   93   2 H    1     -11.910001   10.490000   40.097999       1.0000      1.0079
   94   1 O    8       5.830000    8.370000   29.107997       6.0000     15.9994
   95   2 H    1       6.740000    8.410000   29.388000       1.0000      1.0079
   96   2 H    1       5.490000    9.310000   29.267997       1.0000      1.0079
   97   1 O    8     -12.940001    7.430000   38.147998       6.0000     15.9994
   98   2 H    1     -12.830001    8.240001   37.668001       1.0000      1.0079
   99   2 H    1     -12.470001    6.710000   37.638000       1.0000      1.0079
  100   1 O    8       3.220000   -4.430000   30.708000       6.0000     15.9994
  101   2 H    1      -5.660000   10.380001   31.577998       1.0000      1.0079
  102   2 H    1       3.310000   -3.590000   30.277999       1.0000      1.0079
  103   1 O    8       2.470000   -3.760000   38.818000       6.0000     15.9994
  104   2 H    1       2.120000   -3.160000   39.508001       1.0000      1.0079
  105   2 H    1       3.290000   -4.030000   39.307998       1.0000      1.0079
  106   1 O    8      16.260000   14.660001   33.017999       6.0000     15.9994
  107   2 H    1      17.030001   14.750000   33.658000       1.0000      1.0079
  108   2 H    1      15.410002   14.660001   33.587997       1.0000      1.0079
  109   1 O    8       6.820001   -9.090000   36.937999       6.0000     15.9994
  110   2 H    1       7.490000   -8.400001   36.677997       1.0000      1.0079
  111   2 H    1       6.420000   -9.470000   36.128000       1.0000      1.0079
  112   1 O    8      -2.800000    7.980001   38.187999       6.0000     15.9994
  113   2 H    1      -3.800000    7.990000   38.068000       1.0000      1.0079
  114   2 H    1      -2.540000    7.110000   37.838001       1.0000      1.0079
  115   1 O    8     -12.130001    9.740001   36.757999       6.0000     15.9994
  116   2 H    1     -11.520000   10.020000   37.478000       1.0000      1.0079
  117   2 H    1     -11.440001    9.630001   36.058000       1.0000      1.0079
  118   1 O    8      27.550001   -5.710001   29.737998       6.0000     15.9994
  119   2 H    1      27.150002   -5.590000   28.787998       1.0000      1.0079
  120   2 H    1      27.970001   -6.620001   29.767997       1.0000      1.0079
  121   1 O    8       9.400001   -1.910000   38.517997       6.0000     15.9994
  122   2 H    1       0.720000   12.340001   39.407998       1.0000      1.0079
  123   2 H    1      10.420000   -1.790000   38.468000       1.0000      1.0079
  124   1 O    8      -1.980000    4.440001   39.548000       6.0000     15.9994
  125   2 H    1      -1.260000    4.850000   40.107999       1.0000      1.0079
  126   2 H    1      -1.830000    4.840000   38.597999       1.0000      1.0079
  127   1 O    8       6.810000    9.310000   34.587999       6.0000     15.9994
  128   2 H    1       6.340000    9.440001   33.728000       1.0000      1.0079
  129   2 H    1       7.440000   10.130000   34.697997       1.0000      1.0079
  130   1 O    8       5.380001   19.070000   34.837997       6.0000     15.9994
  131   2 H    1       4.450000   19.240002   35.037999       1.0000      1.0079
  132   2 H    1       5.570001   18.100000   34.718000       1.0000      1.0079
  133   1 O    8      -1.160000   -1.700000   39.767997       6.0000     15.9994
  134   2 H    1      -1.300000   -1.140000   38.967998       1.0000      1.0079
  135   2 H    1      -1.090000   -1.170000   40.577998       1.0000      1.0079
  136   1 O    8       9.260000   15.680000   31.517997       6.0000     15.9994
  137   2 H    1       8.650001   15.030001   31.247999       1.0000      1.0079
  138   2 H    1       9.990001   15.090000   31.747997       1.0000      1.0079
  139   1 O    8      16.010000    8.190001   33.447997       6.0000     15.9994
  140   2 H    1      16.460001    8.050001   32.497999       1.0000      1.0079
  141   2 H    1      15.420000    8.960000   33.267999       1.0000      1.0079
  142   1 O    8     -10.170001   14.550000   33.357997       6.0000     15.9994
  143   2 H    1     -10.440001   13.700001   33.708000       1.0000      1.0079
  144   2 H    1      -9.320001   14.740001   33.798000       1.0000      1.0079
  145   1 O    8      -6.470000    4.610000   30.127998       6.0000     15.9994
  146   2 H    1      -6.320000    3.820000   29.548000       1.0000      1.0079
  147   2 H    1      -5.860000    5.310000   29.748000       1.0000      1.0079
  148   1 O    8       2.880000   19.880001   35.397998       6.0000     15.9994
  149   2 H    1      10.890001    4.930000   36.247999       1.0000      1.0079
  150   2 H    1     -14.550000   19.560001   34.687999       1.0000      1.0079
  151   1 O    8       6.290000   -3.920000   32.978000       6.0000     15.9994
  152   2 H    1       5.890000   -3.500000   33.798000       1.0000      1.0079
  153   2 H    1       5.600000   -3.850000   32.287999       1.0000      1.0079
  154   1 O    8      18.100000    5.940001   38.947997       6.0000     15.9994
  155   2 H    1      18.770000    6.520000   38.468000       1.0000      1.0079
  156   2 H    1      18.090002    5.050000   38.407998       1.0000      1.0079
  157   1 O    8      11.700001    1.710000   38.827998       6.0000     15.9994
  158   2 H    1      12.350000    1.620000   39.608001       1.0000      1.0079
  159   2 H    1      11.410000    2.640000   38.918001       1.0000      1.0079
  160   1 O    8      -3.290000   11.670000   35.367999       6.0000     15.9994
  161   2 H    1      -4.080000   11.160001   35.548000       1.0000      1.0079
  162   2 H    1      -2.610000   11.420001   36.068000       1.0000      1.0079
  163   1 O    8     -14.010000   -6.510000   29.177997       6.0000     15.9994
  164   2 H    1     -13.140000   -7.050000   29.487998       1.0000      1.0079
  165   2 H    1     -13.780001   -5.620000   29.477996       1.0000      1.0079
  166   1 O    8      -0.740000   20.380001   37.677999       6.0000     15.9994
  167   2 H    1      -0.660000   21.080000   36.997999       1.0000      1.0079
  168   2 H    1      -1.180000   20.780001   38.498000       1.0000      1.0079
  169   1 O    8       7.850000   -8.480000   29.307998       6.0000     15.9994
  170   2 H    1       7.930000   -7.620000   29.767997       1.0000      1.0079
  171   2 H    1       8.590000   -9.120001   29.417999       1.0000      1.0079
  172   1 O    8       8.720000   17.850000   29.987998       6.0000     15.9994
  173   2 H    1      17.480000    2.320000   30.287998       1.0000      1.0079
  174   2 H    1       7.790000   18.050001   30.248000       1.0000      1.0079
  175   1 O    8      -0.860000    1.810000   39.318000       6.0000     15.9994
  176   2 H    1      -1.460000    2.590000   39.337999       1.0000      1.0079
  177   2 H    1      -0.070000    2.210000   38.767999       1.0000      1.0079
  178   1 O    8      -0.160000    8.280001   30.687999       6.0000     15.9994
  179   2 H    1      -0.870000    8.950001   30.417999       1.0000      1.0079
  180   2 H    1       0.760000    8.490001   30.437999       1.0000      1.0079
  181   1 O    8       2.710000   -1.630000   29.318000       6.0000     15.9994
  182   2 H    1       1.740000   -1.540000   29.428001       1.0000      1.0079
  183   2 H    1       3.180000   -0.770000   29.568000       1.0000      1.0079
  184   1 O    8       2.440000   16.400002   30.208000       6.0000     15.9994
  185   2 H    1       3.330000   16.200001   29.798000       1.0000      1.0079
  186   2 H    1      10.310000    0.940000   30.417999       1.0000      1.0079
  187   1 O    8       7.000000   14.530001   30.708000       6.0000     15.9994
  188   2 H    1       6.490001   15.250001   30.237998       1.0000      1.0079
  189   2 H    1       6.710000   14.670001   31.707998       1.0000      1.0079
  190   1 O    8      -7.590001    0.810000   38.807998       6.0000     15.9994
  191   2 H    1      -6.570000    0.880000   38.877998       1.0000      1.0079
  192   2 H    1      -7.660000   -0.160000   38.807998       1.0000      1.0079
  193   1 O    8      10.840001    7.900000   34.587999       6.0000     15.9994
  194   2 H    1      11.200000    8.700001   35.087999       1.0000      1.0079
  195   2 H    1      11.150000    7.160000   35.157998       1.0000      1.0079
  196   1 O    8       5.770000    6.170001   31.728000       6.0000     15.9994
  197   2 H    1       6.030001    5.880000   32.647998       1.0000      1.0079
  198   2 H    1       6.570000    6.130000   31.147998       1.0000      1.0079
  199   1 O    8      -7.960001  -18.020000   34.847999       6.0000     15.9994
  200   2 H    1      -7.650001  -18.070000   33.888000       1.0000      1.0079
  201   2 H    1      -8.310000  -17.070002   34.958000       1.0000      1.0079
  202   1 O    8     -14.140000    2.900000   35.557998       6.0000     15.9994
  203   2 H    1     -14.790001    3.340000   34.937997       1.0000      1.0079
  204   2 H    1     -13.420000    3.600000   35.498000       1.0000      1.0079
  205   1 O    8       2.140000    6.820001   34.937997       6.0000     15.9994
  206   2 H    1       1.500000    7.280001   35.487998       1.0000      1.0079
  207   2 H    1       2.380000    7.470000   34.318000       1.0000      1.0079
  208   1 O    8      11.550001   13.690001   37.367997       6.0000     15.9994
  209   2 H    1      11.270000   12.860001   37.768001       1.0000      1.0079
  210   2 H    1      12.550001   13.720001   37.507999       1.0000      1.0079
  211   1 O    8      15.260000   29.180002   37.808000       6.0000     15.9994
  212   2 H    1      14.310001   29.330002   37.597999       1.0000      1.0079
  213   2 H    1      15.580001   29.940002   38.367999       1.0000      1.0079
  214   1 O    8       0.920000   10.820000   32.367997       6.0000     15.9994
  215   2 H    1      -8.390000   25.030001   32.408000       1.0000      1.0079
  216   2 H    1       1.070000   11.170001   31.458000       1.0000      1.0079
  217   1 O    8      -0.270000   -0.940000   35.577998       6.0000     15.9994
  218   2 H    1       0.580000   -0.480000   35.617999       1.0000      1.0079
  219   2 H    1      -0.740000   -0.590000   36.407998       1.0000      1.0079
  220   1 O    8      11.510000    1.780000   32.697997       6.0000     15.9994
  221   2 H    1      10.990001    2.590000   32.847999       1.0000      1.0079
  222   2 H    1      11.330000    1.580000   31.757999       1.0000      1.0079
  223   1 O    8      -9.110001    5.110001   29.867999       6.0000     15.9994
  224   2 H    1      -9.200000    5.240001   28.858001       1.0000      1.0079
  225   2 H    1      -8.140000    4.900000   30.017997       1.0000      1.0079
  226   1 O    8      -0.810000  -11.860001   32.757999       6.0000     15.9994
  227   2 H    1      -0.890000  -12.840000   32.947999       1.0000      1.0079
  228   2 H    1      -1.080000  -11.750001   31.807998       1.0000      1.0079
  229   1 O    8       3.690000    6.600000   30.297996       6.0000     15.9994
  230   2 H    1       4.420000    6.190000   30.867999       1.0000      1.0079
  231   2 H    1       3.710000    6.170001   29.367999       1.0000      1.0079
  232   1 O    8     -11.350001   -0.440000   34.357999       6.0000     15.9994
  233   2 H    1     -11.270000   -1.410000   34.557998       1.0000      1.0079
  234   2 H    1     -12.230001   -0.140000   34.607997       1.0000      1.0079
  235   1 O    8      23.540001    3.360000   36.307998       6.0000     15.9994
  236   2 H    1      22.880001    3.120000   37.097999       1.0000      1.0079
  237   2 H    1      23.800001    4.260000   36.588001       1.0000      1.0079
  238   1 O    8     -10.390000    2.950000   30.137996       6.0000     15.9994
  239   2 H    1     -10.140000    3.890000   29.867999       1.0000      1.0079
  240   2 H    1     -11.430000    2.900000   30.208000       1.0000      1.0079
  241   1 O    8      18.020000    4.520000   33.907998       6.0000     15.9994
  242   2 H    1      18.410000    4.680000   33.017999       1.0000      1.0079
  243   2 H    1      18.110001    5.410000   34.337999       1.0000      1.0079
  244   1 O    8       4.450000  -14.130001   36.857999       6.0000     15.9994
  245   2 H    1       4.080000  -13.390001   37.447999       1.0000      1.0079
  246   2 H    1       4.610000  -13.680000   35.898000       1.0000      1.0079
  247   1 O    8       4.340000    5.220000   36.158000       6.0000     15.9994
  248   2 H    1       3.610000    5.800000   35.708000       1.0000      1.0079
  249   2 H    1       5.070000    5.230000   35.548000       1.0000      1.0079
  250   1 O    8      -0.460000    2.270000   33.507999       6.0000     15.9994
  251   2 H    1       0.170000    2.070000   32.787998       1.0000      1.0079
  252   2 H    1      -0.090000    3.140000   33.827998       1.0000      1.0079
  253   1 O    8      -1.540000   15.270000   29.027999       6.0000     15.9994
  254   2 H    1      -0.650000   15.000001   29.487998       1.0000      1.0079
  255   2 H    1      -1.670000   16.300001   29.257999       1.0000      1.0079
  256   1 O    8       5.440001    2.830000   38.667999       6.0000     15.9994
  257   2 H    1      -2.180000   17.050001   39.177997       1.0000      1.0079
  258   2 H    1       5.320000    3.710000   39.037998       1.0000      1.0079
  259   1 O    8       8.550000   12.970000   29.187999       6.0000     15.9994
  260   2 H    1       8.250000   12.080001   29.557998       1.0000      1.0079
  261   2 H    1       8.040000   13.730000   29.568000       1.0000      1.0079
  262   1 O    8       0.390000   14.450001   30.527999       6.0000     15.9994
  263   2 H    1       0.050000   14.470000   31.517997       1.0000      1.0079
  264   2 H    1       0.590000   13.480000   30.307998       1.0000      1.0079
  265   1 O    8       1.260000   21.800001   32.257999       6.0000     15.9994
  266   2 H    1       1.580000   22.240002   33.048000       1.0000      1.0079
  267   2 H    1       1.190000   20.930002   32.607999       1.0000      1.0079
  268   1 O    8      -8.610001    7.340000   35.607999       6.0000     15.9994
  269   2 H    1      -7.700000    7.640000   35.417999       1.0000      1.0079
  270   2 H    1      -9.200000    8.110001   35.187999       1.0000      1.0079
  271   1 O    8       2.940000   -7.090001   37.787998       6.0000     15.9994
  272   2 H    1       2.440000   -6.210001   37.727998       1.0000      1.0079
  273   2 H    1       2.680000   -7.400000   38.667999       1.0000      1.0079
  274   1 O    8      13.530001    1.920000   29.737998       6.0000     15.9994
  275   2 H    1      13.810000    2.410000   28.967998       1.0000      1.0079
  276   2 H    1      13.700001    2.550000   30.597997       1.0000      1.0079
  277   1 O    8       2.940000   -4.450000   36.047998       6.0000     15.9994
  278   2 H    1       2.160000   -4.050000   35.597999       1.0000      1.0079
  279   2 H    1       2.820000   -4.210001   37.067998       1.0000      1.0079
  280   1 O    8      14.870001    3.600000   31.617999       6.0000     15.9994
  281   2 H    1      -1.650000    3.050000   32.367997       1.0000      1.0079
  282   2 H    1      14.850000    4.510000   31.897998       1.0000      1.0079
  283   1 O    8     -13.270000   13.690001   30.127998       6.0000     15.9994
  284   2 H    1     -12.790001   13.930000   29.267997       1.0000      1.0079
  285   2 H    1     -12.620001   13.710001   30.837999       1.0000      1.0079
  286   1 O    8      -6.940000   -2.690000   30.137996       6.0000     15.9994
  287   2 H    1      -7.210000   -2.980000   29.208000       1.0000      1.0079
  288   2 H    1      -6.190000   -2.060000   30.108001       1.0000      1.0079
  289   1 O    8     -14.120001    0.300000   35.087999       6.0000     15.9994
  290   2 H    1     -13.940001   -0.250000   35.917999       1.0000      1.0079
  291   2 H    1     -14.090000    1.310000   35.357997       1.0000      1.0079
  292   3 Pt  78       1.600000    0.810000   26.917999      10.0000    195.0840
  293   3 Pt  78       4.370000    0.630000   26.897998      10.0000    195.0840
  294   3 Pt  78       7.170000    0.700000   26.888000      10.0000    195.0840
  295   3 Pt  78       9.980000    0.750000   26.888000      10.0000    195.0840
  296   3 Pt  78      12.850000    0.780000   26.708000      10.0000    195.0840
  297   3 Pt  78      15.670000    0.860000   26.977996      10.0000    195.0840
  298   3 Pt  78       3.110000    3.140000   26.817996      10.0000    195.0840
  299   3 Pt  78       5.880000    3.270000   27.068000      10.0000    195.0840
  300   3 Pt  78       8.660001    3.160000   26.747997      10.0000    195.0840
  301   3 Pt  78      11.430000    3.060000   26.847999      10.0000    195.0840
  302   3 Pt  78      14.220000    3.290000   26.867999      10.0000    195.0840
  303   3 Pt  78       0.190000    3.260000   26.888000      10.0000    195.0840
  304   3 Pt  78       4.420000    5.610001   27.007999      10.0000    195.0840
  305   3 Pt  78       7.210000    5.600000   26.757999      10.0000    195.0840
  306   3 Pt  78      10.100000    5.480001   26.767997      10.0000    195.0840
  307   3 Pt  78      12.860001    5.700001   26.737998      10.0000    195.0840
  308   3 Pt  78      -1.170000    5.630000   26.937999      10.0000    195.0840
  309   3 Pt  78       1.680000    5.560000   26.947997      10.0000    195.0840
  310   3 Pt  78       5.830000    7.960001   26.858001      10.0000    195.0840
  311   3 Pt  78       8.600000    8.070001   26.807998      10.0000    195.0840
  312   3 Pt  78      11.300000    8.010000   27.037998      10.0000    195.0840
  313   3 Pt  78      -2.640000    8.020000   26.917999      10.0000    195.0840
  314   3 Pt  78       0.240000    8.120001   26.967998      10.0000    195.0840
  315   3 Pt  78       3.040000    8.050001   26.728000      10.0000    195.0840
  316   3 Pt  78       7.270000   10.559999   27.018001      10.0000    195.0840
  317   3 Pt  78      10.050000   10.600000   26.928001      10.0000    195.0840
  318   3 Pt  78      -4.050000   10.390000   26.917999      10.0000    195.0840
  319   3 Pt  78      -1.200000   10.400001   26.888000      10.0000    195.0840
  320   3 Pt  78       1.720000   10.400001   26.998000      10.0000    195.0840
  321   3 Pt  78       4.490000   10.580001   26.858001      10.0000    195.0840
  322   3 Pt  78       8.530001   12.930001   26.877998      10.0000    195.0840
  323   3 Pt  78      -5.550000   12.920000   27.088001      10.0000    195.0840
  324   3 Pt  78      -2.680000   12.850000   26.958000      10.0000    195.0840
  325   3 Pt  78       0.220000   12.850000   26.967998      10.0000    195.0840
  326   3 Pt  78       3.040000   12.800001   26.717998      10.0000    195.0840
  327   3 Pt  78       5.880000   13.050001   26.967998      10.0000    195.0840
  328   3 Pt  78       0.200000    1.660000   24.537998      10.0000    195.0840
  329   3 Pt  78       3.040000    1.520000   24.607997      10.0000    195.0840
  330   3 Pt  78       5.900001    1.480000   24.498000      10.0000    195.0840
  331   3 Pt  78       8.640000    1.530000   24.527999      10.0000    195.0840
  332   3 Pt  78      11.440001    1.500000   24.458000      10.0000    195.0840
  333   3 Pt  78      14.230001    1.540000   24.417999      10.0000    195.0840
  334   3 Pt  78       1.600000    4.020000   24.527999      10.0000    195.0840
  335   3 Pt  78       4.510000    3.910000   24.458000      10.0000    195.0840
  336   3 Pt  78       7.250000    3.980000   24.498000      10.0000    195.0840
  337   3 Pt  78      10.080000    3.980000   24.428001      10.0000    195.0840
  338   3 Pt  78      12.920000    3.800000   24.437999      10.0000    195.0840
  339   3 Pt  78      -1.180000    4.040000   24.498000      10.0000    195.0840
  340   3 Pt  78       3.040000    6.380000   24.487998      10.0000    195.0840
  341   3 Pt  78       5.920000    6.390000   24.518001      10.0000    195.0840
  342   3 Pt  78       8.540000    6.560000   24.447997      10.0000    195.0840
  343   3 Pt  78      11.250000    6.370000   24.458000      10.0000    195.0840
  344   3 Pt  78      -2.660000    6.370000   24.458000      10.0000    195.0840
  345   3 Pt  78       0.260000    6.480000   24.557998      10.0000    195.0840
  346   3 Pt  78       4.500000    8.740000   24.527999      10.0000    195.0840
  347   3 Pt  78       7.170000    9.050000   24.638000      10.0000    195.0840
  348   3 Pt  78       9.980000    8.890000   24.658000      10.0000    195.0840
  349   3 Pt  78      -4.050000    8.820001   24.577998      10.0000    195.0840
  350   3 Pt  78      -1.190000    8.870000   24.568000      10.0000    195.0840
  351   3 Pt  78       1.630000    8.910000   24.498000      10.0000    195.0840
  352   3 Pt  78       5.820000   11.310000   24.518001      10.0000    195.0840
  353   3 Pt  78       8.500000   11.350001   24.627998      10.0000    195.0840
  354   3 Pt  78      -5.410000   11.300000   24.607997      10.0000    195.0840
  355   3 Pt  78      -2.690000   11.200000   24.667999      10.0000    195.0840
  356   3 Pt  78       0.230000   11.260000   24.577998      10.0000    195.0840
  357   3 Pt  78       2.960000   11.200000   24.518001      10.0000    195.0840
  358   3 Pt  78       7.270000   13.820001   24.617999      10.0000    195.0840
  359   3 Pt  78      -6.680000   13.640001   24.638000      10.0000    195.0840
  360   3 Pt  78      -3.940000   13.700001   24.677997      10.0000    195.0840
  361   3 Pt  78      -1.140000   13.640001   24.638000      10.0000    195.0840
  362   3 Pt  78       1.630000   13.730000   24.477996      10.0000    195.0840
  363   3 Pt  78       4.480000   13.690001   24.507999      10.0000    195.0840
  364   3 Pt  78      -8.290001   14.590001   22.277999      10.0000    195.0840
  365   3 Pt  78      -5.430000   14.540001   22.367999      10.0000    195.0840
  366   3 Pt  78      -2.600000   14.450001   22.197997      10.0000    195.0840
  367   3 Pt  78       0.100000   14.410001   22.248000      10.0000    195.0840
  368   3 Pt  78       2.970000   14.510001   22.187999      10.0000    195.0840
  369   3 Pt  78       5.840001   14.490002   22.048000      10.0000    195.0840
  370   3 Pt  78       1.570000    2.390000   22.267997      10.0000    195.0840
  371   3 Pt  78       4.410000    2.420000   22.248000      10.0000    195.0840
  372   3 Pt  78       7.250000    2.370000   22.127998      10.0000    195.0840
  373   3 Pt  78      10.010000    2.150000   22.237998      10.0000    195.0840
  374   3 Pt  78      12.890000    2.340000   22.108001      10.0000    195.0840
  375   3 Pt  78      -1.290000    2.330000   22.167999      10.0000    195.0840
  376   3 Pt  78       3.060000    4.840000   22.287998      10.0000    195.0840
  377   3 Pt  78       5.870000    4.810000   22.208000      10.0000    195.0840
  378   3 Pt  78       8.720000    4.760000   22.208000      10.0000    195.0840
  379   3 Pt  78      11.440001    4.740000   22.157996      10.0000    195.0840
  380   3 Pt  78      -2.670000    4.740000   22.257999      10.0000    195.0840
  381   3 Pt  78       0.210000    4.750000   22.237998      10.0000    195.0840
  382   3 Pt  78       4.450000    7.250000   22.208000      10.0000    195.0840
  383   3 Pt  78       7.160000    7.230001   22.237998      10.0000    195.0840
  384   3 Pt  78       9.970000    7.330000   22.267997      10.0000    195.0840
  385   3 Pt  78      -4.120000    7.200000   22.197997      10.0000    195.0840
  386   3 Pt  78      -1.190000    7.170000   22.197997      10.0000    195.0840
  387   3 Pt  78       1.590000    7.200000   22.237998      10.0000    195.0840
  388   3 Pt  78       5.860000    9.710001   22.248000      10.0000    195.0840
  389   3 Pt  78       8.620001    9.670001   22.337997      10.0000    195.0840
  390   3 Pt  78      -5.420001    9.650001   22.388000      10.0000    195.0840
  391   3 Pt  78      -2.640000    9.590000   22.277999      10.0000    195.0840
  392   3 Pt  78       0.240000    9.660000   22.138000      10.0000    195.0840
  393   3 Pt  78       3.030000    9.630001   22.167999      10.0000    195.0840
  394   3 Pt  78       7.260000   12.170000   22.157996      10.0000    195.0840
  395   3 Pt  78      -6.940000   12.140001   22.357997      10.0000    195.0840
  396   3 Pt  78      -4.010000   12.070000   22.307998      10.0000    195.0840
  397   3 Pt  78      -1.220000   12.020000   22.248000      10.0000    195.0840
  398   3 Pt  78       1.510000   12.070000   22.127998      10.0000    195.0840
  399   3 Pt  78       4.300000   12.130001   22.217998      10.0000    195.0840
  400   3 Pt  78       1.620000    0.690000   19.990000      10.0000    195.0840
  401   3 Pt  78       4.400000    0.690000   20.050000      10.0000    195.0840
  402   3 Pt  78       7.110000    0.640000   19.970000      10.0000    195.0840
  403   3 Pt  78       9.910001    0.650000   19.860000      10.0000    195.0840
  404   3 Pt  78      12.740001    0.700000   19.830000      10.0000    195.0840
  405   3 Pt  78      15.560001    0.670000   19.850000      10.0000    195.0840
  406   3 Pt  78       3.010000    2.990000   19.900000      10.0000    195.0840
  407   3 Pt  78       5.720000    3.160000   19.850000      10.0000    195.0840
  408   3 Pt  78       8.490001    3.220000   19.880000      10.0000    195.0840
  409   3 Pt  78      11.270000    3.120000   19.930000      10.0000    195.0840
  410   3 Pt  78      14.170000    3.150000   19.850000      10.0000    195.0840
  411   3 Pt  78       0.150000    3.050000   19.950000      10.0000    195.0840
  412   3 Pt  78       4.330000    5.540000   19.900000      10.0000    195.0840
  413   3 Pt  78       7.150001    5.670000   19.900000      10.0000    195.0840
  414   3 Pt  78       9.930000    5.620000   19.880000      10.0000    195.0840
  415   3 Pt  78      12.680000    5.510000   19.900000      10.0000    195.0840
  416   3 Pt  78      -1.280000    5.480001   19.930000      10.0000    195.0840
  417   3 Pt  78       1.670000    5.440001   19.970000      10.0000    195.0840
  418   3 Pt  78       5.800000    8.020000   19.940000      10.0000    195.0840
  419   3 Pt  78       8.590000    8.050001   19.890000      10.0000    195.0840
  420   3 Pt  78      11.340000    8.010000   19.920000      10.0000    195.0840
  421   3 Pt  78      -2.710000    7.940001   19.960000      10.0000    195.0840
  422   3 Pt  78       0.160000    7.920001   19.940000      10.0000    195.0840
  423   3 Pt  78       3.030000    7.970000   19.920000      10.0000    195.0840
  424   3 Pt  78       7.160000   10.530001   20.000000      10.0000    195.0840
  425   3 Pt  78       9.970000   10.480001   20.070000      10.0000    195.0840
  426   3 Pt  78      -4.000000   10.450001   20.050000      10.0000    195.0840
  427   3 Pt  78      -1.250000   10.390000   19.850000      10.0000    195.0840
  428   3 Pt  78       1.470000   10.480001   19.790000      10.0000    195.0840
  429   3 Pt  78       4.330000   10.450001   19.950000      10.0000    195.0840
  430   3 Pt  78       8.520000   12.890000   19.930000      10.0000    195.0840
  431   3 Pt  78      -5.480001   12.790001   20.120000      10.0000    195.0840
  432   3 Pt  78      -2.690000   12.800001   19.910000      10.0000    195.0840
  433   3 Pt  78       0.050000   12.780001   19.830000      10.0000    195.0840
  434   3 Pt  78       2.880000   12.840000   19.730000      10.0000    195.0840
  435   3 Pt  78       5.710001   12.940001   19.860000      10.0000    195.0840
  436   3 Pt  78       0.000000    1.420000   17.580000      10.0000    195.0840
  437   3 Pt  78       2.980000    1.420000   17.570000      10.0000    195.0840
  438   3 Pt  78       5.690000    1.450000   17.700000      10.0000    195.0840
  439   3 Pt  78       8.530001    1.450000   17.670000      10.0000    195.0840
  440   3 Pt  78      11.250000    1.500000   17.590000      10.0000    195.0840
  441   3 Pt  78      14.120001    1.420000   17.470000      10.0000    195.0840
  442   3 Pt  78       1.580000    3.830000   17.700000      10.0000    195.0840
  443   3 Pt  78       4.310000    3.860000   17.610000      10.0000    195.0840
  444   3 Pt  78       7.060000    3.940000   17.520000      10.0000    195.0840
  445   3 Pt  78       9.880000    3.930000   17.580000      10.0000    195.0840
  446   3 Pt  78      12.710000    3.750000   17.590000      10.0000    195.0840
  447   3 Pt  78      -1.330000    3.870000   17.550000      10.0000    195.0840
  448   3 Pt  78       2.880000    6.380000   17.660000      10.0000    195.0840
  449   3 Pt  78       5.680000    6.340000   17.720000      10.0000    195.0840
  450   3 Pt  78       8.490001    6.320000   17.550000      10.0000    195.0840
  451   3 Pt  78      11.310000    6.350000   17.640000      10.0000    195.0840
  452   3 Pt  78      -2.710000    6.260000   17.670000      10.0000    195.0840
  453   3 Pt  78       0.040000    6.190000   17.540000      10.0000    195.0840
  454   3 Pt  78       4.330000    8.820001   17.580000      10.0000    195.0840
  455   3 Pt  78       7.170000    8.650001   17.600000      10.0000    195.0840
  456   3 Pt  78       9.890000    8.820001   17.690000      10.0000    195.0840
  457   3 Pt  78      -4.030000    8.760000   17.740000      10.0000    195.0840
  458   3 Pt  78      -1.290000    8.660001   17.640000      10.0000    195.0840
  459   3 Pt  78       1.440000    8.770000   17.590000      10.0000    195.0840
  460   3 Pt  78       5.690000   11.130000   17.560000      10.0000    195.0840
  461   3 Pt  78       8.560000   11.170001   17.700000      10.0000    195.0840
  462   3 Pt  78      -5.540000   11.170001   17.800000      10.0000    195.0840
  463   3 Pt  78      -2.690000   11.200000   17.590000      10.0000    195.0840
  464   3 Pt  78       0.040000   11.270000   17.380000      10.0000    195.0840
  465   3 Pt  78       2.850000   11.200000   17.520000      10.0000    195.0840
  466   3 Pt  78       7.160000   13.540001   17.590000      10.0000    195.0840
  467   3 Pt  78      -6.870000   13.640001   17.670000      10.0000    195.0840
  468   3 Pt  78      -4.150000   13.710001   17.750000      10.0000    195.0840
  469   3 Pt  78      -1.310000   13.630000   17.590000      10.0000    195.0840
  470   3 Pt  78       1.520000   13.670001   17.470000      10.0000    195.0840
  471   3 Pt  78       4.340000   13.520001   17.520000      10.0000    195.0840
  472   3 Pt  78      -8.270000   14.280001   15.310000      10.0000    195.0840
  473   3 Pt  78      -5.590000   14.390000   15.220000      10.0000    195.0840
  474   3 Pt  78      -2.800000   14.480001   15.420000      10.0000    195.0840
  475   3 Pt  78       0.100000   14.530001   15.260000      10.0000    195.0840
  476   3 Pt  78       2.870000   14.360001   15.270000      10.0000    195.0840
  477   3 Pt  78       5.840001   14.440001   15.290000      10.0000    195.0840
  478   3 Pt  78       1.520000    2.300000   15.310000      10.0000    195.0840
  479   3 Pt  78       4.260000    2.300000   15.240000      10.0000    195.0840
  480   3 Pt  78       7.080000    2.260000   15.240000      10.0000    195.0840
  481   3 Pt  78       9.820001    2.270000   15.360000      10.0000    195.0840
  482   3 Pt  78      12.610001    2.240000   15.230000      10.0000    195.0840
  483   3 Pt  78      -1.250000    2.190000   15.170000      10.0000    195.0840
  484   3 Pt  78       2.860000    4.680000   15.290000      10.0000    195.0840
  485   3 Pt  78       5.730000    4.610000   15.000000      10.0000    195.0840
  486   3 Pt  78       8.560000    4.640000   15.150000      10.0000    195.0840
  487   3 Pt  78      11.310000    4.630000   15.010000      10.0000    195.0840
  488   3 Pt  78      -2.800000    4.570000   15.270000      10.0000    195.0840
  489   3 Pt  78      -0.110000    4.560000   15.220000      10.0000    195.0840
  490   3 Pt  78       4.310000    7.070000   15.440000      10.0000    195.0840
  491   3 Pt  78       7.270000    7.090001   15.210000      10.0000    195.0840
  492   3 Pt  78      10.060000    7.090001   15.290000      10.0000    195.0840
  493   3 Pt  78      -4.170000    7.090001   15.380000      10.0000    195.0840
  494   3 Pt  78      -1.470000    7.140000   15.350000      10.0000    195.0840
  495   3 Pt  78       1.450000    7.050000   15.420000      10.0000    195.0840
  496   3 Pt  78       5.860000    9.500000   15.210000      10.0000    195.0840
  497   3 Pt  78       8.720000    9.430000   15.220000      10.0000    195.0840
  498   3 Pt  78      -5.500000    9.500000   15.340000      10.0000    195.0840
  499   3 Pt  78      -2.710000    9.510000   15.330000      10.0000    195.0840
  500   3 Pt  78       0.150000    9.620001   15.150000      10.0000    195.0840
  501   3 Pt  78       2.930000    9.470000   15.180000      10.0000    195.0840
  502   3 Pt  78       7.100000   11.920000   15.320000      10.0000    195.0840
  503   3 Pt  78      -6.730001   11.910001   15.200000      10.0000    195.0840
  504   3 Pt  78      -4.120000   12.020000   15.450000      10.0000    195.0840
  505   3 Pt  78      -1.240000   12.080001   15.050000      10.0000    195.0840
[...]
 flops    13 x    13 x   112           5375514144       0.0%    100.0%      0.0%
 flops    13 x    32 x    13           5614033984       0.0%    100.0%      0.0%
 flops     5 x     5 x    96           5991638400       0.0%    100.0%      0.0%
 flops    13 x     5 x    96           7648692480       0.0%    100.0%      0.0%
 flops     5 x    13 x    96           7655281920       0.0%    100.0%      0.0%
 flops    20 x    13 x   112           7799151360       0.0%    100.0%      0.0%
 flops    13 x    20 x   112           7829902080       0.0%    100.0%      0.0%
 flops    13 x    32 x    20           8254305280       0.0%    100.0%      0.0%
 flops    20 x    32 x    13           8254305280       0.0%    100.0%      0.0%
 flops    20 x     5 x   112           8346307200       0.0%    100.0%      0.0%
 flops     5 x    20 x   112           8363308800       0.0%    100.0%      0.0%
 flops    20 x    32 x     5           8824992000       0.0%    100.0%      0.0%
 flops     5 x    32 x    20           8824992000       0.0%    100.0%      0.0%
 flops    13 x    13 x    96           9215167104       0.0%    100.0%      0.0%
 flops    20 x    13 x    96          13369973760       0.0%    100.0%      0.0%
 flops    13 x    20 x    96          13422689280       0.0%    100.0%      0.0%
 flops    20 x     5 x    96          14307955200       0.0%    100.0%      0.0%
 flops     5 x    20 x    96          14337100800       0.0%    100.0%      0.0%
 flops     5 x     5 x   128          51927532800       0.0%    100.0%      0.0%
 flops    13 x     5 x   128          66288668160       0.0%    100.0%      0.0%
 flops     5 x    13 x   128          66345776640       0.0%    100.0%      0.0%
 flops    20 x    20 x   112          69295564800       0.0%    100.0%      0.0%
 flops    20 x    32 x    20          72858009600       0.0%    100.0%      0.0%
 flops    13 x    13 x   128          79864781568       0.0%    100.0%      0.0%
 flops    20 x    13 x   128         115873105920       0.0%    100.0%      0.0%
 flops    13 x    20 x   128         116329973760       0.0%    100.0%      0.0%
 flops    20 x    20 x    96         118792396800       0.0%    100.0%      0.0%
 flops    20 x     5 x   128         124002278400       0.0%    100.0%      0.0%
 flops     5 x    20 x   128         124254873600       0.0%    100.0%      0.0%
 flops    20 x    20 x   128        1029534105600       0.0%    100.0%      0.0%
 flops inhomo. stacks                           0       0.0%      0.0%      0.0%
 flops total                         2.225358E+12       0.0%    100.0%      0.0%
 flops max/rank                     20.660290E+09       0.0%    100.0%      0.0%
 matmuls inhomo. stacks                         0       0.0%      0.0%      0.0%
 matmuls total                           62540354       0.0%    100.0%      0.0%
 number of processed stacks                630201       0.0%    100.0%      0.0%
 average stack size                                     0.0      99.2       0.0
 marketing flops                     4.498328E+12
 -------------------------------------------------------------------------------
 # multiplications                             34
 max memory usage/rank               1.609331E+09
 # max total images/rank                        2
 # max 3D layers                                1
 # MPI messages exchanged                  126208
 MPI messages size (bytes):
  total size                        79.465595E+09
  min size                         290.304000E+03
  max size                           2.194560E+06
  average size                     629.639938E+03
 MPI breakdown and total messages size (bytes):
             size <=      128                   0                        0
       128 < size <=     8192                   0                        0
      8192 < size <=    32768                   0                        0
     32768 < size <=   131072                   0                        0
    131072 < size <=  4194304              126208              79465597272
   4194304 < size <= 16777216                   0                        0
  16777216 < size                               0                        0
 -------------------------------------------------------------------------------

 *** WARNING in dbcsr_mm.F:290 :: Using a non-square number of MPI ranks ***
 *** might lead to poor performance. Used ranks: 128 Suggested: 121 256  ***

 -------------------------------------------------------------------------------
 -                                                                             -
 -                      DBCSR MESSAGE PASSING PERFORMANCE                      -
 -                                                                             -
 -------------------------------------------------------------------------------
 ROUTINE             CALLS      AVE VOLUME [Bytes]
 MP_Bcast               46                     12.
 MP_Allreduce          341                     13.
 MP_Alltoall           945                 573681.
 MP_ISend             2176                 297905.
 MP_IRecv             2176                 291530.
 -------------------------------------------------------------------------------

 -------------------------------------------------------------------------------
 -                                                                             -
 -                                DBM STATISTICS                               -
 -                                                                             -
 -------------------------------------------------------------------------------
    M  x    N  x    K                                          COUNT     PERCENT
 -------------------------------------------------------------------------------

 -------------------------------------------------------------------------------
 -                                                                             -
 -                                GRID STATISTICS                              -
 -                                                                             -
 -------------------------------------------------------------------------------
 LP    KERNEL             BACKEND                              COUNT     PERCENT
 4     collocate general  REF                               12916512      22.57%
 4     integrate general  REF                               12784473      22.34%
 3     collocate general  REF                                8691264      15.19%
 3     integrate general  REF                                8634373      15.09%
 2     collocate general  REF                                6870752      12.01%
 2     integrate general  REF                                6656041      11.63%
 5     integrate general  REF                                 403641       0.71%
 0     collocate general  REF                                 129792       0.23%
 0     integrate general  REF                                  64896       0.11%
 1     integrate general  REF                                  64896       0.11%
 -------------------------------------------------------------------------------

 MEMORY| Estimated peak process memory [MiB]                                1785

 -------------------------------------------------------------------------------
 ----                             MULTIGRID INFO                            ----
 -------------------------------------------------------------------------------
 count for grid        1:        1092927          cutoff [a.u.]          200.00
 count for grid        2:        1087185          cutoff [a.u.]           66.67
 count for grid        3:         709237          cutoff [a.u.]           22.22
 count for grid        4:         545963          cutoff [a.u.]            7.41
 total gridlevel count  :        3435312

 -------------------------------------------------------------------------------
 -                                                                             -
 -                         MESSAGE PASSING PERFORMANCE                         -
 -                                                                             -
 -------------------------------------------------------------------------------

 ROUTINE             CALLS      AVE VOLUME [Bytes]
 MP_Group                4
 MP_Bcast             2176                 309265.
 MP_Allreduce         3237                  32977.
 MP_Sync                70
 MP_Alltoall          1942               17614897.
 MP_SendRecv           508                   5781.
 MP_ISendRecv        16256                  61740.
 MP_Wait             28916
 MP_comm_split          33
 MP_ISend            11936                 256497.
 MP_IRecv            11936                 256497.
 MP_Recv               122                1677056.
 MP_Write_All            3                1797408.
 -------------------------------------------------------------------------------


 -------------------------------------------------------------------------------
 -                                                                             -
 -                           R E F E R E N C E S                               -
 -                                                                             -
 -------------------------------------------------------------------------------
 
 CP2K version 2022.1, the CP2K developers group (2022).
 CP2K is freely available from https://www.cp2k.org/ .

 Kuehne,Thomas D.; Iannuzzi,Marcella; Del Ben,Mauro;
 Rybkin,Vladimir V.; Seewald,Patrick; Stein,Frederick; Laino,Teodoro;
 Khaliullin,Rustam Z.; Schuett,Ole; Schiffmann,Florian; Golze,Dorothea;
 Wilhelm,Jan; Chulkov,Sergey; Bani-Hashemian,Mohammad Hossein;
 Weber,Valery; Borstnik,Urban; Taillefumier,Mathieu;
 Jakobovits,Alice Shoshana; Lazzaro,Alfio; Pabst,Hans; Mueller,Tiziano;
 Schade,Robert; Guidon,Manuel; Andermatt,Samuel; Holmberg,Nico;
 Schenter,Gregory K.; Hehn,Anna; Bussy,Augustin; Belleflamme,Fabian;
 Tabacchi,Gloria; Gloess,Andreas; Lass,Michael; Bethune,Iain;
 Mundy,Christopher J.; Plessl,Christian; Watkins,Matt;
 VandeVondele,Joost; Krack,Matthias; Hutter,Juerg. 
 The Journal of Chemical Physics, 152 (19), (2020). 
 CP2K: An electronic structure and molecular dynamics software package -
 Quickstep: Efficient and accurate electronic structure calculations.
 https://doi.org/10.1063/5.0007045

 Goerigk, Lars; Hansen, Andreas; Bauer, Christoph; Ehrlich, Stephan;
 Najibi, Asim; Grimme, Stefan. , 19 (48), (2017). 
 A look at the density functional theory zoo with the advanced GMTKN55 database
 for general main group thermochemistry, kinetics and noncovalent interactions.
 https://doi.org/10.1039/C7CP04913G

 Bani-Hashemian, MH; Bruck, S; Luisier, M; VandeVondele, J. 
 JOURNAL OF CHEMICAL PHYSICS, 144 (4), 044113 (2016). 
 A generalized Poisson solver for first-principles device simulations.
 https://doi.org/10.1063/1.4940796

 Schuett, Ole; Messmer, Peter; Hutter, Juerg; VandeVondele, Joost. 
 Electronic Structure Calculations on Graphics Processing Units, John
 Wiley & Sons, Ltd, 173-190 (2016). 
 GPU-Accelerated Sparse Matrix-Matrix Multiplication for
 Linear Scaling Density Functional Theory.
 https://doi.org/10.1002/9781118670712.ch8

 Heinecke, A; Henry, G; Hutchinson, M; Pabst, H. 
 Proceedings of Intl. Supercomputing Conference, 981-991 (2016). 
 LIBXSMM: Accelerating Small Matrix Multiplications
 by Runtime Code Generation.
 https://doi.org/10.1109/SC.2016.83

 Borstnik, U; VandeVondele, J; Weber, V; Hutter, J. 
 PARALLEL COMPUTING, 40 (5-6), 47-58 (2014). 
 Sparse matrix multiplication: The distributed block-compressed sparse
 row library.
 https://doi.org/10.1016/j.parco.2014.03.012

 Hutter, J; Iannuzzi, M; Schiffmann, F; VandeVondele, J. 
 WIREs Comput Mol Sci., 4 (1), 15-25 (2014). 
 CP2K: atomistic simulations of condensed matter systems.
 https://doi.org/10.1002/wcms.1159

 Marek, A; Blum, V; Johanni, R; Havu, V; Lang, B; Auckenthaler, T;
 Heinecke, A; Bungartz, H; Lederer, H. 
 Journal of Physics: Condensed Matter, 26 (21), (2014). 
 The ELPA library: scalable parallel eigenvalue solutions for
 electronic structure
 theory and computational science.
 https://doi.org/10.1088/0953-8984/26/21/213201

 Grimme, S; Ehrlich, S; Goerigk, L. 
 JOURNAL OF COMPUTATIONAL CHEMISTRY, 32, 1456 (2011). 
 Effect of the damping function in dispersion corrected density functional theory.
 https://doi.org/10.1002/jcc.21759

 Grimme, S; Antony, J; Ehrlich, S; Krieg, H. 
 JOURNAL OF CHEMICAL PHYSICS, 132 (15), 154104 (2010). 
 A consistent and accurate ab initio parametrization of density
 functional dispersion correction (DFT-D) for the 94 elements H-Pu.
 https://doi.org/10.1063/1.3382344

 VandeVondele, J; Hutter, J. 
 JOURNAL OF CHEMICAL PHYSICS, 127 (11), 114105 (2007). 
 Gaussian basis sets for accurate calculations on molecular systems in
 gas and condensed phases.
 https://doi.org/10.1063/1.2770708

 Krack, M. 
 THEORETICAL CHEMISTRY ACCOUNTS, 114 (1-3), 145-152 (2005). 
 Pseudopotentials for H to Kr optimized for gradient-corrected
 exchange-correlation functionals.
 https://doi.org/10.1007/s00214-005-0655-y

 VandeVondele, J; Krack, M; Mohamed, F; Parrinello, M; Chassaing, T;
 Hutter, J. COMPUTER PHYSICS COMMUNICATIONS, 167 (2), 103-128 (2005). 
 QUICKSTEP: Fast and accurate density functional calculations using a
 mixed Gaussian and plane waves approach.
 https://doi.org/10.1016/j.cpc.2004.12.014

 Frigo, M; Johnson, SG. 
 PROCEEDINGS OF THE IEEE, 93 (2), 216-231 (2005). 
 The design and implementation of FFTW3.
 https://doi.org/10.1109/JPROC.2004.840301

 Hartwigsen, C; Goedecker, S; Hutter, J. 
 PHYSICAL REVIEW B, 58 (7), 3641-3662 (1998). 
 Relativistic separable dual-space Gaussian pseudopotentials from H to Rn.
 https://doi.org/10.1103/PhysRevB.58.3641

 Lippert, G; Hutter, J; Parrinello, M. 
 MOLECULAR PHYSICS, 92 (3), 477-487 (1997). 
 A hybrid Gaussian and plane wave density functional scheme.
 https://doi.org/10.1080/002689797170220

 Perdew, JP; Burke, K; Ernzerhof, M. 
 PHYSICAL REVIEW LETTERS, 77 (18), 3865-3868 (1996). 
 Generalized gradient approximation made simple.
 https://doi.org/10.1103/PhysRevLett.77.3865

 Goedecker, S; Teter, M; Hutter, J. 
 PHYSICAL REVIEW B, 54 (3), 1703-1710 (1996). 
 Separable dual-space Gaussian pseudopotentials.
 https://doi.org/10.1103/PhysRevB.54.1703


 -------------------------------------------------------------------------------
 -                                                                             -
 -                                T I M I N G                                  -
 -                                                                             -
 -------------------------------------------------------------------------------
 SUBROUTINE                       CALLS  ASD         SELF TIME        TOTAL TIME
                                MAXIMUM       AVERAGE  MAXIMUM  AVERAGE  MAXIMUM
 CP2K                                 1  1.0    0.396    0.409  225.324  225.326
 qs_forces                            1  2.0    0.002    0.002  224.407  224.408
 qs_energies                          1  3.0    0.000    0.001  218.272  218.317
 scf_env_do_scf                       1  4.0    0.000    0.000  209.171  209.307
 scf_env_do_scf_inner_loop           31  5.0    0.002    0.005  209.168  209.303
 rebuild_ks_matrix                   32  6.9    0.000    0.000  114.510  114.551
 qs_ks_build_kohn_sham_matrix        32  7.9    0.005    0.006  114.510  114.551
 qs_ks_update_qs_env                 31  6.0    0.000    0.000  110.498  110.537
 pw_transfer                       1668 12.2    0.122    0.167   72.840   74.282
 fft_wrap_pw1pw2                   1668 13.2    0.016    0.019   72.719   74.149
 fft_wrap_pw1pw2_200               1476 14.4    4.910    5.858   71.745   73.161
 pw_poisson_solve                    32  8.9    0.003    0.009   62.471   62.513
 fft3d_ps                          1668 15.2   20.982   23.535   58.465   60.649
 qs_scf_new_mos                      31  6.0    0.002    0.005   59.797   59.887
 implicit_poisson_solver_mixed_      32  9.9    1.325    1.623   59.075   59.119
 eigensolver                         31  7.0    0.002    0.003   56.448   56.621
 derive_fft                         192 12.1    0.012    0.014   41.392   41.504
 cp_fm_diag_elpa                     33  8.1    0.000    0.001   40.210   40.312
 cp_fm_redistribute_end              33  9.1    5.371   39.842    5.432   39.876
 cp_fm_diag_elpa_base                33  9.0   33.909   38.936   34.251   39.310
 mp_alltoall_z22v                  1668 17.2   31.367   38.697   31.367   38.697
 apply_P_operator                   160 11.1    0.854    0.949   35.361   35.461
 qs_rho_update_rho_low               32  6.0    0.000    0.000   34.750   34.760
 calculate_rho_elec                  32  7.0    0.062    0.077   34.750   34.760
 sum_up_and_integrate                32  8.9    0.173    0.233   34.292   34.341
 integrate_v_rspace                  32  9.9    0.001    0.002   34.119   34.209
 grid_collocate_task_list            32  8.0   22.826   27.097   22.826   27.097
 x_to_yz                            961 16.4    4.082    5.237   23.711   24.734
 grid_integrate_task_list            32 10.9   21.239   24.687   21.239   24.687
 cp_fm_triangular_multiply           93  8.0   17.747   17.933   17.747   17.933
 rs_pw_transfer                     260 10.4    0.003    0.006   15.266   17.926
 yz_to_x                            515 16.4    1.401    1.623   13.017   17.861
 qs_vxc_create                       32  8.9    0.001    0.001   15.869   16.060
 xc_vxc_pw_create                    32  9.9    0.273    0.338   15.868   16.059
 density_rs2pw                       32  8.0    0.002    0.002   11.193   13.998
 xc_pw_derive                       192 11.9    0.003    0.003   11.178   12.428
 apply_poisson_operator_fft          32 10.9    0.000    0.000   10.382   10.569
 apply_inv_laplace_operator_fft      98 11.6    0.243    0.272    9.572    9.924
 potential_pw2rs                     32 10.9    0.009    0.010    9.098    9.168
 rs_pw_transfer_RS2PW_200            34  9.9    2.218    2.472    6.418    9.071
 mp_waitany                       11936 12.3    6.314    9.007    6.314    9.007
 xc_pw_divergence                    32 10.9    0.002    0.022    7.607    8.516
 xc_rho_set_and_dset_create          32 10.9    0.159    0.183    7.700    8.189
 ps_implicit_compute_error_fft       64 10.9    0.402    0.492    6.978    7.476
 mp_alltoall_d11v                   470 10.3    4.714    7.214    4.714    7.214
 ps_implicit_compute_veps            32 10.9    0.186    0.217    7.074    7.187
 pw_scatter_p                      1057 15.3    5.932    6.937    5.932    6.937
 rs_gather_matrices                  32 10.9    0.038    0.050    3.769    6.168
 scf_post_calculation_gpw             1  4.0    0.000    0.000    5.568    5.574
 write_available_results              1  5.0    0.000    0.000    5.568    5.573
 rs_pw_transfer_PW2RS_200            34 12.6    2.568    2.661    5.371    5.495
 pw_derive                          768 13.0    4.854    5.185    4.854    5.185
 gspace_mixing                       30  6.0    0.057    0.070    5.034    5.034
 -------------------------------------------------------------------------------

 The number of warnings for this run is : 1
 
 -------------------------------------------------------------------------------
  **** **** ******  **  PROGRAM ENDED AT                 2023-12-02 04:53:14.845
 ***** ** ***  *** **   PROGRAM RAN ON                                     cu062
 **    ****   ******    PROGRAM RAN BY                                     jxzhu
 ***** **    ** ** **   PROGRAM PROCESS ID                                 58048
  **** **  *******  **  PROGRAM STOPPED IN /public/home/jxzhu/tmp_calc/782f01e67
                                           96eb1f60906033c3bb780b17a045405/calc/
                                           000700.000/search_hi.000000
