 DBCSR| CPU Multiplication driver                                           XSMM
 DBCSR| Multrec recursion limit                                              512
 DBCSR| Multiplication stack size                                           1000
 DBCSR| Maximum elements for images                                    UNLIMITED
 DBCSR| Multiplicative factor virtual images                                   1
 DBCSR| Use multiplication densification                                       T
 DBCSR| Multiplication size stacks                                             3
 DBCSR| Use memory pool for CPU allocation                                     F
 DBCSR| Number of 3D layers                                               SINGLE
 DBCSR| Use MPI memory allocation                                              F
 DBCSR| Use RMA algorithm                                                      F
 DBCSR| Use Communication thread                                               T
 DBCSR| Communication thread load                                             87
 DBCSR| MPI: My node id                                                        0
 DBCSR| MPI: Number of nodes                                                 128
 DBCSR| OMP: Current number of threads                                         1
 DBCSR| OMP: Max number of threads                                             1
 DBCSR| Split modifier for TAS multiplication algorithm                  1.0E+00


  **** **** ******  **  PROGRAM STARTED AT               2024-07-17 23:28:16.550
 ***** ** ***  *** **   PROGRAM STARTED ON                                 cu042
 **    ****   ******    PROGRAM STARTED BY                                 jxzhu
 ***** **    ** ** **   PROGRAM PROCESS ID                                 54281
  **** **  *******  **  PROGRAM STARTED IN /public/home/jxzhu/tmp_calc/570b1f139
                                           220a72c17c8b9edb094915b244b66a7/calc/
                                           001000.000/search_lo.000001

 CP2K| version string:                                       CP2K version 2022.1
 CP2K| source code revision number:                                  git:2caeb6f
 CP2K| cp2kflags: omp libint fftw3 libxc elpa parallel mpi3 scalapack cosma xsmm
 CP2K|             plumed2 spglib mkl sirius libvori libbqb
 CP2K| is freely available from                            https://www.cp2k.org/
 CP2K| Program compiled at                           Mon Jul 3 17:37:06 CST 2023
 CP2K| Program compiled on                                                 mu003
 CP2K| Program compiled for                                                local
 CP2K| Data directory path                             /public/home/jxzhu/basis/
 CP2K| Input file name                                                 input.inp
 
 GLOBAL| Force Environment number                                              1
 GLOBAL| Basis set file name                                        BASIS_MOLOPT
 GLOBAL| Potential file name                                      GTH_POTENTIALS
 GLOBAL| MM Potential file name                                     MM_POTENTIAL
 GLOBAL| Coordinate file name                                          coord.xyz
 GLOBAL| Method name                                                        CP2K
 GLOBAL| Project name                                                       cp2k
 GLOBAL| Run type                                                   ENERGY_FORCE
 GLOBAL| FFT library                                                       FFTW3
 GLOBAL| Diagonalization library                                            ELPA
 GLOBAL| Minimum number of eigenvectors for ELPA usage                        16
 GLOBAL| Orthonormality check for eigenvectors                          DISABLED
 GLOBAL| Matrix multiplication library                                     COSMA
 GLOBAL| All-to-all communication in single precision                          F
 GLOBAL| FFTs using library dependent lengths                                  T
 GLOBAL| Grid backend                                                       AUTO
 GLOBAL| Global print level                                               MEDIUM
 GLOBAL| MPI I/O enabled                                                       T
 GLOBAL| Total number of message passing processes                           128
 GLOBAL| Number of threads for this process                                    1
 GLOBAL| This output is from process                                           0
 GLOBAL| Stack size for threads created by OpenMP (OMP_STACKSIZE)        default
 GLOBAL| CPU model name                 Intel(R) Xeon(R) Gold 6338 CPU @ 2.00GHz
 GLOBAL| CPUID                                                              1003

 MEMORY| system memory details [Kb]
 MEMORY|                        rank 0           min           max       average
 MEMORY| MemTotal            263619172     263619172     263619172     263619172
 MEMORY| MemFree             188508232     186457196     188508232     187482719
 MEMORY| Buffers                   572           556           572           564
 MEMORY| Cached                2650000       1812136       2650000       2231068
 MEMORY| Slab                  2204412       1987324       2204412       2095868
 MEMORY| SReclaimable           285236        270744        285236        277990
 MEMORY| MemLikelyFree       191444040     188540632     191444040     189992341


 *** Fundamental physical constants (SI units) ***

 *** Literature: B. J. Mohr and B. N. Taylor,
 ***             CODATA recommended values of the fundamental physical
 ***             constants: 2006, Web Version 5.1
 ***             http://physics.nist.gov/constants

 Speed of light in vacuum [m/s]                             2.99792458000000E+08
 Magnetic constant or permeability of vacuum [N/A**2]       1.25663706143592E-06
 Electric constant or permittivity of vacuum [F/m]          8.85418781762039E-12
 Planck constant (h) [J*s]                                  6.62606896000000E-34
 Planck constant (h-bar) [J*s]                              1.05457162825177E-34
 Elementary charge [C]                                      1.60217648700000E-19
 Electron mass [kg]                                         9.10938215000000E-31
 Electron g factor [ ]                                     -2.00231930436220E+00
 Proton mass [kg]                                           1.67262163700000E-27
 Fine-structure constant                                    7.29735253760000E-03
 Rydberg constant [1/m]                                     1.09737315685270E+07
 Avogadro constant [1/mol]                                  6.02214179000000E+23
 Boltzmann constant [J/K]                                   1.38065040000000E-23
 Atomic mass unit [kg]                                      1.66053878200000E-27
 Bohr radius [m]                                            5.29177208590000E-11

 *** Conversion factors ***

 [u] -> [a.u.]                                              1.82288848426455E+03
 [Angstrom] -> [Bohr] = [a.u.]                              1.88972613288564E+00
 [a.u.] = [Bohr] -> [Angstrom]                              5.29177208590000E-01
 [a.u.] -> [s]                                              2.41888432650478E-17
 [a.u.] -> [fs]                                             2.41888432650478E-02
 [a.u.] -> [J]                                              4.35974393937059E-18
 [a.u.] -> [N]                                              8.23872205491840E-08
 [a.u.] -> [K]                                              3.15774647902944E+05
 [a.u.] -> [kJ/mol]                                         2.62549961709828E+03
 [a.u.] -> [kcal/mol]                                       6.27509468713739E+02
 [a.u.] -> [Pa]                                             2.94210107994716E+13
 [a.u.] -> [bar]                                            2.94210107994716E+08
 [a.u.] -> [atm]                                            2.90362800883016E+08
 [a.u.] -> [eV]                                             2.72113838565563E+01
 [a.u.] -> [Hz]                                             6.57968392072181E+15
 [a.u.] -> [1/cm] (wave numbers)                            2.19474631370540E+05
 [a.u./Bohr**2] -> [1/cm]                                   5.14048714338585E+03
 

 CELL_TOP| Volume [angstrom^3]:                                     17614.982639
 CELL_TOP| Vector a [angstrom    16.869     0.000     0.000   |a| =    16.869000
 CELL_TOP| Vector b [angstrom    -8.434    14.609     0.000   |b| =    16.869015
 CELL_TOP| Vector c [angstrom     0.000     0.000    71.478   |c| =    71.478000
 CELL_TOP| Angle (b,c), alpha [degree]:                                90.000000
 CELL_TOP| Angle (a,c), beta  [degree]:                                90.000000
 CELL_TOP| Angle (a,b), gamma [degree]:                               119.999970
 CELL_TOP| Numerically orthorhombic:                                          NO
 
 GENERATE|  Preliminary Number of Bonds generated:                             0
 GENERATE|  Achieved consistency in connectivity generation.

 CELL| Volume [angstrom^3]:                                         17614.982639
 CELL| Vector a [angstrom]:      16.869     0.000     0.000   |a| =    16.869000
 CELL| Vector b [angstrom]:      -8.434    14.609     0.000   |b| =    16.869015
 CELL| Vector c [angstrom]:       0.000     0.000    71.478   |c| =    71.478000
 CELL| Angle (b,c), alpha [degree]:                                    90.000000
 CELL| Angle (a,c), beta  [degree]:                                    90.000000
 CELL| Angle (a,b), gamma [degree]:                                   119.999970
 CELL| Numerically orthorhombic:                                              NO

 CELL_REF| Volume [angstrom^3]:                                     17614.982639
 CELL_REF| Vector a [angstrom    16.869     0.000     0.000   |a| =    16.869000
 CELL_REF| Vector b [angstrom    -8.434    14.609     0.000   |b| =    16.869015
 CELL_REF| Vector c [angstrom     0.000     0.000    71.478   |c| =    71.478000
 CELL_REF| Angle (b,c), alpha [degree]:                                90.000000
 CELL_REF| Angle (a,c), beta  [degree]:                                90.000000
 CELL_REF| Angle (a,b), gamma [degree]:                               119.999970
 CELL_REF| Numerically orthorhombic:                                          NO

 *******************************************************************************
 *******************************************************************************
 **                                                                           **
 **     #####                         ##              ##                      **
 **    ##   ##            ##          ##              ##                      **
 **   ##     ##                       ##            ######                    **
 **   ##     ##  ##   ##  ##   #####  ##  ##   ####   ##    #####    #####    **
 **   ##     ##  ##   ##  ##  ##      ## ##   ##      ##   ##   ##  ##   ##   **
 **   ##  ## ##  ##   ##  ##  ##      ####     ###    ##   ######   ######    **
 **    ##  ###   ##   ##  ##  ##      ## ##      ##   ##   ##       ##        **
 **     #######   #####   ##   #####  ##  ##  ####    ##    #####   ##        **
 **           ##                                                    ##        **
 **                                                                           **
 **                                                ... make the atoms dance   **
 **                                                                           **
 **            Copyright (C) by CP2K developers group (2000-2022)             **
 **                      J. Chem. Phys. 152, 194103 (2020)                    **
 **                                                                           **
 *******************************************************************************

 DFT| Spin restricted Kohn-Sham (RKS) calculation                            RKS
 DFT| Multiplicity                                                             1
 DFT| Number of spin states                                                    1
 DFT| Charge                                                                   0
 DFT| Self-interaction correction (SIC)                                       NO
 DFT| Cutoffs: density                                              1.000000E-10
 DFT|          gradient                                             1.000000E-10
 DFT|          tau                                                  1.000000E-10
 DFT|          cutoff_smoothing_range                               0.000000E+00
 DFT| XC density smoothing                                                  NONE
 DFT| XC derivatives                                                          PW

 FUNCTIONAL| PBE:
 FUNCTIONAL| J.P.Perdew, K.Burke, M.Ernzerhof, Phys. Rev. Letter, vol. 77, n 18,
 FUNCTIONAL|  pp. 3865-3868, (1996){spin unpolarized}                           

 vdW POTENTIAL|                                                   Pair Potential
 vdW POTENTIAL|          DFT-D3 (Version 3.1)
 vdW POTENTIAL|          Potential Form: S. Grimme et al, JCP 132: 154104 (2010)
 vdW POTENTIAL|          Zero Damping
 vdW POTENTIAL|          Cutoff Radius [Bohr]:                             20.00
 vdW POTENTIAL|          s6 Scaling Factor:                               1.0000
 vdW POTENTIAL|          sr6 Scaling Factor:                              1.2170
 vdW POTENTIAL|          s8 Scaling Factor:                               0.7220
 vdW POTENTIAL|          Cutoff for CN calculation:                   0.1000E-05

 QS| Method:                                                                 GPW
 QS| Density plane wave grid type                        NON-SPHERICAL FULLSPACE
 QS| Number of grid levels:                                                    4
 QS| Density cutoff [a.u.]:                                                200.0
 QS| Multi grid cutoff [a.u.]: 1) grid level                               200.0
 QS|                           2) grid level                                66.7
 QS|                           3) grid level                                22.2
 QS|                           4) grid level                                 7.4
 QS| Grid level progression factor:                                          3.0
 QS| Relative density cutoff [a.u.]:                                        20.0
 QS| Interaction thresholds: eps_pgf_orb:                                3.2E-07
 QS|                         eps_filter_matrix:                          0.0E+00
 QS|                         eps_core_charge:                            1.0E-15
 QS|                         eps_rho_gspace:                             1.0E-13
 QS|                         eps_rho_rspace:                             1.0E-13
 QS|                         eps_gvg_rspace:                             3.2E-07
 QS|                         eps_ppl:                                    1.0E-02
 QS|                         eps_ppnl:                                   3.2E-09


 ATOMIC KIND INFORMATION

  1. Atomic kind: O                                     Number of atoms:      73

     Orbital Basis Set                                        DZVP-MOLOPT-SR-GTH

       Number of orbital shell sets:                                           1
       Number of orbital shells:                                               5
       Number of primitive Cartesian functions:                                5
       Number of Cartesian basis functions:                                   14
       Number of spherical basis functions:                                   13
       Norm type:                                                              2

       Normalised Cartesian orbitals:

                        Set   Shell   Orbital            Exponent    Coefficient

                          1       1    2s               10.389228       0.396646
                                                         3.849621       0.208811
                                                         1.388401      -0.301641
                                                         0.496955      -0.274061
                                                         0.162492      -0.033677

                          1       2    3s               10.389228       0.303673
                                                         3.849621       0.240943
                                                         1.388401      -0.313066
                                                         0.496955      -0.043055
                                                         0.162492       0.213991

                          1       3    3px              10.389228      -1.530415
                                                         3.849621      -1.371928
                                                         1.388401      -0.761951
                                                         0.496955      -0.253695
                                                         0.162492      -0.035541
                          1       3    3py              10.389228      -1.530415
                                                         3.849621      -1.371928
                                                         1.388401      -0.761951
                                                         0.496955      -0.253695
                                                         0.162492      -0.035541
                          1       3    3pz              10.389228      -1.530415
                                                         3.849621      -1.371928
                                                         1.388401      -0.761951
                                                         0.496955      -0.253695
                                                         0.162492      -0.035541

                          1       4    4px              10.389228      -0.565392
                                                         3.849621      -0.038231
                                                         1.388401      -0.382373
                                                         0.496955       0.179070
                                                         0.162492       0.122714
                          1       4    4py              10.389228      -0.565392
                                                         3.849621      -0.038231
                                                         1.388401      -0.382373
                                                         0.496955       0.179070
                                                         0.162492       0.122714
                          1       4    4pz              10.389228      -0.565392
                                                         3.849621      -0.038231
                                                         1.388401      -0.382373
                                                         0.496955       0.179070
                                                         0.162492       0.122714

                          1       5    4dx2             10.389228       1.867377
                                                         3.849621       0.670994
                                                         1.388401       1.353441
                                                         0.496955       0.273538
                                                         0.162492       0.006620
                          1       5    4dxy             10.389228       3.234392
                                                         3.849621       1.162195
                                                         1.388401       2.344229
                                                         0.496955       0.473781
                                                         0.162492       0.011466
                          1       5    4dxz             10.389228       3.234392
                                                         3.849621       1.162195
                                                         1.388401       2.344229
                                                         0.496955       0.473781
                                                         0.162492       0.011466
                          1       5    4dy2             10.389228       1.867377
                                                         3.849621       0.670994
                                                         1.388401       1.353441
                                                         0.496955       0.273538
                                                         0.162492       0.006620
                          1       5    4dyz             10.389228       3.234392
                                                         3.849621       1.162195
                                                         1.388401       2.344229
                                                         0.496955       0.473781
                                                         0.162492       0.011466
                          1       5    4dz2             10.389228       1.867377
                                                         3.849621       0.670994
                                                         1.388401       1.353441
                                                         0.496955       0.273538
                                                         0.162492       0.006620

       Atomic covalent radius [Angstrom]:                                  0.730

       Atomic van der Waals radius [Angstrom]:                             1.520

     GTH Potential information for                                    GTH-PBE-q6

       Description:                       Goedecker-Teter-Hutter pseudopotential
                                           Goedecker et al., PRB 54, 1703 (1996)
                                          Hartwigsen et al., PRB 58, 3641 (1998)
                                                      Krack, TCA 114, 145 (2005)

       Gaussian exponent of the core charge distribution:               8.360253
       Electronic configuration (s p d ...):                               2   4

       Parameters of the local part of the GTH pseudopotential:

                          rloc        C1          C2          C3          C4
                        0.244554  -16.667215    2.487311

       Parameters of the non-local part of the GTH pseudopotential:

                   l      r(l)      h(i,j,l)

                   0    0.220956   18.337458
                   1    0.211332

  2. Atomic kind: H                                     Number of atoms:     146

     Orbital Basis Set                                        DZVP-MOLOPT-SR-GTH

       Number of orbital shell sets:                                           1
       Number of orbital shells:                                               3
       Number of primitive Cartesian functions:                                5
       Number of Cartesian basis functions:                                    5
       Number of spherical basis functions:                                    5
       Norm type:                                                              2

       Normalised Cartesian orbitals:

                        Set   Shell   Orbital            Exponent    Coefficient

                          1       1    2s               10.068468      -0.133023
                                                         2.680223      -0.177618
                                                         0.791502      -0.258419
                                                         0.239116      -0.107525
                                                         0.082193      -0.014019

                          1       2    3s               10.068468       0.344673
                                                         2.680223       1.819821
                                                         0.791502      -0.999069
                                                         0.239116       0.017430
                                                         0.082193       0.082660

                          1       3    3px              10.068468       0.155326
                                                         2.680223       0.367157
                                                         0.791502       0.311480
                                                         0.239116       0.080105
                                                         0.082193       0.033440
                          1       3    3py              10.068468       0.155326
                                                         2.680223       0.367157
                                                         0.791502       0.311480
                                                         0.239116       0.080105
                                                         0.082193       0.033440
                          1       3    3pz              10.068468       0.155326
                                                         2.680223       0.367157
                                                         0.791502       0.311480
                                                         0.239116       0.080105
                                                         0.082193       0.033440

       Atomic covalent radius [Angstrom]:                                  0.320

       Atomic van der Waals radius [Angstrom]:                             1.090

     GTH Potential information for                                    GTH-PBE-q1

       Description:                       Goedecker-Teter-Hutter pseudopotential
                                           Goedecker et al., PRB 54, 1703 (1996)
                                          Hartwigsen et al., PRB 58, 3641 (1998)
                                                      Krack, TCA 114, 145 (2005)

       Gaussian exponent of the core charge distribution:              12.500000
       Electronic configuration (s p d ...):                                   1

       Parameters of the local part of the GTH pseudopotential:

                          rloc        C1          C2          C3          C4
                        0.200000   -4.178900    0.724463

  3. Atomic kind: Pt                                    Number of atoms:     216

     Orbital Basis Set                      DZVP-A5-Q10-323-MOL-T1-DERIVED_SET-1

       Number of orbital shell sets:                                           1
       Number of orbital shells:                                               6
       Number of primitive Cartesian functions:                                5
       Number of Cartesian basis functions:                                   23
       Number of spherical basis functions:                                   20
       Norm type:                                                              2

       Normalised Cartesian orbitals:

                        Set   Shell   Orbital            Exponent    Coefficient

                          1       1    2s                2.521825       0.177473
                                                         1.453920      -0.063399
                                                         0.614053      -0.407089
                                                         0.232656       0.262254
                                                         0.074788       0.047371

                          1       2    3s                2.521825      -0.049056
                                                         1.453920       0.044904
                                                         0.614053      -0.009756
                                                         0.232656      -0.144709
                                                         0.074788       0.144085

                          1       3    3px               2.521825      -0.317572
                                                         1.453920       0.534826
                                                         0.614053      -0.489458
                                                         0.232656       0.245631
                                                         0.074788       0.018221
                          1       3    3py               2.521825      -0.317572
                                                         1.453920       0.534826
                                                         0.614053      -0.489458
                                                         0.232656       0.245631
                                                         0.074788       0.018221
                          1       3    3pz               2.521825      -0.317572
                                                         1.453920       0.534826
                                                         0.614053      -0.489458
                                                         0.232656       0.245631
                                                         0.074788       0.018221

                          1       4    4dx2              2.521825       3.008522
                                                         1.453920      -1.224251
                                                         0.614053       0.225691
                                                         0.232656       0.125144
                                                         0.074788      -0.015348
                          1       4    4dxy              2.521825       5.210912
                                                         1.453920      -2.120465
                                                         0.614053       0.390909
                                                         0.232656       0.216756
                                                         0.074788      -0.026584
                          1       4    4dxz              2.521825       5.210912
                                                         1.453920      -2.120465
                                                         0.614053       0.390909
                                                         0.232656       0.216756
                                                         0.074788      -0.026584
                          1       4    4dy2              2.521825       3.008522
                                                         1.453920      -1.224251
                                                         0.614053       0.225691
                                                         0.232656       0.125144
                                                         0.074788      -0.015348
                          1       4    4dyz              2.521825       5.210912
                                                         1.453920      -2.120465
                                                         0.614053       0.390909
                                                         0.232656       0.216756
                                                         0.074788      -0.026584
                          1       4    4dz2              2.521825       3.008522
                                                         1.453920      -1.224251
                                                         0.614053       0.225691
                                                         0.232656       0.125144
                                                         0.074788      -0.015348

                          1       5    5dx2              2.521825       0.698026
                                                         1.453920      -1.511486
                                                         0.614053      -0.335394
                                                         0.232656      -0.025564
                                                         0.074788      -0.002699
                          1       5    5dxy              2.521825       1.209017
                                                         1.453920      -2.617970
                                                         0.614053      -0.580920
                                                         0.232656      -0.044277
                                                         0.074788      -0.004674
                          1       5    5dxz              2.521825       1.209017
                                                         1.453920      -2.617970
                                                         0.614053      -0.580920
                                                         0.232656      -0.044277
                                                         0.074788      -0.004674
                          1       5    5dy2              2.521825       0.698026
                                                         1.453920      -1.511486
                                                         0.614053      -0.335394
                                                         0.232656      -0.025564
                                                         0.074788      -0.002699
                          1       5    5dyz              2.521825       1.209017
                                                         1.453920      -2.617970
                                                         0.614053      -0.580920
                                                         0.232656      -0.044277
                                                         0.074788      -0.004674
                          1       5    5dz2              2.521825       0.698026
                                                         1.453920      -1.511486
                                                         0.614053      -0.335394
                                                         0.232656      -0.025564
                                                         0.074788      -0.002699

                          1       6    6dx2              2.521825       0.831079
                                                         1.453920      -0.709226
                                                         0.614053      -0.137351
                                                         0.232656       0.068642
                                                         0.074788       0.011745
                          1       6    6dxy              2.521825       1.439472
                                                         1.453920      -1.228415
                                                         0.614053      -0.237899
                                                         0.232656       0.118891
                                                         0.074788       0.020343
                          1       6    6dxz              2.521825       1.439472
                                                         1.453920      -1.228415
                                                         0.614053      -0.237899
                                                         0.232656       0.118891
                                                         0.074788       0.020343
                          1       6    6dy2              2.521825       0.831079
                                                         1.453920      -0.709226
                                                         0.614053      -0.137351
                                                         0.232656       0.068642
                                                         0.074788       0.011745
                          1       6    6dyz              2.521825       1.439472
                                                         1.453920      -1.228415
                                                         0.614053      -0.237899
                                                         0.232656       0.118891
                                                         0.074788       0.020343
                          1       6    6dz2              2.521825       0.831079
                                                         1.453920      -0.709226
                                                         0.614053      -0.137351
                                                         0.232656       0.068642
                                                         0.074788       0.011745

       Atomic covalent radius [Angstrom]:                                  1.300

       Atomic van der Waals radius [Angstrom]:                             1.750

     GTH Potential information for                                   GTH-PBE-q10

       Description:                       Goedecker-Teter-Hutter pseudopotential
                                           Goedecker et al., PRB 54, 1703 (1996)
                                          Hartwigsen et al., PRB 58, 3641 (1998)
                                                      Krack, TCA 114, 145 (2005)

       Gaussian exponent of the core charge distribution:               1.317676
       Electronic configuration (s p d ...):                           1   0   9

       Parameters of the local part of the GTH pseudopotential:

                          rloc        C1          C2          C3          C4
                        0.616000   11.313635

       Parameters of the non-local part of the GTH pseudopotential:

                   l      r(l)      h(i,j,l)

                   0    0.550904    4.733491   -1.784594
                                   -1.784594    2.303901
                   1    0.674138    2.534798   -1.778066
                                   -1.778066    2.103836
                   2    0.457392   -7.264011    2.558665
                                    2.558665   -2.901253


 MOLECULE KIND INFORMATION


 All atoms are their own molecule, skipping detailed information


 TOTAL NUMBERS AND MAXIMUM NUMBERS

  Total number of            - Atomic kinds:                                   3
                             - Atoms:                                        435
                             - Shell sets:                                   435
                             - Shells:                                      2099
                             - Primitive Cartesian functions:               2175
                             - Cartesian basis functions:                   6720
                             - Spherical basis functions:                   5999

  Maximum angular momentum of- Orbital basis functions:                        2
                             - Local part of the GTH pseudopotential:          2
                             - Non-local part of the GTH pseudopotential:      4


 MODULE QUICKSTEP:  ATOMIC COORDINATES IN angstrom

 Atom  Kind  Element       X           Y           Z          Z(eff)       Mass
    1   1 O    8      12.680000    1.830000   30.267999       6.0000     15.9994
    2   2 H    1      12.310000    2.760000   30.207999       1.0000      1.0079
    3   2 H    1      13.390001    1.740000   29.647998       1.0000      1.0079
    4   1 O    8       1.950000    1.800000   34.597999       6.0000     15.9994
    5   2 H    1       1.090000    2.030000   34.857999       1.0000      1.0079
    6   2 H    1       2.540000    2.670000   34.617998       1.0000      1.0079
    7   1 O    8      -1.750000   28.860001   30.207999       6.0000     15.9994
    8   2 H    1      -0.930000   28.400002   30.297998       1.0000      1.0079
    9   2 H    1      -1.590000   29.390001   29.417999       1.0000      1.0079
   10   1 O    8      -3.100000   23.000002   29.837999       6.0000     15.9994
   11   2 H    1      -2.770000   22.610001   28.987998       1.0000      1.0079
   12   2 H    1       5.880000    9.190001   30.017998       1.0000      1.0079
   13   1 O    8      19.800001   21.130001   32.587998       6.0000     15.9994
   14   2 H    1      19.230001   20.300003   32.667999       1.0000      1.0079
   15   2 H    1      20.540001   21.000002   33.287999       1.0000      1.0079
   16   1 O    8     -10.630001   18.610001   32.897998       6.0000     15.9994
   17   2 H    1     -11.330000   18.000000   33.047998       1.0000      1.0079
   18   2 H    1     -10.840001   19.540001   33.287999       1.0000      1.0079
   19   1 O    8      11.660000    4.090000   35.007999       6.0000     15.9994
   20   2 H    1       3.810000   19.440001   35.027999       1.0000      1.0079
   21   2 H    1      11.580001    3.760000   34.107999       1.0000      1.0079
   22   1 O    8       5.150001    2.210000   33.397999       6.0000     15.9994
   23   2 H    1       5.410000    1.430000   33.907998       1.0000      1.0079
   24   2 H    1       4.590000    2.900000   33.887999       1.0000      1.0079
   25   1 O    8       2.070000   25.370003   36.197998       6.0000     15.9994
   26   2 H    1       1.390000   24.890001   36.707999       1.0000      1.0079
   27   2 H    1       2.440000   26.110001   36.787999       1.0000      1.0079
   28   1 O    8      11.370001   -5.260000   29.327998       6.0000     15.9994
   29   2 H    1      -4.580000   -5.610001   29.447998       1.0000      1.0079
   30   2 H    1      10.880001   -6.100000   29.537999       1.0000      1.0079
   31   1 O    8       7.780001   14.420000   34.577999       6.0000     15.9994
   32   2 H    1       7.810000   15.370001   34.797999       1.0000      1.0079
   33   2 H    1       6.840000   14.260001   34.257999       1.0000      1.0079
   34   1 O    8     -11.810001  -15.240001   34.298000       6.0000     15.9994
   35   2 H    1     -12.080001  -16.060001   33.757999       1.0000      1.0079
   36   2 H    1     -12.250000  -15.380001   35.127999       1.0000      1.0079
   37   1 O    8      -1.430000    9.470000   29.997999       6.0000     15.9994
   38   2 H    1      -2.040000   10.270000   30.137999       1.0000      1.0079
   39   2 H    1      -0.530000    9.890000   29.847999       1.0000      1.0079
   40   1 O    8      -2.100000   24.710003   36.147998       6.0000     15.9994
   41   2 H    1      -2.920000   24.230001   36.407998       1.0000      1.0079
   42   2 H    1      -1.430000   24.240000   36.697999       1.0000      1.0079
   43   1 O    8       1.480000   15.330001   32.927999       6.0000     15.9994
   44   2 H    1       0.910000   15.840001   32.207998       1.0000      1.0079
   45   2 H    1       2.310000   15.850000   33.047998       1.0000      1.0079
   46   1 O    8       1.210000   -1.400000   30.217999       6.0000     15.9994
   47   2 H    1       1.670000   -1.320000   29.367998       1.0000      1.0079
   48   2 H    1       1.710000   -0.880000   30.917999       1.0000      1.0079
   49   1 O    8       1.150000   12.340001   34.207999       6.0000     15.9994
   50   2 H    1       1.550000   13.060001   33.767998       1.0000      1.0079
   51   2 H    1       0.170000   12.350000   33.807999       1.0000      1.0079
   52   1 O    8       7.060000   -1.790000   33.387998       6.0000     15.9994
   53   2 H    1       6.660000   -1.100000   34.027998       1.0000      1.0079
   54   2 H    1       6.590000   -2.600000   33.407998       1.0000      1.0079
   55   1 O    8       4.860000   11.960001   32.657998       6.0000     15.9994
   56   2 H    1       5.710001   11.360001   32.777998       1.0000      1.0079
   57   2 H    1       4.680000   11.980001   31.717999       1.0000      1.0079
   58   1 O    8      10.870000   16.880001   30.077998       6.0000     15.9994
   59   2 H    1      11.860001   16.790001   30.237998       1.0000      1.0079
   60   2 H    1      10.690001   16.390001   29.297999       1.0000      1.0079
   61   1 O    8      24.220001   -7.810000   29.327998       6.0000     15.9994
   62   2 H    1      15.350000    7.790000   29.587999       1.0000      1.0079
   63   2 H    1      25.140001   -7.720000   29.687998       1.0000      1.0079
   64   1 O    8       9.010000    1.460000   35.227998       6.0000     15.9994
   65   2 H    1       9.380000    1.240000   34.317999       1.0000      1.0079
   66   2 H    1       8.950001    2.430000   35.277998       1.0000      1.0079
   67   1 O    8      -1.210000   31.530001   29.257999       6.0000     15.9994
   68   2 H    1      -1.780000   32.290001   29.517998       1.0000      1.0079
   69   2 H    1      16.430000   31.460001   29.857998       1.0000      1.0079
   70   1 O    8      -1.780000   -4.130000   30.147998       6.0000     15.9994
   71   2 H    1      -1.830000   -3.670000   29.267998       1.0000      1.0079
   72   2 H    1      -0.860000   -4.400000   30.407998       1.0000      1.0079
   73   1 O    8      -5.160000    9.200000   29.587999       6.0000     15.9994
   74   2 H    1      -5.000000    8.240001   29.517998       1.0000      1.0079
   75   2 H    1      -6.070001    9.200000   29.977998       1.0000      1.0079
   76   1 O    8       7.320001    8.230000   32.507999       6.0000     15.9994
   77   2 H    1       7.530000    9.120001   32.937999       1.0000      1.0079
   78   2 H    1       6.330000    8.330001   32.567998       1.0000      1.0079
   79   1 O    8      -1.410000   -4.040000   33.457998       6.0000     15.9994
   80   2 H    1      -1.570000   -4.250000   34.377998       1.0000      1.0079
   81   2 H    1       7.780001   11.190001   33.507998       1.0000      1.0079
   82   1 O    8       4.770000    7.080000   33.087999       6.0000     15.9994
   83   2 H    1       4.930000    6.380000   32.407999       1.0000      1.0079
   84   2 H    1       3.800000    7.370000   32.877999       1.0000      1.0079
   85   1 O    8       2.940000   10.400001   33.847999       6.0000     15.9994
   86   2 H    1     -13.170000   10.990001   33.547999       1.0000      1.0079
   87   2 H    1       2.140000   10.980000   33.907998       1.0000      1.0079
   88   1 O    8      -6.310000    9.280001   33.237998       6.0000     15.9994
   89   2 H    1      -5.430000    9.570000   33.467999       1.0000      1.0079
   90   2 H    1      -6.030001    8.360001   32.957999       1.0000      1.0079
   91   1 O    8      11.710000   11.900001   32.747999       6.0000     15.9994
   92   2 H    1      10.730000   11.890000   33.217999       1.0000      1.0079
   93   2 H    1      11.900001   12.840000   32.747999       1.0000      1.0079
   94   1 O    8     -14.360001    8.160001   32.747999       6.0000     15.9994
   95   2 H    1     -14.180001    9.170000   32.867999       1.0000      1.0079
   96   2 H    1     -15.200001    8.010000   33.207999       1.0000      1.0079
   97   1 O    8       5.280000   -8.340000   33.827998       6.0000     15.9994
   98   2 H    1       5.550000   -8.070001   34.757999       1.0000      1.0079
   99   2 H    1       5.670000   -7.590001   33.327999       1.0000      1.0079
  100   1 O    8       3.800000    9.350000   36.027999       6.0000     15.9994
  101   2 H    1       3.410000    8.420001   35.927999       1.0000      1.0079
  102   2 H    1       3.410000    9.860001   35.247999       1.0000      1.0079
  103   1 O    8       2.600000   18.700001   30.257998       6.0000     15.9994
  104   2 H    1       3.260000   19.410002   29.957999       1.0000      1.0079
  105   2 H    1       1.990000   18.730001   29.477999       1.0000      1.0079
  106   1 O    8      12.670001   31.000002   33.127998       6.0000     15.9994
  107   2 H    1      13.050001   30.250000   33.627999       1.0000      1.0079
  108   2 H    1      12.780001   30.760002   32.177999       1.0000      1.0079
  109   1 O    8       9.320001   11.990000   34.077998       6.0000     15.9994
  110   2 H    1       9.100000   12.910000   34.357998       1.0000      1.0079
  111   2 H    1       9.580001   11.420001   34.907999       1.0000      1.0079
  112   1 O    8       6.250000   23.280001   32.877999       6.0000     15.9994
  113   2 H    1       5.790000   24.030001   33.297999       1.0000      1.0079
  114   2 H    1       6.310000   23.470001   31.877998       1.0000      1.0079
  115   1 O    8      -3.100000   10.840001   34.307998       6.0000     15.9994
  116   2 H    1      -3.970000   11.300000   34.117999       1.0000      1.0079
  117   2 H    1      -3.070000   10.650001   35.277998       1.0000      1.0079
  118   1 O    8      -1.700000   17.280001   29.147998       6.0000     15.9994
  119   2 H    1      -2.500000   16.860001   29.497999       1.0000      1.0079
  120   2 H    1      -0.940000   16.820000   29.757999       1.0000      1.0079
  121   1 O    8      -0.830000   20.980000   34.607998       6.0000     15.9994
  122   2 H    1      -0.850000   21.840000   34.087999       1.0000      1.0079
  123   2 H    1      -0.980000   20.210001   34.017998       1.0000      1.0079
  124   1 O    8      -2.570000    4.650001   30.197998       6.0000     15.9994
  125   2 H    1      -1.900000    5.280000   29.707999       1.0000      1.0079
  126   2 H    1      -2.370000    4.590000   31.177999       1.0000      1.0079
  127   1 O    8      -0.180000   19.530001   29.367998       6.0000     15.9994
  128   2 H    1      -1.110000   19.510000   29.277998       1.0000      1.0079
  129   2 H    1      -0.040000   20.510002   29.547999       1.0000      1.0079
  130   1 O    8      26.400002   34.470001   36.037999       6.0000     15.9994
  131   2 H    1      25.940001   35.040001   35.367999       1.0000      1.0079
  132   2 H    1      27.210003   34.020000   35.617999       1.0000      1.0079
  133   1 O    8      20.240002    4.060000   34.177999       6.0000     15.9994
  134   2 H    1      19.460001    4.580000   33.837999       1.0000      1.0079
  135   2 H    1      20.580002    4.540000   34.997999       1.0000      1.0079
  136   1 O    8      -8.130000   17.270000   31.707999       6.0000     15.9994
  137   2 H    1      -7.320001   17.210001   31.177999       1.0000      1.0079
  138   2 H    1      -8.410000   16.390001   31.987998       1.0000      1.0079
  139   1 O    8      31.510002   43.920002   34.887998       6.0000     15.9994
  140   2 H    1      32.110001   44.050003   35.647999       1.0000      1.0079
  141   2 H    1      30.630001   43.720001   35.357999       1.0000      1.0079
  142   1 O    8      22.390001    5.760000   30.827998       6.0000     15.9994
  143   2 H    1      22.390001    6.700000   30.537999       1.0000      1.0079
  144   2 H    1      21.500000    5.320000   30.627998       1.0000      1.0079
  145   1 O    8      -4.650001   14.720001   35.767999       6.0000     15.9994
  146   2 H    1      -5.360000   15.340000   35.447998       1.0000      1.0079
  147   2 H    1      -5.070000   13.990001   36.347999       1.0000      1.0079
  148   1 O    8     -16.020000   11.280001   29.967998       6.0000     15.9994
  149   2 H    1     -15.470000   11.400002   29.097998       1.0000      1.0079
  150   2 H    1     -16.570000   12.080001   30.047999       1.0000      1.0079
  151   1 O    8      -7.510000   10.270000   30.867998       6.0000     15.9994
  152   2 H    1      -7.250000   10.190001   31.777998       1.0000      1.0079
  153   2 H    1       9.630001   11.180000   30.567998       1.0000      1.0079
  154   1 O    8       4.740000   -1.070000   30.107998       6.0000     15.9994
  155   2 H    1       4.710000   -2.150000   30.167999       1.0000      1.0079
  156   2 H    1       4.720000   -0.880000   29.117998       1.0000      1.0079
  157   1 O    8      13.160001   11.010000   30.727999       6.0000     15.9994
  158   2 H    1      12.770000   11.170001   31.587999       1.0000      1.0079
  159   2 H    1      12.560000   10.240001   30.367998       1.0000      1.0079
  160   1 O    8     -11.970000   30.760002   30.757999       6.0000     15.9994
  161   2 H    1     -11.800001   31.030003   31.697998       1.0000      1.0079
  162   2 H    1     -12.120000   29.810001   30.767999       1.0000      1.0079
  163   1 O    8      15.550001   18.560001   32.987998       6.0000     15.9994
  164   2 H    1      14.860001   17.940001   33.397999       1.0000      1.0079
  165   2 H    1      15.110001   18.960001   32.177999       1.0000      1.0079
  166   1 O    8      18.320002    7.250000   30.137999       6.0000     15.9994
  167   2 H    1      18.760000    6.390000   30.047999       1.0000      1.0079
  168   2 H    1      18.440001    7.450001   31.097999       1.0000      1.0079
  169   1 O    8      15.430001   -1.730000   36.707999       6.0000     15.9994
  170   2 H    1      15.610001   -1.270000   35.857998       1.0000      1.0079
  171   2 H    1      15.160000   -2.710000   36.387999       1.0000      1.0079
  172   1 O    8      -8.780001   22.900002   36.617999       6.0000     15.9994
  173   2 H    1      -9.660000   22.540001   36.577998       1.0000      1.0079
  174   2 H    1      -8.920000   23.830002   36.947999       1.0000      1.0079
  175   1 O    8       2.600000   29.300001   32.477999       6.0000     15.9994
  176   2 H    1       3.230000   29.990002   32.187998       1.0000      1.0079
  177   2 H    1       2.060000   29.750002   33.167999       1.0000      1.0079
  178   1 O    8      32.830002   13.590001   30.737998       6.0000     15.9994
  179   2 H    1      32.020000   13.690001   30.177999       1.0000      1.0079
  180   2 H    1      32.530003   13.240002   31.607999       1.0000      1.0079
  181   1 O    8      -6.780000   33.260002   32.737999       6.0000     15.9994
  182   2 H    1      -7.780001   33.190002   32.917999       1.0000      1.0079
  183   2 H    1      -6.610000   33.200001   31.797998       1.0000      1.0079
  184   1 O    8      12.530001    6.820001   30.067998       6.0000     15.9994
  185   2 H    1      13.200001    6.110000   29.917999       1.0000      1.0079
  186   2 H    1      12.130001    6.600000   30.937998       1.0000      1.0079
  187   1 O    8      -9.020000   17.030001   34.897998       6.0000     15.9994
  188   2 H    1      -9.610001   17.440001   34.207999       1.0000      1.0079
  189   2 H    1      -9.110001   17.630001   35.667999       1.0000      1.0079
  190   1 O    8      -8.190001   22.530001   33.877999       6.0000     15.9994
  191   2 H    1      -9.100000   22.810001   33.557998       1.0000      1.0079
  192   2 H    1      -8.230000   22.700003   34.817998       1.0000      1.0079
  193   1 O    8       8.580000    1.280000   30.447998       6.0000     15.9994
  194   2 H    1       8.280001    0.330000   30.577998       1.0000      1.0079
  195   2 H    1       9.480001    1.120000   30.067998       1.0000      1.0079
  196   1 O    8       3.970000    6.450000   35.727999       6.0000     15.9994
  197   2 H    1      12.770000   -8.060000   34.797999       1.0000      1.0079
  198   2 H    1       4.800000    6.410000   36.267998       1.0000      1.0079
  199   1 O    8      17.200001   22.050001   30.277998       6.0000     15.9994
  200   2 H    1      16.910002   22.780001   29.727998       1.0000      1.0079
  201   2 H    1      16.650002   22.310001   31.117998       1.0000      1.0079
  202   1 O    8      -2.750000    7.100000   36.447998       6.0000     15.9994
  203   2 H    1      -2.560000    6.250000   36.867999       1.0000      1.0079
  204   2 H    1      -3.490000    7.450001   37.037999       1.0000      1.0079
  205   1 O    8      17.960001   34.060001   33.077998       6.0000     15.9994
  206   2 H    1      17.480000   33.320004   32.597999       1.0000      1.0079
  207   2 H    1      17.430000   34.800003   33.567998       1.0000      1.0079
  208   1 O    8       4.400000   13.740001   36.997999       6.0000     15.9994
  209   2 H    1       3.850000   12.920000   37.237998       1.0000      1.0079
  210   2 H    1       5.400000   13.510000   36.917999       1.0000      1.0079
  211   1 O    8       2.660000   14.490002   29.357998       6.0000     15.9994
  212   2 H    1       3.140000   13.680000   29.767999       1.0000      1.0079
  213   2 H    1       3.210000   15.280001   29.587999       1.0000      1.0079
  214   1 O    8      21.320002   12.640000   30.117998       6.0000     15.9994
  215   2 H    1      21.360001   12.400000   29.187998       1.0000      1.0079
  216   2 H    1      22.220001   13.110001   30.167999       1.0000      1.0079
  217   1 O    8     -13.950001    5.030000   29.977998       6.0000     15.9994
  218   2 H    1     -14.170000    4.200000   30.487998       1.0000      1.0079
  219   2 H    1       3.020000    4.680000   29.027998       1.0000      1.0079
  220   3 Pt  78       1.460000    0.900000   15.209999      10.0000    195.0840
  221   3 Pt  78       4.420000    0.860000   15.180000      10.0000    195.0840
  222   3 Pt  78       7.270000    0.780000   15.389999      10.0000    195.0840
  223   3 Pt  78      10.070001    0.670000   15.520000      10.0000    195.0840
  224   3 Pt  78      12.840000    0.930000   15.359997      10.0000    195.0840
  225   3 Pt  78      15.560001    0.810000   15.369999      10.0000    195.0840
  226   3 Pt  78       2.920000    3.140000   15.170002      10.0000    195.0840
  227   3 Pt  78       5.690000    3.270000   15.369999      10.0000    195.0840
  228   3 Pt  78       8.610001    3.100000   15.310001      10.0000    195.0840
  229   3 Pt  78      11.380000    3.320000   15.320000      10.0000    195.0840
  230   3 Pt  78      14.200001    3.340000   15.430000      10.0000    195.0840
  231   3 Pt  78       0.150000    3.270000   15.200001      10.0000    195.0840
  232   3 Pt  78       4.300000    5.720000   15.119999      10.0000    195.0840
  233   3 Pt  78       7.180000    5.670000   15.250000      10.0000    195.0840
  234   3 Pt  78       9.970000    5.550000   15.279999      10.0000    195.0840
  235   3 Pt  78      12.780001    5.690000   15.189999      10.0000    195.0840
  236   3 Pt  78      -1.190000    5.740000   15.310001      10.0000    195.0840
  237   3 Pt  78       1.640000    5.620000   15.129997      10.0000    195.0840
  238   3 Pt  78       5.810000    8.190001   15.270000      10.0000    195.0840
  239   3 Pt  78       8.630000    8.000000   15.230000      10.0000    195.0840
  240   3 Pt  78      11.450001    8.050001   15.139999      10.0000    195.0840
  241   3 Pt  78      -2.590000    8.170000   15.279999      10.0000    195.0840
  242   3 Pt  78       0.330000    8.000000   15.389999      10.0000    195.0840
  243   3 Pt  78       2.910000    8.060000   15.189999      10.0000    195.0840
  244   3 Pt  78       7.260000   10.620001   15.200001      10.0000    195.0840
  245   3 Pt  78      10.060000   10.480001   15.000000      10.0000    195.0840
  246   3 Pt  78      -4.060000   10.620001   15.020000      10.0000    195.0840
  247   3 Pt  78      -1.160000   10.550001   15.160000      10.0000    195.0840
  248   3 Pt  78       1.660000   10.450001   15.279999      10.0000    195.0840
  249   3 Pt  78       4.580000   10.660001   15.279999      10.0000    195.0840
  250   3 Pt  78       8.470000   13.050001   15.170002      10.0000    195.0840
  251   3 Pt  78      -5.530000   13.080001   15.200001      10.0000    195.0840
  252   3 Pt  78      -2.550000   12.910000   15.270000      10.0000    195.0840
  253   3 Pt  78       0.140000   12.990000   15.380001      10.0000    195.0840
  254   3 Pt  78       2.970000   12.880001   15.320000      10.0000    195.0840
  255   3 Pt  78       5.810000   13.100000   15.320000      10.0000    195.0840
  256   3 Pt  78       0.210000    1.610000   17.570000      10.0000    195.0840
  257   3 Pt  78       3.040000    1.650000   17.559998      10.0000    195.0840
  258   3 Pt  78       5.850000    1.550000   17.700001      10.0000    195.0840
  259   3 Pt  78       8.670000    1.500000   17.700001      10.0000    195.0840
  260   3 Pt  78      11.420001    1.610000   17.719997      10.0000    195.0840
  261   3 Pt  78      14.370001    1.590000   17.709999      10.0000    195.0840
  262   3 Pt  78       1.570000    4.180000   17.639999      10.0000    195.0840
  263   3 Pt  78       4.410000    4.060000   17.529999      10.0000    195.0840
  264   3 Pt  78       7.190001    3.960000   17.639999      10.0000    195.0840
  265   3 Pt  78       9.970000    4.030000   17.579998      10.0000    195.0840
  266   3 Pt  78      12.820001    4.040000   17.849998      10.0000    195.0840
  267   3 Pt  78      -1.250000    4.020000   17.649998      10.0000    195.0840
  268   3 Pt  78       3.010000    6.490001   17.450001      10.0000    195.0840
  269   3 Pt  78       5.800000    6.370000   17.610001      10.0000    195.0840
  270   3 Pt  78       8.580000    6.350000   17.629997      10.0000    195.0840
  271   3 Pt  78      11.430000    6.490001   17.590000      10.0000    195.0840
  272   3 Pt  78      -2.640000    6.450000   17.549999      10.0000    195.0840
  273   3 Pt  78       0.160000    6.420000   17.700001      10.0000    195.0840
  274   3 Pt  78       4.430000    8.900001   17.639999      10.0000    195.0840
  275   3 Pt  78       7.230001    8.870000   17.520000      10.0000    195.0840
  276   3 Pt  78       9.980000    8.870000   17.549999      10.0000    195.0840
  277   3 Pt  78      -4.070000    8.920000   17.470001      10.0000    195.0840
  278   3 Pt  78      -1.210000    8.880001   17.639999      10.0000    195.0840
  279   3 Pt  78       1.690000    8.870000   17.649998      10.0000    195.0840
  280   3 Pt  78       5.840001   11.360001   17.619999      10.0000    195.0840
  281   3 Pt  78       8.590000   11.300000   17.439999      10.0000    195.0840
  282   3 Pt  78      -5.500000   11.290001   17.430000      10.0000    195.0840
  283   3 Pt  78      -2.850000   11.330000   17.529999      10.0000    195.0840
  284   3 Pt  78       0.170000   11.310000   17.610001      10.0000    195.0840
  285   3 Pt  78       3.060000   11.320001   17.610001      10.0000    195.0840
  286   3 Pt  78       7.160000   13.710001   17.680000      10.0000    195.0840
  287   3 Pt  78      -6.900001   13.770000   17.430000      10.0000    195.0840
  288   3 Pt  78      -4.080000   13.740001   17.489998      10.0000    195.0840
  289   3 Pt  78      -1.330000   13.670001   17.700001      10.0000    195.0840
  290   3 Pt  78       1.590000   13.630000   17.680000      10.0000    195.0840
  291   3 Pt  78       4.410000   13.790001   17.610001      10.0000    195.0840
  292   3 Pt  78      -8.200001   14.500000   19.869999      10.0000    195.0840
  293   3 Pt  78      -5.430000   14.470000   19.759998      10.0000    195.0840
  294   3 Pt  78      -2.650000   14.480001   19.939999      10.0000    195.0840
  295   3 Pt  78       0.140000   14.490002   19.959999      10.0000    195.0840
  296   3 Pt  78       2.950000   14.530001   19.950001      10.0000    195.0840
  297   3 Pt  78       5.840001   14.530001   19.990002      10.0000    195.0840
  298   3 Pt  78       1.610000    2.380000   19.880001      10.0000    195.0840
  299   3 Pt  78       4.380000    2.350000   19.910000      10.0000    195.0840
  300   3 Pt  78       7.260000    2.280000   20.009998      10.0000    195.0840
  301   3 Pt  78      10.010000    2.220000   20.009998      10.0000    195.0840
  302   3 Pt  78      12.870001    2.310000   20.020000      10.0000    195.0840
  303   3 Pt  78      -1.220000    2.320000   19.959999      10.0000    195.0840
  304   3 Pt  78       3.100000    4.820000   19.840000      10.0000    195.0840
  305   3 Pt  78       5.860000    4.780000   19.920002      10.0000    195.0840
  306   3 Pt  78       8.680000    4.800000   19.950001      10.0000    195.0840
  307   3 Pt  78      11.410000    4.800000   19.980000      10.0000    195.0840
  308   3 Pt  78      -2.630000    4.780000   19.959999      10.0000    195.0840
  309   3 Pt  78       0.250000    4.690000   19.899998      10.0000    195.0840
  310   3 Pt  78       4.430000    7.340000   19.939999      10.0000    195.0840
  311   3 Pt  78       7.220001    7.230001   19.950001      10.0000    195.0840
  312   3 Pt  78      10.030001    7.270000   19.910000      10.0000    195.0840
  313   3 Pt  78      -4.070000    7.260000   19.850002      10.0000    195.0840
  314   3 Pt  78      -1.180000    7.170000   19.969997      10.0000    195.0840
  315   3 Pt  78       1.600000    7.130001   19.920002      10.0000    195.0840
  316   3 Pt  78       5.770000    9.720000   19.920002      10.0000    195.0840
  317   3 Pt  78       8.590000    9.640000   19.820000      10.0000    195.0840
  318   3 Pt  78      -5.390000    9.660000   19.790001      10.0000    195.0840
  319   3 Pt  78      -2.650000    9.580001   19.850002      10.0000    195.0840
  320   3 Pt  78       0.260000    9.500000   20.050003      10.0000    195.0840
  321   3 Pt  78       2.980000    9.710001   19.990002      10.0000    195.0840
  322   3 Pt  78       7.230001   12.100000   19.889999      10.0000    195.0840
  323   3 Pt  78      -6.900001   12.090001   19.720001      10.0000    195.0840
  324   3 Pt  78      -4.010000   12.150001   19.880001      10.0000    195.0840
  325   3 Pt  78      -1.240000   11.980001   19.899998      10.0000    195.0840
  326   3 Pt  78       1.560000   12.090001   19.969997      10.0000    195.0840
  327   3 Pt  78       4.320000   12.200001   19.959999      10.0000    195.0840
  328   3 Pt  78       1.570000    0.680000   22.107998      10.0000    195.0840
  329   3 Pt  78       4.400000    0.650000   22.117998      10.0000    195.0840
  330   3 Pt  78       7.180000    0.690000   22.177998      10.0000    195.0840
  331   3 Pt  78       9.940001    0.680000   22.337998      10.0000    195.0840
  332   3 Pt  78      12.760000    0.630000   22.267998      10.0000    195.0840
  333   3 Pt  78      15.530001    0.650000   22.267998      10.0000    195.0840
  334   3 Pt  78       2.990000    3.060000   22.177998      10.0000    195.0840
  335   3 Pt  78       5.790000    3.140000   22.297998      10.0000    195.0840
  336   3 Pt  78       8.550000    3.220000   22.257998      10.0000    195.0840
  337   3 Pt  78      11.350001    3.100000   22.247998      10.0000    195.0840
  338   3 Pt  78      14.200001    3.080000   22.297998      10.0000    195.0840
  339   3 Pt  78       0.160000    3.070000   22.247998      10.0000    195.0840
  340   3 Pt  78       4.350000    5.610001   22.197998      10.0000    195.0840
  341   3 Pt  78       7.180000    5.650000   22.257998      10.0000    195.0840
  342   3 Pt  78       9.980000    5.620000   22.297998      10.0000    195.0840
  343   3 Pt  78      12.750001    5.490000   22.207998      10.0000    195.0840
  344   3 Pt  78      -1.210000    5.520000   22.157998      10.0000    195.0840
  345   3 Pt  78       1.600000    5.460000   22.177998      10.0000    195.0840
  346   3 Pt  78       5.760000    8.040000   22.277998      10.0000    195.0840
  347   3 Pt  78       8.610001    8.150001   22.257998      10.0000    195.0840
  348   3 Pt  78      11.360001    8.000000   22.187998      10.0000    195.0840
  349   3 Pt  78      -2.680000    7.930000   22.207998      10.0000    195.0840
  350   3 Pt  78       0.180000    7.900000   22.277998      10.0000    195.0840
  351   3 Pt  78       2.920000    8.020000   22.257998      10.0000    195.0840
  352   3 Pt  78       7.140000   10.540000   22.147998      10.0000    195.0840
  353   3 Pt  78       9.990001   10.490000   22.087998      10.0000    195.0840
  354   3 Pt  78      -4.000000   10.440001   22.137998      10.0000    195.0840
  355   3 Pt  78      -1.240000   10.370001   22.267998      10.0000    195.0840
  356   3 Pt  78       1.480000   10.460000   22.337998      10.0000    195.0840
  357   3 Pt  78       4.310000   10.470000   22.197998      10.0000    195.0840
  358   3 Pt  78       8.540000   12.930001   22.217998      10.0000    195.0840
  359   3 Pt  78      -5.510000   12.820001   22.027998      10.0000    195.0840
  360   3 Pt  78      -2.650000   12.850000   22.277998      10.0000    195.0840
  361   3 Pt  78       0.070000   12.790001   22.307998      10.0000    195.0840
  362   3 Pt  78       2.830000   12.870001   22.317998      10.0000    195.0840
  363   3 Pt  78       5.730000   12.870001   22.247998      10.0000    195.0840
  364   3 Pt  78       0.150000    1.390000   24.537998      10.0000    195.0840
  365   3 Pt  78       3.000000    1.530000   24.437998      10.0000    195.0840
  366   3 Pt  78       5.700001    1.590000   24.597998      10.0000    195.0840
  367   3 Pt  78       8.520000    1.680000   24.627998      10.0000    195.0840
  368   3 Pt  78      11.260000    1.510000   24.617998      10.0000    195.0840
  369   3 Pt  78      14.010000    1.540000   24.547998      10.0000    195.0840
  370   3 Pt  78       1.460000    3.850000   24.497998      10.0000    195.0840
  371   3 Pt  78       4.300000    3.950000   24.477998      10.0000    195.0840
  372   3 Pt  78       7.040000    4.010000   24.567998      10.0000    195.0840
  373   3 Pt  78       9.870001    3.990000   24.657998      10.0000    195.0840
  374   3 Pt  78      12.640000    3.950000   24.567998      10.0000    195.0840
  375   3 Pt  78      -1.320000    4.020000   24.477998      10.0000    195.0840
  376   3 Pt  78       2.830000    6.300001   24.457998      10.0000    195.0840
  377   3 Pt  78       5.650000    6.420000   24.587998      10.0000    195.0840
  378   3 Pt  78       8.480000    6.490001   24.527998      10.0000    195.0840
  379   3 Pt  78      11.250000    6.420000   24.597998      10.0000    195.0840
  380   3 Pt  78      -2.740000    6.360001   24.557998      10.0000    195.0840
  381   3 Pt  78       0.140000    6.310000   24.467998      10.0000    195.0840
  382   3 Pt  78       4.290000    8.890000   24.457998      10.0000    195.0840
  383   3 Pt  78       7.230001    8.830000   24.467998      10.0000    195.0840
  384   3 Pt  78      10.080000    8.890000   24.547998      10.0000    195.0840
  385   3 Pt  78      -4.100000    8.870000   24.507998      10.0000    195.0840
  386   3 Pt  78      -1.340000    8.720000   24.537998      10.0000    195.0840
  387   3 Pt  78       1.490000    8.790001   24.607998      10.0000    195.0840
  388   3 Pt  78       5.730000   11.220001   24.557998      10.0000    195.0840
  389   3 Pt  78       8.660001   11.250000   24.497998      10.0000    195.0840
  390   3 Pt  78      -5.510000   11.230000   24.487998      10.0000    195.0840
  391   3 Pt  78      -2.670000   11.270000   24.517998      10.0000    195.0840
  392   3 Pt  78       0.150000   11.200000   24.767998      10.0000    195.0840
  393   3 Pt  78       2.950000   11.230000   24.577998      10.0000    195.0840
  394   3 Pt  78       7.090001   13.650000   24.677998      10.0000    195.0840
  395   3 Pt  78      -6.820001   13.690001   24.467998      10.0000    195.0840
  396   3 Pt  78      -4.060000   13.760000   24.477998      10.0000    195.0840
  397   3 Pt  78      -1.370000   13.690001   24.517998      10.0000    195.0840
  398   3 Pt  78       1.590000   13.750001   24.697998      10.0000    195.0840
  399   3 Pt  78       4.360000   13.600000   24.657998      10.0000    195.0840
  400   3 Pt  78      -8.340000   14.530001   26.897999      10.0000    195.0840
  401   3 Pt  78      -5.590000   14.480001   26.967998      10.0000    195.0840
  402   3 Pt  78      -2.770000   14.530001   26.717998      10.0000    195.0840
  403   3 Pt  78       0.020000   14.670001   27.147998      10.0000    195.0840
  404   3 Pt  78       2.920000   14.610001   27.047998      10.0000    195.0840
  405   3 Pt  78       5.760000   14.550000   26.867998      10.0000    195.0840
  406   3 Pt  78       1.410000    2.330000   26.897999      10.0000    195.0840
  407   3 Pt  78       4.190001    2.410000   26.887998      10.0000    195.0840
  408   3 Pt  78       6.900001    2.470000   26.977998      10.0000    195.0840
  409   3 Pt  78       9.920000    2.460000   26.927998      10.0000    195.0840
  410   3 Pt  78      12.820001    2.380000   26.867998      10.0000    195.0840
  411   3 Pt  78      -1.340000    2.310000   26.837998      10.0000    195.0840
  412   3 Pt  78       2.870000    4.770000   26.797998      10.0000    195.0840
  413   3 Pt  78       5.650000    4.840000   26.947998      10.0000    195.0840
  414   3 Pt  78       8.500000    4.770000   26.877998      10.0000    195.0840
  415   3 Pt  78      11.300000    4.810000   26.987998      10.0000    195.0840
  416   3 Pt  78      -2.770000    4.720000   26.817998      10.0000    195.0840
  417   3 Pt  78       0.050000    4.770000   26.837998      10.0000    195.0840
  418   3 Pt  78       4.200000    7.120000   26.827998      10.0000    195.0840
  419   3 Pt  78       7.040000    7.180000   26.887998      10.0000    195.0840
  420   3 Pt  78       9.870001    7.210000   26.947998      10.0000    195.0840
  421   3 Pt  78      -4.250000    7.200000   26.907998      10.0000    195.0840
  422   3 Pt  78      -1.440000    7.270000   26.977998      10.0000    195.0840
  423   3 Pt  78       1.410000    7.120000   26.887998      10.0000    195.0840
  424   3 Pt  78       5.650000    9.520000   26.737998      10.0000    195.0840
  425   3 Pt  78       8.560000    9.630001   26.907998      10.0000    195.0840
  426   3 Pt  78      -5.570001    9.640000   26.967998      10.0000    195.0840
  427   3 Pt  78      -2.810000    9.860001   26.857998      10.0000    195.0840
  428   3 Pt  78      -0.030000    9.670001   27.057998      10.0000    195.0840
  429   3 Pt  78       2.760000    9.500000   27.067998      10.0000    195.0840
  430   3 Pt  78       7.070000   11.980001   27.097998      10.0000    195.0840
  431   3 Pt  78      -7.030000   12.090001   26.857998      10.0000    195.0840
  432   3 Pt  78      -4.250000   12.180000   26.817998      10.0000    195.0840
  433   3 Pt  78      -1.260000   12.190001   26.867998      10.0000    195.0840
  434   3 Pt  78       1.500000   12.100000   26.997999      10.0000    195.0840
  435   3 Pt  78       4.190001   11.980001   27.067998      10.0000    195.0840




 SCF PARAMETERS         Density guess:                                   RESTART
                        --------------------------------------------------------
                        max_scf:                                             500
                        max_scf_history:                                       0
                        max_diis:                                              4
                        --------------------------------------------------------
                        eps_scf:                                        1.00E-04
                        eps_scf_history:                                0.00E+00
                        eps_diis:                                       1.00E-01
                        eps_eigval:                                     1.00E-05
                        --------------------------------------------------------
                        level_shift [a.u.]:                             0.000000
                        added MOs                                       500    0
                        --------------------------------------------------------
                        Mixing method:                            BROYDEN_MIXING
                                                charge density mixing in g-space
                        --------------------------------------------------------
                        Smear method:                                FERMI_DIRAC
                        Electronic temperature [K]:                        300.0
                        Electronic temperature [a.u.]:                  9.50E-04
                        Accuracy threshold:                             1.00E-10
                        --------------------------------------------------------
                        No outer SCF

 PW_GRID| Information for grid number                                          1
 PW_GRID| Grid distributed over                                   128 processors
 PW_GRID| Real space group dimensions                                   128    1
 PW_GRID| the grid is blocked:                                                NO
 PW_GRID| Cutoff [a.u.]                                                    200.0
 PW_GRID| spherical cutoff:                                                   NO
 PW_GRID|   Bounds   1           -105     104                Points:         210
 PW_GRID|   Bounds   2           -105     104                Points:         210
 PW_GRID|   Bounds   3           -432     431                Points:         864
 PW_GRID| Volume element (a.u.^3)  0.3120E-02     Volume (a.u.^3)    118871.7965
 PW_GRID| Grid span                                                    FULLSPACE
 PW_GRID|   Distribution                         Average         Max         Min
 PW_GRID|   G-Vectors                           297675.0      297780      297570
 PW_GRID|   G-Rays                                1417.5        1418        1417
 PW_GRID|   Real Space Points                   297675.0      362880      181440

 PW_GRID| Information for grid number                                          2
 PW_GRID| Number of the reference grid                                         1
 PW_GRID| Grid distributed over                                   128 processors
 PW_GRID| Real space group dimensions                                     8   16
 PW_GRID| the grid is blocked:                                                NO
 PW_GRID| Cutoff [a.u.]                                                     66.7
 PW_GRID| spherical cutoff:                                                   NO
 PW_GRID|   Bounds   1            -60      59                Points:         120
 PW_GRID|   Bounds   2            -60      59                Points:         120
 PW_GRID|   Bounds   3           -252     251                Points:         504
 PW_GRID| Volume element (a.u.^3)  0.1638E-01     Volume (a.u.^3)    118871.7965
 PW_GRID| Grid span                                                    FULLSPACE
 PW_GRID|   Distribution                         Average         Max         Min
 PW_GRID|   G-Vectors                            56700.0       57960       55320
 PW_GRID|   G-Rays                                 472.5         483         461
 PW_GRID|   Real Space Points                    56700.0       60480       52920

 PW_GRID| Information for grid number                                          3
 PW_GRID| Number of the reference grid                                         1
 PW_GRID| Grid distributed over                                   128 processors
 PW_GRID| Real space group dimensions                                     8   16
 PW_GRID| the grid is blocked:                                                NO
 PW_GRID| Cutoff [a.u.]                                                     22.2
 PW_GRID| spherical cutoff:                                                   NO
 PW_GRID|   Bounds   1            -35      34                Points:          70
 PW_GRID|   Bounds   2            -35      34                Points:          70
 PW_GRID|   Bounds   3           -144     143                Points:         288
 PW_GRID| Volume element (a.u.^3)  0.8423E-01     Volume (a.u.^3)    118871.7965
 PW_GRID| Grid span                                                    FULLSPACE
 PW_GRID|   Distribution                         Average         Max         Min
 PW_GRID|   G-Vectors                            11025.0       12040        9730
 PW_GRID|   G-Rays                                 157.5         172         139
 PW_GRID|   Real Space Points                    11025.0       12960        9216

 PW_GRID| Information for grid number                                          4
[...]
 flops    13 x    13 x   112           3922752288       0.0%    100.0%      0.0%
 flops    13 x    32 x    20           7502842880       0.0%    100.0%      0.0%
 flops    20 x    32 x    13           7502842880       0.0%    100.0%      0.0%
 flops     5 x    32 x    20           7573222400       0.0%    100.0%      0.0%
 flops    20 x    32 x     5           7573222400       0.0%    100.0%      0.0%
 flops    20 x    13 x   112           8803791360       0.0%    100.0%      0.0%
 flops    13 x    20 x   112           8853761280       0.0%    100.0%      0.0%
 flops     5 x    20 x   112           8909846400       0.0%    100.0%      0.0%
 flops    20 x     5 x   112           8913340800       0.0%    100.0%      0.0%
 flops     5 x     5 x    96          10044216000       0.0%    100.0%      0.0%
 flops    13 x     5 x    96          12968654400       0.0%    100.0%      0.0%
 flops     5 x    13 x    96          12968654400       0.0%    100.0%      0.0%
 flops    13 x    13 x    96          16811795520       0.0%    100.0%      0.0%
 flops     5 x     5 x   128          26784576000       0.0%    100.0%      0.0%
 flops    13 x     5 x   128          34583078400       0.0%    100.0%      0.0%
 flops     5 x    13 x   128          34583078400       0.0%    100.0%      0.0%
 flops    20 x    13 x    96          37730534400       0.0%    100.0%      0.0%
 flops    13 x    20 x    96          37944691200       0.0%    100.0%      0.0%
 flops     5 x    20 x    96          38185056000       0.0%    100.0%      0.0%
 flops    20 x     5 x    96          38200032000       0.0%    100.0%      0.0%
 flops    13 x    13 x   128          44831454720       0.0%    100.0%      0.0%
 flops    20 x    32 x    20          69274828800       0.0%    100.0%      0.0%
 flops    20 x    20 x   112          81894758400       0.0%    100.0%      0.0%
 flops    20 x    13 x   128         100614758400       0.0%    100.0%      0.0%
 flops    13 x    20 x   128         101185843200       0.0%    100.0%      0.0%
 flops     5 x    20 x   128         101826816000       0.0%    100.0%      0.0%
 flops    20 x     5 x   128         101866752000       0.0%    100.0%      0.0%
 flops    20 x    20 x    96         350977536000       0.0%    100.0%      0.0%
 flops    20 x    20 x   128         935940096000       0.0%    100.0%      0.0%
 flops inhomo. stacks                           0       0.0%      0.0%      0.0%
 flops total                         2.278524E+12       0.0%    100.0%      0.0%
 flops max/rank                     21.074914E+09       0.0%    100.0%      0.0%
 matmuls inhomo. stacks                         0       0.0%      0.0%      0.0%
 matmuls total                           56112571       0.0%    100.0%      0.0%
 number of processed stacks                739312       0.0%    100.0%      0.0%
 average stack size                                     0.0      75.9       0.0
 marketing flops                     4.155604E+12
 -------------------------------------------------------------------------------
 # multiplications                             40
 max memory usage/rank               1.567486E+09
 # max total images/rank                        2
 # max 3D layers                                1
 # MPI messages exchanged                  148480
 MPI messages size (bytes):
  total size                        81.263223E+09
  min size                         259.584000E+03
  max size                           1.978128E+06
  average size                     547.300812E+03
 MPI breakdown and total messages size (bytes):
             size <=      128                   0                        0
       128 < size <=     8192                   0                        0
      8192 < size <=    32768                   0                        0
     32768 < size <=   131072                   0                        0
    131072 < size <=  4194304              148480              81263219640
   4194304 < size <= 16777216                   0                        0
  16777216 < size                               0                        0
 -------------------------------------------------------------------------------

 *** WARNING in dbcsr_mm.F:290 :: Using a non-square number of MPI ranks ***
 *** might lead to poor performance. Used ranks: 128 Suggested: 121 256  ***

 -------------------------------------------------------------------------------
 -                                                                             -
 -                      DBCSR MESSAGE PASSING PERFORMANCE                      -
 -                                                                             -
 -------------------------------------------------------------------------------
 ROUTINE             CALLS      AVE VOLUME [Bytes]
 MP_Bcast               46                     12.
 MP_Allreduce          383                     13.
 MP_Alltoall          1113                 545759.
 MP_ISend             2560                 260328.
 MP_IRecv             2560                 254453.
 -------------------------------------------------------------------------------

 -------------------------------------------------------------------------------
 -                                                                             -
 -                                DBM STATISTICS                               -
 -                                                                             -
 -------------------------------------------------------------------------------
    M  x    N  x    K                                          COUNT     PERCENT
 -------------------------------------------------------------------------------

 -------------------------------------------------------------------------------
 -                                                                             -
 -                                GRID STATISTICS                              -
 -                                                                             -
 -------------------------------------------------------------------------------
 LP    KERNEL             BACKEND                              COUNT     PERCENT
 4     collocate general  REF                               15008328      26.12%
 4     integrate general  REF                               14831327      25.81%
 3     collocate general  REF                                8282290      14.42%
 3     integrate general  REF                                8204489      14.28%
 2     collocate general  REF                                5325852       9.27%
 2     integrate general  REF                                5185698       9.03%
 5     integrate general  REF                                 394956       0.69%
 0     collocate general  REF                                 111360       0.19%
 0     integrate general  REF                                  55680       0.10%
 1     integrate general  REF                                  55680       0.10%
 -------------------------------------------------------------------------------

 MEMORY| Estimated peak process memory [MiB]                                1758

 -------------------------------------------------------------------------------
 ----                             MULTIGRID INFO                            ----
 -------------------------------------------------------------------------------
 count for grid        1:        1071078          cutoff [a.u.]          200.00
 count for grid        2:        1064812          cutoff [a.u.]           66.67
 count for grid        3:         669689          cutoff [a.u.]           22.22
 count for grid        4:         492815          cutoff [a.u.]            7.41
 total gridlevel count  :        3298394

 -------------------------------------------------------------------------------
 -                                                                             -
 -                         MESSAGE PASSING PERFORMANCE                         -
 -                                                                             -
 -------------------------------------------------------------------------------

 ROUTINE             CALLS      AVE VOLUME [Bytes]
 MP_Group                4
 MP_Bcast             2098                 312634.
 MP_Allreduce         3291                  28385.
 MP_Sync                82
 MP_Alltoall          2302               17060321.
 MP_SendRecv           508                   5871.
 MP_ISendRecv        19304                  61740.
 MP_Wait             34232
 MP_comm_split          39
 MP_ISend            14072                 256130.
 MP_IRecv            14072                 256130.
 MP_Recv               116                1535744.
 MP_Write_All            3                1797408.
 -------------------------------------------------------------------------------


 -------------------------------------------------------------------------------
 -                                                                             -
 -                           R E F E R E N C E S                               -
 -                                                                             -
 -------------------------------------------------------------------------------
 
 CP2K version 2022.1, the CP2K developers group (2022).
 CP2K is freely available from https://www.cp2k.org/ .

 Kuehne,Thomas D.; Iannuzzi,Marcella; Del Ben,Mauro;
 Rybkin,Vladimir V.; Seewald,Patrick; Stein,Frederick; Laino,Teodoro;
 Khaliullin,Rustam Z.; Schuett,Ole; Schiffmann,Florian; Golze,Dorothea;
 Wilhelm,Jan; Chulkov,Sergey; Bani-Hashemian,Mohammad Hossein;
 Weber,Valery; Borstnik,Urban; Taillefumier,Mathieu;
 Jakobovits,Alice Shoshana; Lazzaro,Alfio; Pabst,Hans; Mueller,Tiziano;
 Schade,Robert; Guidon,Manuel; Andermatt,Samuel; Holmberg,Nico;
 Schenter,Gregory K.; Hehn,Anna; Bussy,Augustin; Belleflamme,Fabian;
 Tabacchi,Gloria; Gloess,Andreas; Lass,Michael; Bethune,Iain;
 Mundy,Christopher J.; Plessl,Christian; Watkins,Matt;
 VandeVondele,Joost; Krack,Matthias; Hutter,Juerg. 
 The Journal of Chemical Physics, 152 (19), (2020). 
 CP2K: An electronic structure and molecular dynamics software package -
 Quickstep: Efficient and accurate electronic structure calculations.
 https://doi.org/10.1063/5.0007045

 Goerigk, Lars; Hansen, Andreas; Bauer, Christoph; Ehrlich, Stephan;
 Najibi, Asim; Grimme, Stefan. , 19 (48), (2017). 
 A look at the density functional theory zoo with the advanced GMTKN55 database
 for general main group thermochemistry, kinetics and noncovalent interactions.
 https://doi.org/10.1039/C7CP04913G

 Bani-Hashemian, MH; Bruck, S; Luisier, M; VandeVondele, J. 
 JOURNAL OF CHEMICAL PHYSICS, 144 (4), 044113 (2016). 
 A generalized Poisson solver for first-principles device simulations.
 https://doi.org/10.1063/1.4940796

 Schuett, Ole; Messmer, Peter; Hutter, Juerg; VandeVondele, Joost. 
 Electronic Structure Calculations on Graphics Processing Units, John
 Wiley & Sons, Ltd, 173-190 (2016). 
 GPU-Accelerated Sparse Matrix-Matrix Multiplication for
 Linear Scaling Density Functional Theory.
 https://doi.org/10.1002/9781118670712.ch8

 Heinecke, A; Henry, G; Hutchinson, M; Pabst, H. 
 Proceedings of Intl. Supercomputing Conference, 981-991 (2016). 
 LIBXSMM: Accelerating Small Matrix Multiplications
 by Runtime Code Generation.
 https://doi.org/10.1109/SC.2016.83

 Borstnik, U; VandeVondele, J; Weber, V; Hutter, J. 
 PARALLEL COMPUTING, 40 (5-6), 47-58 (2014). 
 Sparse matrix multiplication: The distributed block-compressed sparse
 row library.
 https://doi.org/10.1016/j.parco.2014.03.012

 Hutter, J; Iannuzzi, M; Schiffmann, F; VandeVondele, J. 
 WIREs Comput Mol Sci., 4 (1), 15-25 (2014). 
 CP2K: atomistic simulations of condensed matter systems.
 https://doi.org/10.1002/wcms.1159

 Marek, A; Blum, V; Johanni, R; Havu, V; Lang, B; Auckenthaler, T;
 Heinecke, A; Bungartz, H; Lederer, H. 
 Journal of Physics: Condensed Matter, 26 (21), (2014). 
 The ELPA library: scalable parallel eigenvalue solutions for
 electronic structure
 theory and computational science.
 https://doi.org/10.1088/0953-8984/26/21/213201

 Grimme, S; Ehrlich, S; Goerigk, L. 
 JOURNAL OF COMPUTATIONAL CHEMISTRY, 32, 1456 (2011). 
 Effect of the damping function in dispersion corrected density functional theory.
 https://doi.org/10.1002/jcc.21759

 Grimme, S; Antony, J; Ehrlich, S; Krieg, H. 
 JOURNAL OF CHEMICAL PHYSICS, 132 (15), 154104 (2010). 
 A consistent and accurate ab initio parametrization of density
 functional dispersion correction (DFT-D) for the 94 elements H-Pu.
 https://doi.org/10.1063/1.3382344

 VandeVondele, J; Hutter, J. 
 JOURNAL OF CHEMICAL PHYSICS, 127 (11), 114105 (2007). 
 Gaussian basis sets for accurate calculations on molecular systems in
 gas and condensed phases.
 https://doi.org/10.1063/1.2770708

 Krack, M. 
 THEORETICAL CHEMISTRY ACCOUNTS, 114 (1-3), 145-152 (2005). 
 Pseudopotentials for H to Kr optimized for gradient-corrected
 exchange-correlation functionals.
 https://doi.org/10.1007/s00214-005-0655-y

 VandeVondele, J; Krack, M; Mohamed, F; Parrinello, M; Chassaing, T;
 Hutter, J. COMPUTER PHYSICS COMMUNICATIONS, 167 (2), 103-128 (2005). 
 QUICKSTEP: Fast and accurate density functional calculations using a
 mixed Gaussian and plane waves approach.
 https://doi.org/10.1016/j.cpc.2004.12.014

 Frigo, M; Johnson, SG. 
 PROCEEDINGS OF THE IEEE, 93 (2), 216-231 (2005). 
 The design and implementation of FFTW3.
 https://doi.org/10.1109/JPROC.2004.840301

 Hartwigsen, C; Goedecker, S; Hutter, J. 
 PHYSICAL REVIEW B, 58 (7), 3641-3662 (1998). 
 Relativistic separable dual-space Gaussian pseudopotentials from H to Rn.
 https://doi.org/10.1103/PhysRevB.58.3641

 Lippert, G; Hutter, J; Parrinello, M. 
 MOLECULAR PHYSICS, 92 (3), 477-487 (1997). 
 A hybrid Gaussian and plane wave density functional scheme.
 https://doi.org/10.1080/002689797170220

 Perdew, JP; Burke, K; Ernzerhof, M. 
 PHYSICAL REVIEW LETTERS, 77 (18), 3865-3868 (1996). 
 Generalized gradient approximation made simple.
 https://doi.org/10.1103/PhysRevLett.77.3865

 Goedecker, S; Teter, M; Hutter, J. 
 PHYSICAL REVIEW B, 54 (3), 1703-1710 (1996). 
 Separable dual-space Gaussian pseudopotentials.
 https://doi.org/10.1103/PhysRevB.54.1703


 -------------------------------------------------------------------------------
 -                                                                             -
 -                                T I M I N G                                  -
 -                                                                             -
 -------------------------------------------------------------------------------
 SUBROUTINE                       CALLS  ASD         SELF TIME        TOTAL TIME
                                MAXIMUM       AVERAGE  MAXIMUM  AVERAGE  MAXIMUM
 CP2K                                 1  1.0    0.442    0.454  248.788  248.790
 qs_forces                            1  2.0    0.002    0.002  247.895  247.896
 qs_energies                          1  3.0    0.000    0.001  241.814  241.821
 scf_env_do_scf                       1  4.0    0.000    0.000  231.105  231.237
 scf_env_do_scf_inner_loop           37  5.0    0.002    0.005  231.101  231.233
 rebuild_ks_matrix                   38  6.9    0.000    0.000  137.495  137.521
 qs_ks_build_kohn_sham_matrix        38  7.9    0.006    0.007  137.495  137.521
 qs_ks_update_qs_env                 37  6.0    0.000    0.000  133.448  133.475
 pw_transfer                       1980 12.2    0.144    0.188   86.505   88.378
 fft_wrap_pw1pw2                   1980 13.2    0.019    0.023   86.361   88.207
 fft_wrap_pw1pw2_200               1752 14.4    5.814    6.833   85.192   86.958
 pw_poisson_solve                    38  8.9    0.004    0.009   74.283   74.323
 fft3d_ps                          1980 15.2   24.883   27.746   69.536   72.228
 implicit_poisson_solver_mixed_      38  9.9    1.570    1.915   70.308   70.357
 qs_scf_new_mos                      37  6.0    0.002    0.006   49.448   49.526
 derive_fft                         228 12.1    0.015    0.017   49.150   49.328
 eigensolver                         37  7.0    0.003    0.004   45.896   46.091
 mp_alltoall_z22v                  1980 17.2   37.406   45.833   37.406   45.833
 qs_rho_update_rho_low               38  6.0    0.000    0.004   42.938   42.947
 calculate_rho_elec                  38  7.0    0.074    0.092   42.938   42.947
 sum_up_and_integrate                38  8.9    0.206    0.251   42.256   42.286
 apply_P_operator                   190 11.1    1.013    1.140   42.038   42.189
 integrate_v_rspace                  38  9.9    0.001    0.002   42.050   42.135
 grid_collocate_task_list            38  8.0   23.953   33.830   23.953   33.830
 grid_integrate_task_list            38 10.9   22.062   30.801   22.062   30.801
 x_to_yz                           1141 16.4    4.831    6.208   28.127   29.322
 cp_fm_diag_elpa                     39  8.1    0.000    0.001   29.086   29.203
 rs_pw_transfer                     308 10.4    0.004    0.004   22.832   29.098
 cp_fm_redistribute_end              39  9.1    6.632   28.702    6.681   28.726
 cp_fm_diag_elpa_base                39  9.0   21.534   27.753   21.818   28.043
 density_rs2pw                       38  8.0    0.002    0.003   18.170   24.465
 yz_to_x                            611 16.4    1.673    1.914   15.632   21.207
 qs_vxc_create                       38  8.9    0.001    0.001   18.752   18.986
 xc_vxc_pw_create                    38  9.9    0.324    0.399   18.751   18.985
 mp_waitany                       14072 12.3   12.541   18.969   12.541   18.969
 rs_pw_transfer_RS2PW_200            40  9.9    2.410    2.864   12.406   18.696
 cp_fm_triangular_multiply          111  8.0   17.778   18.034   17.778   18.034
 mp_alltoall_d11v                   554 10.3   10.181   15.904   10.181   15.904
 rs_gather_matrices                  38 10.9    0.042    0.053    9.178   14.924
 xc_pw_derive                       228 11.9    0.003    0.005   13.248   14.656
 apply_poisson_operator_fft          38 10.9    0.000    0.001   12.383   12.651
 apply_inv_laplace_operator_fft     116 11.6    0.295    0.338   11.550   11.950
 potential_pw2rs                     38 10.9    0.011    0.012   10.798   10.881
 xc_pw_divergence                    38 10.9    0.002    0.002    9.008   10.064
 xc_rho_set_and_dset_create          38 10.9    0.189    0.225    9.073    9.638
 ps_implicit_compute_error_fft       76 10.9    0.478    0.579    8.400    8.988
 ps_implicit_compute_veps            38 10.9    0.221    0.263    8.349    8.495
 pw_scatter_p                      1255 15.4    7.007    8.117    7.007    8.117
 scf_post_calculation_gpw             1  4.0    0.000    0.001    7.446    7.451
 write_available_results              1  5.0    0.000    0.000    7.446    7.450
 rs_pw_transfer_PW2RS_200            40 12.7    3.013    3.151    6.275    6.434
 pw_derive                          912 13.0    5.777    6.185    5.777    6.185
 gspace_mixing                       36  6.0    0.069    0.087    6.176    6.177
 write_mo_free_results                1  6.0    0.246    0.383    5.560    5.571
 -------------------------------------------------------------------------------

 The number of warnings for this run is : 1
 
 -------------------------------------------------------------------------------
  **** **** ******  **  PROGRAM ENDED AT                 2024-07-17 23:32:29.243
 ***** ** ***  *** **   PROGRAM RAN ON                                     cu042
 **    ****   ******    PROGRAM RAN BY                                     jxzhu
 ***** **    ** ** **   PROGRAM PROCESS ID                                 54281
  **** **  *******  **  PROGRAM STOPPED IN /public/home/jxzhu/tmp_calc/570b1f139
                                           220a72c17c8b9edb094915b244b66a7/calc/
                                           001000.000/search_lo.000001
