 DBCSR| CPU Multiplication driver                                           XSMM
 DBCSR| Multrec recursion limit                                              512
 DBCSR| Multiplication stack size                                           1000
 DBCSR| Maximum elements for images                                    UNLIMITED
 DBCSR| Multiplicative factor virtual images                                   1
 DBCSR| Use multiplication densification                                       T
 DBCSR| Multiplication size stacks                                             3
 DBCSR| Use memory pool for CPU allocation                                     F
 DBCSR| Number of 3D layers                                               SINGLE
 DBCSR| Use MPI memory allocation                                              F
 DBCSR| Use RMA algorithm                                                      F
 DBCSR| Use Communication thread                                               T
 DBCSR| Communication thread load                                             87
 DBCSR| MPI: My node id                                                        0
 DBCSR| MPI: Number of nodes                                                 128
 DBCSR| OMP: Current number of threads                                         1
 DBCSR| OMP: Max number of threads                                             1
 DBCSR| Split modifier for TAS multiplication algorithm                  1.0E+00


  **** **** ******  **  PROGRAM STARTED AT               2023-12-02 12:44:09.738
 ***** ** ***  *** **   PROGRAM STARTED ON                                 cu098
 **    ****   ******    PROGRAM STARTED BY                                 jxzhu
 ***** **    ** ** **   PROGRAM PROCESS ID                                 54813
  **** **  *******  **  PROGRAM STARTED IN /public/home/jxzhu/tmp_calc/524ce499b
                                           5b1cc41aa20dc4371d7c5c5be6f12e5/calc/
                                           001500.000/search_lo.000003

 CP2K| version string:                                       CP2K version 2022.1
 CP2K| source code revision number:                                  git:2caeb6f
 CP2K| cp2kflags: omp libint fftw3 libxc elpa parallel mpi3 scalapack cosma xsmm
 CP2K|             plumed2 spglib mkl sirius libvori libbqb
 CP2K| is freely available from                            https://www.cp2k.org/
 CP2K| Program compiled at                           Mon Jul 3 17:37:06 CST 2023
 CP2K| Program compiled on                                                 mu003
 CP2K| Program compiled for                                                local
 CP2K| Data directory path                             /public/home/jxzhu/basis/
 CP2K| Input file name                                                 input.inp
 
 GLOBAL| Force Environment number                                              1
 GLOBAL| Basis set file name                                        BASIS_MOLOPT
 GLOBAL| Potential file name                                      GTH_POTENTIALS
 GLOBAL| MM Potential file name                                     MM_POTENTIAL
 GLOBAL| Coordinate file name                                          coord.xyz
 GLOBAL| Method name                                                        CP2K
 GLOBAL| Project name                                                       cp2k
 GLOBAL| Run type                                                   ENERGY_FORCE
 GLOBAL| FFT library                                                       FFTW3
 GLOBAL| Diagonalization library                                            ELPA
 GLOBAL| Minimum number of eigenvectors for ELPA usage                        16
 GLOBAL| Orthonormality check for eigenvectors                          DISABLED
 GLOBAL| Matrix multiplication library                                     COSMA
 GLOBAL| All-to-all communication in single precision                          F
 GLOBAL| FFTs using library dependent lengths                                  T
 GLOBAL| Grid backend                                                       AUTO
 GLOBAL| Global print level                                               MEDIUM
 GLOBAL| MPI I/O enabled                                                       T
 GLOBAL| Total number of message passing processes                           128
 GLOBAL| Number of threads for this process                                    1
 GLOBAL| This output is from process                                           0
 GLOBAL| Stack size for threads created by OpenMP (OMP_STACKSIZE)        default
 GLOBAL| CPU model name                 Intel(R) Xeon(R) Gold 6338 CPU @ 2.00GHz
 GLOBAL| CPUID                                                              1003

 MEMORY| system memory details [Kb]
 MEMORY|                        rank 0           min           max       average
 MEMORY| MemTotal            263619172     263619172     263619172     263619172
 MEMORY| MemFree             223405708     223405384     224053824     223729751
 MEMORY| Buffers                    28            28          3320          1674
 MEMORY| Cached                1330232       1255280       1330232       1292756
 MEMORY| Slab                  1228040       1193484       1228040       1210762
 MEMORY| SReclaimable           223992        223992        248544        236268
 MEMORY| MemLikelyFree       224959960     224959636     225560968     225260449


 *** Fundamental physical constants (SI units) ***

 *** Literature: B. J. Mohr and B. N. Taylor,
 ***             CODATA recommended values of the fundamental physical
 ***             constants: 2006, Web Version 5.1
 ***             http://physics.nist.gov/constants

 Speed of light in vacuum [m/s]                             2.99792458000000E+08
 Magnetic constant or permeability of vacuum [N/A**2]       1.25663706143592E-06
 Electric constant or permittivity of vacuum [F/m]          8.85418781762039E-12
 Planck constant (h) [J*s]                                  6.62606896000000E-34
 Planck constant (h-bar) [J*s]                              1.05457162825177E-34
 Elementary charge [C]                                      1.60217648700000E-19
 Electron mass [kg]                                         9.10938215000000E-31
 Electron g factor [ ]                                     -2.00231930436220E+00
 Proton mass [kg]                                           1.67262163700000E-27
 Fine-structure constant                                    7.29735253760000E-03
 Rydberg constant [1/m]                                     1.09737315685270E+07
 Avogadro constant [1/mol]                                  6.02214179000000E+23
 Boltzmann constant [J/K]                                   1.38065040000000E-23
 Atomic mass unit [kg]                                      1.66053878200000E-27
 Bohr radius [m]                                            5.29177208590000E-11

 *** Conversion factors ***

 [u] -> [a.u.]                                              1.82288848426455E+03
 [Angstrom] -> [Bohr] = [a.u.]                              1.88972613288564E+00
 [a.u.] = [Bohr] -> [Angstrom]                              5.29177208590000E-01
 [a.u.] -> [s]                                              2.41888432650478E-17
 [a.u.] -> [fs]                                             2.41888432650478E-02
 [a.u.] -> [J]                                              4.35974393937059E-18
 [a.u.] -> [N]                                              8.23872205491840E-08
 [a.u.] -> [K]                                              3.15774647902944E+05
 [a.u.] -> [kJ/mol]                                         2.62549961709828E+03
 [a.u.] -> [kcal/mol]                                       6.27509468713739E+02
 [a.u.] -> [Pa]                                             2.94210107994716E+13
 [a.u.] -> [bar]                                            2.94210107994716E+08
 [a.u.] -> [atm]                                            2.90362800883016E+08
 [a.u.] -> [eV]                                             2.72113838565563E+01
 [a.u.] -> [Hz]                                             6.57968392072181E+15
 [a.u.] -> [1/cm] (wave numbers)                            2.19474631370540E+05
 [a.u./Bohr**2] -> [1/cm]                                   5.14048714338585E+03
 

 CELL_TOP| Volume [angstrom^3]:                                     17614.982639
 CELL_TOP| Vector a [angstrom    16.869     0.000     0.000   |a| =    16.869000
 CELL_TOP| Vector b [angstrom    -8.434    14.609     0.000   |b| =    16.869015
 CELL_TOP| Vector c [angstrom     0.000     0.000    71.478   |c| =    71.478000
 CELL_TOP| Angle (b,c), alpha [degree]:                                90.000000
 CELL_TOP| Angle (a,c), beta  [degree]:                                90.000000
 CELL_TOP| Angle (a,b), gamma [degree]:                               119.999970
 CELL_TOP| Numerically orthorhombic:                                          NO
 
 GENERATE|  Preliminary Number of Bonds generated:                             0
 GENERATE|  Achieved consistency in connectivity generation.

 CELL| Volume [angstrom^3]:                                         17614.982639
 CELL| Vector a [angstrom]:      16.869     0.000     0.000   |a| =    16.869000
 CELL| Vector b [angstrom]:      -8.434    14.609     0.000   |b| =    16.869015
 CELL| Vector c [angstrom]:       0.000     0.000    71.478   |c| =    71.478000
 CELL| Angle (b,c), alpha [degree]:                                    90.000000
 CELL| Angle (a,c), beta  [degree]:                                    90.000000
 CELL| Angle (a,b), gamma [degree]:                                   119.999970
 CELL| Numerically orthorhombic:                                              NO

 CELL_REF| Volume [angstrom^3]:                                     17614.982639
 CELL_REF| Vector a [angstrom    16.869     0.000     0.000   |a| =    16.869000
 CELL_REF| Vector b [angstrom    -8.434    14.609     0.000   |b| =    16.869015
 CELL_REF| Vector c [angstrom     0.000     0.000    71.478   |c| =    71.478000
 CELL_REF| Angle (b,c), alpha [degree]:                                90.000000
 CELL_REF| Angle (a,c), beta  [degree]:                                90.000000
 CELL_REF| Angle (a,b), gamma [degree]:                               119.999970
 CELL_REF| Numerically orthorhombic:                                          NO

 *******************************************************************************
 *******************************************************************************
 **                                                                           **
 **     #####                         ##              ##                      **
 **    ##   ##            ##          ##              ##                      **
 **   ##     ##                       ##            ######                    **
 **   ##     ##  ##   ##  ##   #####  ##  ##   ####   ##    #####    #####    **
 **   ##     ##  ##   ##  ##  ##      ## ##   ##      ##   ##   ##  ##   ##   **
 **   ##  ## ##  ##   ##  ##  ##      ####     ###    ##   ######   ######    **
 **    ##  ###   ##   ##  ##  ##      ## ##      ##   ##   ##       ##        **
 **     #######   #####   ##   #####  ##  ##  ####    ##    #####   ##        **
 **           ##                                                    ##        **
 **                                                                           **
 **                                                ... make the atoms dance   **
 **                                                                           **
 **            Copyright (C) by CP2K developers group (2000-2022)             **
 **                      J. Chem. Phys. 152, 194103 (2020)                    **
 **                                                                           **
 *******************************************************************************

 DFT| Spin restricted Kohn-Sham (RKS) calculation                            RKS
 DFT| Multiplicity                                                             1
 DFT| Number of spin states                                                    1
 DFT| Charge                                                                   0
 DFT| Self-interaction correction (SIC)                                       NO
 DFT| Cutoffs: density                                              1.000000E-10
 DFT|          gradient                                             1.000000E-10
 DFT|          tau                                                  1.000000E-10
 DFT|          cutoff_smoothing_range                               0.000000E+00
 DFT| XC density smoothing                                                  NONE
 DFT| XC derivatives                                                          PW

 FUNCTIONAL| PBE:
 FUNCTIONAL| J.P.Perdew, K.Burke, M.Ernzerhof, Phys. Rev. Letter, vol. 77, n 18,
 FUNCTIONAL|  pp. 3865-3868, (1996){spin unpolarized}                           

 vdW POTENTIAL|                                                   Pair Potential
 vdW POTENTIAL|          DFT-D3 (Version 3.1)
 vdW POTENTIAL|          Potential Form: S. Grimme et al, JCP 132: 154104 (2010)
 vdW POTENTIAL|          Zero Damping
 vdW POTENTIAL|          Cutoff Radius [Bohr]:                             20.00
 vdW POTENTIAL|          s6 Scaling Factor:                               1.0000
 vdW POTENTIAL|          sr6 Scaling Factor:                              1.2170
 vdW POTENTIAL|          s8 Scaling Factor:                               0.7220
 vdW POTENTIAL|          Cutoff for CN calculation:                   0.1000E-05

 QS| Method:                                                                 GPW
 QS| Density plane wave grid type                        NON-SPHERICAL FULLSPACE
 QS| Number of grid levels:                                                    4
 QS| Density cutoff [a.u.]:                                                200.0
 QS| Multi grid cutoff [a.u.]: 1) grid level                               200.0
 QS|                           2) grid level                                66.7
 QS|                           3) grid level                                22.2
 QS|                           4) grid level                                 7.4
 QS| Grid level progression factor:                                          3.0
 QS| Relative density cutoff [a.u.]:                                        20.0
 QS| Interaction thresholds: eps_pgf_orb:                                3.2E-07
 QS|                         eps_filter_matrix:                          0.0E+00
 QS|                         eps_core_charge:                            1.0E-15
 QS|                         eps_rho_gspace:                             1.0E-13
 QS|                         eps_rho_rspace:                             1.0E-13
 QS|                         eps_gvg_rspace:                             3.2E-07
 QS|                         eps_ppl:                                    1.0E-02
 QS|                         eps_ppnl:                                   3.2E-09


 ATOMIC KIND INFORMATION

  1. Atomic kind: O                                     Number of atoms:     101

     Orbital Basis Set                                        DZVP-MOLOPT-SR-GTH

       Number of orbital shell sets:                                           1
       Number of orbital shells:                                               5
       Number of primitive Cartesian functions:                                5
       Number of Cartesian basis functions:                                   14
       Number of spherical basis functions:                                   13
       Norm type:                                                              2

       Normalised Cartesian orbitals:

                        Set   Shell   Orbital            Exponent    Coefficient

                          1       1    2s               10.389228       0.396646
                                                         3.849621       0.208811
                                                         1.388401      -0.301641
                                                         0.496955      -0.274061
                                                         0.162492      -0.033677

                          1       2    3s               10.389228       0.303673
                                                         3.849621       0.240943
                                                         1.388401      -0.313066
                                                         0.496955      -0.043055
                                                         0.162492       0.213991

                          1       3    3px              10.389228      -1.530415
                                                         3.849621      -1.371928
                                                         1.388401      -0.761951
                                                         0.496955      -0.253695
                                                         0.162492      -0.035541
                          1       3    3py              10.389228      -1.530415
                                                         3.849621      -1.371928
                                                         1.388401      -0.761951
                                                         0.496955      -0.253695
                                                         0.162492      -0.035541
                          1       3    3pz              10.389228      -1.530415
                                                         3.849621      -1.371928
                                                         1.388401      -0.761951
                                                         0.496955      -0.253695
                                                         0.162492      -0.035541

                          1       4    4px              10.389228      -0.565392
                                                         3.849621      -0.038231
                                                         1.388401      -0.382373
                                                         0.496955       0.179070
                                                         0.162492       0.122714
                          1       4    4py              10.389228      -0.565392
                                                         3.849621      -0.038231
                                                         1.388401      -0.382373
                                                         0.496955       0.179070
                                                         0.162492       0.122714
                          1       4    4pz              10.389228      -0.565392
                                                         3.849621      -0.038231
                                                         1.388401      -0.382373
                                                         0.496955       0.179070
                                                         0.162492       0.122714

                          1       5    4dx2             10.389228       1.867377
                                                         3.849621       0.670994
                                                         1.388401       1.353441
                                                         0.496955       0.273538
                                                         0.162492       0.006620
                          1       5    4dxy             10.389228       3.234392
                                                         3.849621       1.162195
                                                         1.388401       2.344229
                                                         0.496955       0.473781
                                                         0.162492       0.011466
                          1       5    4dxz             10.389228       3.234392
                                                         3.849621       1.162195
                                                         1.388401       2.344229
                                                         0.496955       0.473781
                                                         0.162492       0.011466
                          1       5    4dy2             10.389228       1.867377
                                                         3.849621       0.670994
                                                         1.388401       1.353441
                                                         0.496955       0.273538
                                                         0.162492       0.006620
                          1       5    4dyz             10.389228       3.234392
                                                         3.849621       1.162195
                                                         1.388401       2.344229
                                                         0.496955       0.473781
                                                         0.162492       0.011466
                          1       5    4dz2             10.389228       1.867377
                                                         3.849621       0.670994
                                                         1.388401       1.353441
                                                         0.496955       0.273538
                                                         0.162492       0.006620

       Atomic covalent radius [Angstrom]:                                  0.730

       Atomic van der Waals radius [Angstrom]:                             1.520

     GTH Potential information for                                    GTH-PBE-q6

       Description:                       Goedecker-Teter-Hutter pseudopotential
                                           Goedecker et al., PRB 54, 1703 (1996)
                                          Hartwigsen et al., PRB 58, 3641 (1998)
                                                      Krack, TCA 114, 145 (2005)

       Gaussian exponent of the core charge distribution:               8.360253
       Electronic configuration (s p d ...):                               2   4

       Parameters of the local part of the GTH pseudopotential:

                          rloc        C1          C2          C3          C4
                        0.244554  -16.667215    2.487311

       Parameters of the non-local part of the GTH pseudopotential:

                   l      r(l)      h(i,j,l)

                   0    0.220956   18.337458
                   1    0.211332

  2. Atomic kind: H                                     Number of atoms:     202

     Orbital Basis Set                                        DZVP-MOLOPT-SR-GTH

       Number of orbital shell sets:                                           1
       Number of orbital shells:                                               3
       Number of primitive Cartesian functions:                                5
       Number of Cartesian basis functions:                                    5
       Number of spherical basis functions:                                    5
       Norm type:                                                              2

       Normalised Cartesian orbitals:

                        Set   Shell   Orbital            Exponent    Coefficient

                          1       1    2s               10.068468      -0.133023
                                                         2.680223      -0.177618
                                                         0.791502      -0.258419
                                                         0.239116      -0.107525
                                                         0.082193      -0.014019

                          1       2    3s               10.068468       0.344673
                                                         2.680223       1.819821
                                                         0.791502      -0.999069
                                                         0.239116       0.017430
                                                         0.082193       0.082660

                          1       3    3px              10.068468       0.155326
                                                         2.680223       0.367157
                                                         0.791502       0.311480
                                                         0.239116       0.080105
                                                         0.082193       0.033440
                          1       3    3py              10.068468       0.155326
                                                         2.680223       0.367157
                                                         0.791502       0.311480
                                                         0.239116       0.080105
                                                         0.082193       0.033440
                          1       3    3pz              10.068468       0.155326
                                                         2.680223       0.367157
                                                         0.791502       0.311480
                                                         0.239116       0.080105
                                                         0.082193       0.033440

       Atomic covalent radius [Angstrom]:                                  0.320

       Atomic van der Waals radius [Angstrom]:                             1.090

     GTH Potential information for                                    GTH-PBE-q1

       Description:                       Goedecker-Teter-Hutter pseudopotential
                                           Goedecker et al., PRB 54, 1703 (1996)
                                          Hartwigsen et al., PRB 58, 3641 (1998)
                                                      Krack, TCA 114, 145 (2005)

       Gaussian exponent of the core charge distribution:              12.500000
       Electronic configuration (s p d ...):                                   1

       Parameters of the local part of the GTH pseudopotential:

                          rloc        C1          C2          C3          C4
                        0.200000   -4.178900    0.724463

  3. Atomic kind: Pt                                    Number of atoms:     216

     Orbital Basis Set                      DZVP-A5-Q10-323-MOL-T1-DERIVED_SET-1

       Number of orbital shell sets:                                           1
       Number of orbital shells:                                               6
       Number of primitive Cartesian functions:                                5
       Number of Cartesian basis functions:                                   23
       Number of spherical basis functions:                                   20
       Norm type:                                                              2

       Normalised Cartesian orbitals:

                        Set   Shell   Orbital            Exponent    Coefficient

                          1       1    2s                2.521825       0.177473
                                                         1.453920      -0.063399
                                                         0.614053      -0.407089
                                                         0.232656       0.262254
                                                         0.074788       0.047371

                          1       2    3s                2.521825      -0.049056
                                                         1.453920       0.044904
                                                         0.614053      -0.009756
                                                         0.232656      -0.144709
                                                         0.074788       0.144085

                          1       3    3px               2.521825      -0.317572
                                                         1.453920       0.534826
                                                         0.614053      -0.489458
                                                         0.232656       0.245631
                                                         0.074788       0.018221
                          1       3    3py               2.521825      -0.317572
                                                         1.453920       0.534826
                                                         0.614053      -0.489458
                                                         0.232656       0.245631
                                                         0.074788       0.018221
                          1       3    3pz               2.521825      -0.317572
                                                         1.453920       0.534826
                                                         0.614053      -0.489458
                                                         0.232656       0.245631
                                                         0.074788       0.018221

                          1       4    4dx2              2.521825       3.008522
                                                         1.453920      -1.224251
                                                         0.614053       0.225691
                                                         0.232656       0.125144
                                                         0.074788      -0.015348
                          1       4    4dxy              2.521825       5.210912
                                                         1.453920      -2.120465
                                                         0.614053       0.390909
                                                         0.232656       0.216756
                                                         0.074788      -0.026584
                          1       4    4dxz              2.521825       5.210912
                                                         1.453920      -2.120465
                                                         0.614053       0.390909
                                                         0.232656       0.216756
                                                         0.074788      -0.026584
                          1       4    4dy2              2.521825       3.008522
                                                         1.453920      -1.224251
                                                         0.614053       0.225691
                                                         0.232656       0.125144
                                                         0.074788      -0.015348
                          1       4    4dyz              2.521825       5.210912
                                                         1.453920      -2.120465
                                                         0.614053       0.390909
                                                         0.232656       0.216756
                                                         0.074788      -0.026584
                          1       4    4dz2              2.521825       3.008522
                                                         1.453920      -1.224251
                                                         0.614053       0.225691
                                                         0.232656       0.125144
                                                         0.074788      -0.015348

                          1       5    5dx2              2.521825       0.698026
                                                         1.453920      -1.511486
                                                         0.614053      -0.335394
                                                         0.232656      -0.025564
                                                         0.074788      -0.002699
                          1       5    5dxy              2.521825       1.209017
                                                         1.453920      -2.617970
                                                         0.614053      -0.580920
                                                         0.232656      -0.044277
                                                         0.074788      -0.004674
                          1       5    5dxz              2.521825       1.209017
                                                         1.453920      -2.617970
                                                         0.614053      -0.580920
                                                         0.232656      -0.044277
                                                         0.074788      -0.004674
                          1       5    5dy2              2.521825       0.698026
                                                         1.453920      -1.511486
                                                         0.614053      -0.335394
                                                         0.232656      -0.025564
                                                         0.074788      -0.002699
                          1       5    5dyz              2.521825       1.209017
                                                         1.453920      -2.617970
                                                         0.614053      -0.580920
                                                         0.232656      -0.044277
                                                         0.074788      -0.004674
                          1       5    5dz2              2.521825       0.698026
                                                         1.453920      -1.511486
                                                         0.614053      -0.335394
                                                         0.232656      -0.025564
                                                         0.074788      -0.002699

                          1       6    6dx2              2.521825       0.831079
                                                         1.453920      -0.709226
                                                         0.614053      -0.137351
                                                         0.232656       0.068642
                                                         0.074788       0.011745
                          1       6    6dxy              2.521825       1.439472
                                                         1.453920      -1.228415
                                                         0.614053      -0.237899
                                                         0.232656       0.118891
                                                         0.074788       0.020343
                          1       6    6dxz              2.521825       1.439472
                                                         1.453920      -1.228415
                                                         0.614053      -0.237899
                                                         0.232656       0.118891
                                                         0.074788       0.020343
                          1       6    6dy2              2.521825       0.831079
                                                         1.453920      -0.709226
                                                         0.614053      -0.137351
                                                         0.232656       0.068642
                                                         0.074788       0.011745
                          1       6    6dyz              2.521825       1.439472
                                                         1.453920      -1.228415
                                                         0.614053      -0.237899
                                                         0.232656       0.118891
                                                         0.074788       0.020343
                          1       6    6dz2              2.521825       0.831079
                                                         1.453920      -0.709226
                                                         0.614053      -0.137351
                                                         0.232656       0.068642
                                                         0.074788       0.011745

       Atomic covalent radius [Angstrom]:                                  1.300

       Atomic van der Waals radius [Angstrom]:                             1.750

     GTH Potential information for                                   GTH-PBE-q10

       Description:                       Goedecker-Teter-Hutter pseudopotential
                                           Goedecker et al., PRB 54, 1703 (1996)
                                          Hartwigsen et al., PRB 58, 3641 (1998)
                                                      Krack, TCA 114, 145 (2005)

       Gaussian exponent of the core charge distribution:               1.317676
       Electronic configuration (s p d ...):                           1   0   9

       Parameters of the local part of the GTH pseudopotential:

                          rloc        C1          C2          C3          C4
                        0.616000   11.313635

       Parameters of the non-local part of the GTH pseudopotential:

                   l      r(l)      h(i,j,l)

                   0    0.550904    4.733491   -1.784594
                                   -1.784594    2.303901
                   1    0.674138    2.534798   -1.778066
                                   -1.778066    2.103836
                   2    0.457392   -7.264011    2.558665
                                    2.558665   -2.901253


 MOLECULE KIND INFORMATION


 All atoms are their own molecule, skipping detailed information


 TOTAL NUMBERS AND MAXIMUM NUMBERS

  Total number of            - Atomic kinds:                                   3
                             - Atoms:                                        519
                             - Shell sets:                                   519
                             - Shells:                                      2407
                             - Primitive Cartesian functions:               2595
                             - Cartesian basis functions:                   7392
                             - Spherical basis functions:                   6643

  Maximum angular momentum of- Orbital basis functions:                        2
                             - Local part of the GTH pseudopotential:          2
                             - Non-local part of the GTH pseudopotential:      4


 MODULE QUICKSTEP:  ATOMIC COORDINATES IN angstrom

 Atom  Kind  Element       X           Y           Z          Z(eff)       Mass
    1   1 O    8      -1.730000  -12.900001   30.118000       6.0000     15.9994
    2   2 H    1      -0.970000  -12.390001   29.978000       1.0000      1.0079
    3   2 H    1      -1.320000  -13.780001   29.948000       1.0000      1.0079
    4   1 O    8       8.220000    3.790000   33.498000       6.0000     15.9994
    5   2 H    1       8.230000    3.690000   34.488000       1.0000      1.0079
    6   2 H    1       9.180000    3.570000   33.248001       1.0000      1.0079
    7   1 O    8       6.740000    6.860001   29.198000       6.0000     15.9994
    8   2 H    1       6.350000    7.610001   29.818000       1.0000      1.0079
    9   2 H    1       7.600000    6.630001   29.648000       1.0000      1.0079
   10   1 O    8       4.230000  -17.820000   36.638001       6.0000     15.9994
   11   2 H    1       4.630000  -18.650002   36.308001       1.0000      1.0079
   12   2 H    1       4.460000  -17.190001   35.948001       1.0000      1.0079
   13   1 O    8       7.600000   32.990002   36.278001       6.0000     15.9994
   14   2 H    1       7.670000   33.990002   36.238000       1.0000      1.0079
   15   2 H    1       6.630001   32.890003   36.438001       1.0000      1.0079
   16   1 O    8      -1.660000   27.730003   36.508001       6.0000     15.9994
   17   2 H    1      -1.940000   28.590002   36.778000       1.0000      1.0079
   18   2 H    1      -1.520000   27.210003   37.318000       1.0000      1.0079
   19   1 O    8      -2.660000   29.060001   29.308001       6.0000     15.9994
   20   2 H    1      -1.690000   28.790001   29.538000       1.0000      1.0079
   21   2 H    1       5.040000   13.810000   29.598001       1.0000      1.0079
   22   1 O    8      -7.290000  -22.720001   36.878001       6.0000     15.9994
   23   2 H    1      -6.740000  -22.440002   37.708001       1.0000      1.0079
   24   2 H    1      -6.830000  -22.200001   36.188000       1.0000      1.0079
   25   1 O    8      18.930000   16.180000   30.078000       6.0000     15.9994
   26   2 H    1      19.710001   16.470001   30.698000       1.0000      1.0079
   27   2 H    1      19.420002   16.090000   29.228000       1.0000      1.0079
   28   1 O    8      -5.220000    8.300000   32.688000       6.0000     15.9994
   29   2 H    1      -4.270000    8.550000   32.728001       1.0000      1.0079
   30   2 H    1      -5.760000    8.460000   33.508001       1.0000      1.0079
   31   1 O    8      29.220001  -16.090000   30.228001       6.0000     15.9994
   32   2 H    1      29.310001  -17.010000   29.868000       1.0000      1.0079
   33   2 H    1      45.540005  -15.690001   29.598001       1.0000      1.0079
   34   1 O    8       8.470000   -0.120000   29.178001       6.0000     15.9994
   35   2 H    1      -0.120000   13.510000   29.268001       1.0000      1.0079
   36   2 H    1       9.320001    0.190000   29.508001       1.0000      1.0079
   37   1 O    8       4.960000   -7.360001   38.228000       6.0000     15.9994
   38   2 H    1       5.730000   -7.280001   38.788001       1.0000      1.0079
   39   2 H    1       5.300000   -7.820001   37.468000       1.0000      1.0079
   40   1 O    8      -4.180000   16.960001   29.168001       6.0000     15.9994
   41   2 H    1      -4.040000   17.920000   29.568000       1.0000      1.0079
   42   2 H    1      -3.260000   16.610001   29.458001       1.0000      1.0079
   43   1 O    8      18.360001   -5.230000   39.318000       6.0000     15.9994
   44   2 H    1       1.970000   -4.480000   39.668001       1.0000      1.0079
   45   2 H    1      18.980001   -6.040000   39.328000       1.0000      1.0079
   46   1 O    8       6.490001   -9.040001   33.388001       6.0000     15.9994
   47   2 H    1       6.880000   -9.910001   33.198000       1.0000      1.0079
   48   2 H    1       7.160000   -8.360001   33.008001       1.0000      1.0079
   49   1 O    8      17.490002   24.270000   36.728000       6.0000     15.9994
   50   2 H    1      17.880001   24.139999   37.678001       1.0000      1.0079
   51   2 H    1      17.690001   25.200003   36.678001       1.0000      1.0079
   52   1 O    8     -25.190001   -9.040001   29.868000       6.0000     15.9994
   53   2 H    1     -24.260002   -8.760000   29.808000       1.0000      1.0079
   54   2 H    1     -25.260000   -9.360001   28.928000       1.0000      1.0079
   55   1 O    8       4.680000   -5.460000   36.098001       6.0000     15.9994
   56   2 H    1       4.710000   -4.490000   36.138000       1.0000      1.0079
   57   2 H    1       4.720000   -5.790000   37.008001       1.0000      1.0079
   58   1 O    8      18.100000    8.860001   39.848001       6.0000     15.9994
   59   2 H    1      18.410000    9.220000   40.748000       1.0000      1.0079
   60   2 H    1       0.680000    8.070001   40.108001       1.0000      1.0079
   61   1 O    8      -3.910000    7.040000   29.108000       6.0000     15.9994
   62   2 H    1      -4.100000    6.090000   29.218001       1.0000      1.0079
   63   2 H    1      -4.780000    7.590001   29.428001       1.0000      1.0079
   64   1 O    8      23.800001   15.070001   33.918001       6.0000     15.9994
   65   2 H    1      23.660002   14.510001   33.038001       1.0000      1.0079
   66   2 H    1      24.680002   14.840001   34.308001       1.0000      1.0079
   67   1 O    8      13.170000   19.490002   30.068000       6.0000     15.9994
   68   2 H    1      13.620001   19.450001   31.008001       1.0000      1.0079
   69   2 H    1      13.910000   19.950001   29.568000       1.0000      1.0079
   70   1 O    8      12.600001   -8.570001   36.518000       6.0000     15.9994
   71   2 H    1      13.570002   -8.350000   36.468000       1.0000      1.0079
   72   2 H    1       3.950000    6.410000   37.418001       1.0000      1.0079
   73   1 O    8       1.310000   25.100002   29.948000       6.0000     15.9994
   74   2 H    1       1.440000   24.130001   29.868000       1.0000      1.0079
   75   2 H    1       1.710000   25.480001   29.098001       1.0000      1.0079
   76   1 O    8       2.450000    8.020000   34.888000       6.0000     15.9994
   77   2 H    1       3.160000    7.480001   35.348001       1.0000      1.0079
   78   2 H    1       2.360000    8.840000   35.428001       1.0000      1.0079
   79   1 O    8     -16.740000   32.190002   30.498000       6.0000     15.9994
   80   2 H    1       0.050000   33.220001   30.348001       1.0000      1.0079
   81   2 H    1     -17.540001   31.860001   30.088001       1.0000      1.0079
   82   1 O    8     -12.040001   15.250001   39.338001       6.0000     15.9994
   83   2 H    1     -11.160001   15.170001   38.788001       1.0000      1.0079
   84   2 H    1     -12.340001   16.030001   38.858001       1.0000      1.0079
   85   1 O    8       3.810000   -8.880001   32.758001       6.0000     15.9994
   86   2 H    1       4.740000   -8.770000   32.978000       1.0000      1.0079
   87   2 H    1       3.420000   -7.920001   32.458000       1.0000      1.0079
   88   1 O    8      -1.320000   -3.520000   29.988000       6.0000     15.9994
   89   2 H    1      -0.290000   -3.700000   29.968001       1.0000      1.0079
   90   2 H    1      -1.450000   -3.650000   28.998000       1.0000      1.0079
   91   1 O    8       7.410001   -5.960000   35.818001       6.0000     15.9994
   92   2 H    1       6.390000   -6.020000   35.838001       1.0000      1.0079
   93   2 H    1       7.590001   -5.510000   36.718002       1.0000      1.0079
   94   1 O    8       2.120000  -20.780001   32.028000       6.0000     15.9994
   95   2 H    1       1.930000  -21.550003   31.498000       1.0000      1.0079
   96   2 H    1       2.530000  -21.080000   32.878001       1.0000      1.0079
   97   1 O    8      16.220001   12.580000   39.068002       6.0000     15.9994
   98   2 H    1      16.680000   13.430000   39.178001       1.0000      1.0079
   99   2 H    1      15.670000   12.540001   39.958001       1.0000      1.0079
  100   1 O    8       6.580000   13.190001   31.788001       6.0000     15.9994
  101   2 H    1       5.790000   12.890000   32.158000       1.0000      1.0079
  102   2 H    1       6.780000   12.580000   31.068000       1.0000      1.0079
  103   1 O    8      19.100000   -2.910000   33.428000       6.0000     15.9994
  104   2 H    1       9.920000   11.220001   33.758001       1.0000      1.0079
  105   2 H    1      19.190002   -3.400000   32.618000       1.0000      1.0079
  106   1 O    8      34.590000    5.760000   35.928001       6.0000     15.9994
  107   2 H    1      34.850002    5.020000   35.328000       1.0000      1.0079
  108   2 H    1      34.910004    6.540000   35.428001       1.0000      1.0079
  109   1 O    8     -10.480001    6.550000   39.838001       6.0000     15.9994
  110   2 H    1       6.930000    5.740000   40.158000       1.0000      1.0079
  111   2 H    1     -10.510000    6.540000   38.858001       1.0000      1.0079
  112   1 O    8       8.090000   29.890001   32.728001       6.0000     15.9994
  113   2 H    1       7.720000   30.670002   32.298001       1.0000      1.0079
  114   2 H    1      24.280003   29.190002   32.468001       1.0000      1.0079
  115   1 O    8       0.160000   -0.450000   29.118000       6.0000     15.9994
  116   2 H    1       0.880000    0.040000   29.528000       1.0000      1.0079
  117   2 H    1       0.480000   -1.350000   29.398001       1.0000      1.0079
  118   1 O    8      -2.750000    2.580000   30.048001       6.0000     15.9994
  119   2 H    1      -3.410000    3.170000   29.558000       1.0000      1.0079
  120   2 H    1      -2.890000    1.710000   29.588001       1.0000      1.0079
  121   1 O    8      12.520000  -12.060001   33.548001       6.0000     15.9994
  122   2 H    1      11.670000  -11.630001   33.628002       1.0000      1.0079
  123   2 H    1      12.360001  -13.020000   33.438001       1.0000      1.0079
  124   1 O    8       5.720000    4.520000   32.568000       6.0000     15.9994
  125   2 H    1       6.690001    4.350000   32.658001       1.0000      1.0079
  126   2 H    1       5.290000    3.630000   32.818000       1.0000      1.0079
  127   1 O    8       9.260000    0.180000   39.458000       6.0000     15.9994
  128   2 H    1       8.590000    0.790000   38.998000       1.0000      1.0079
  129   2 H    1      18.340000   14.590001   38.748000       1.0000      1.0079
  130   1 O    8       6.280000   -1.210000   31.868001       6.0000     15.9994
  131   2 H    1       5.400000   -1.030000   31.398000       1.0000      1.0079
  132   2 H    1       5.980001   -1.930000   32.528001       1.0000      1.0079
  133   1 O    8      -2.590000    9.110001   32.528001       6.0000     15.9994
  134   2 H    1      -2.570000    9.130000   31.578000       1.0000      1.0079
  135   2 H    1      -1.850000    8.610001   32.888001       1.0000      1.0079
  136   1 O    8      11.030001    7.060000   39.248000       6.0000     15.9994
  137   2 H    1      -4.840000    6.850000   39.168001       1.0000      1.0079
  138   2 H    1      10.680000    6.440001   40.028001       1.0000      1.0079
  139   1 O    8      27.100000   -4.210001   35.768001       6.0000     15.9994
  140   2 H    1      19.410002   10.950001   36.188000       1.0000      1.0079
  141   2 H    1      26.480003   -4.350000   36.558001       1.0000      1.0079
  142   1 O    8     -23.520000   30.340002   36.728000       6.0000     15.9994
  143   2 H    1      -7.510000   29.890001   36.428001       1.0000      1.0079
  144   2 H    1     -22.870003   29.650002   36.468000       1.0000      1.0079
  145   1 O    8      12.450000    3.780000   39.308000       6.0000     15.9994
  146   2 H    1      13.410001    3.980000   39.178001       1.0000      1.0079
  147   2 H    1      12.080001    3.610000   38.438001       1.0000      1.0079
  148   1 O    8     -14.220000   18.160002   33.678001       6.0000     15.9994
  149   2 H    1     -14.280001   18.080002   34.638001       1.0000      1.0079
  150   2 H    1     -13.820001   18.990000   33.398001       1.0000      1.0079
  151   1 O    8     -13.170000    9.630001   30.048001       6.0000     15.9994
  152   2 H    1     -13.770000    9.180000   30.738000       1.0000      1.0079
  153   2 H    1     -13.740001    9.770000   29.238000       1.0000      1.0079
  154   1 O    8      -4.480000   -0.090000   35.518001       6.0000     15.9994
  155   2 H    1      -5.010000   -0.190000   34.678001       1.0000      1.0079
  156   2 H    1      -3.570000    0.090000   35.108001       1.0000      1.0079
  157   1 O    8      20.430000    8.050001   38.528001       6.0000     15.9994
  158   2 H    1      19.680000    8.520000   38.867999       1.0000      1.0079
  159   2 H    1      21.200001    8.590000   38.488000       1.0000      1.0079
  160   1 O    8       0.170000   12.090001   34.418001       6.0000     15.9994
  161   2 H    1      -0.840000   11.820001   34.328000       1.0000      1.0079
  162   2 H    1       0.580000   11.560000   35.168001       1.0000      1.0079
  163   1 O    8     -18.150002    1.110000   37.838001       6.0000     15.9994
  164   2 H    1     -18.220001    2.070000   38.128000       1.0000      1.0079
  165   2 H    1     -17.250000    0.910000   38.108001       1.0000      1.0079
  166   1 O    8      10.980000   28.670002   32.878001       6.0000     15.9994
  167   2 H    1      11.550001   29.380001   32.488000       1.0000      1.0079
  168   2 H    1      10.060000   28.900002   32.688000       1.0000      1.0079
  169   1 O    8       8.910000   12.960000   39.498000       6.0000     15.9994
  170   2 H    1       7.930000   12.860001   39.418001       1.0000      1.0079
  171   2 H    1       9.250001   13.870001   39.258001       1.0000      1.0079
  172   1 O    8      -1.370000   21.260002   36.548001       6.0000     15.9994
  173   2 H    1      -1.720000   22.130001   36.358001       1.0000      1.0079
  174   2 H    1      -0.460000   21.470001   36.828000       1.0000      1.0079
  175   1 O    8       6.230001   12.440001   39.548002       6.0000     15.9994
  176   2 H    1       5.290000   12.540001   39.378000       1.0000      1.0079
  177   2 H    1       6.270000   11.410000   39.458000       1.0000      1.0079
  178   1 O    8      -8.250000    7.700000   32.898000       6.0000     15.9994
  179   2 H    1      -7.980001    7.380000   33.738000       1.0000      1.0079
  180   2 H    1      -9.220000    7.620000   32.958000       1.0000      1.0079
  181   1 O    8       4.130000   26.520002   35.758001       6.0000     15.9994
  182   2 H    1       3.190000   26.480003   36.168001       1.0000      1.0079
  183   2 H    1       4.630000   27.060001   36.388002       1.0000      1.0079
  184   1 O    8       3.930000   12.780001   29.968001       6.0000     15.9994
  185   2 H    1       3.400000   12.080001   29.358001       1.0000      1.0079
  186   2 H    1       3.200000   13.370000   30.238000       1.0000      1.0079
  187   1 O    8       0.360000   18.240002   29.908000       6.0000     15.9994
  188   2 H    1       0.410000   18.490002   28.918001       1.0000      1.0079
  189   2 H    1       1.040000   17.520000   29.908000       1.0000      1.0079
  190   1 O    8      -6.870000   15.430001   39.098001       6.0000     15.9994
  191   2 H    1      -6.560000   15.460001   40.058002       1.0000      1.0079
  192   2 H    1      -6.010000   15.350000   38.508001       1.0000      1.0079
  193   1 O    8      18.860001    1.140000   30.038000       6.0000     15.9994
  194   2 H    1      19.710001    1.600000   29.618000       1.0000      1.0079
  195   2 H    1      18.280001    1.890000   30.268000       1.0000      1.0079
  196   1 O    8     -27.960003   -4.910000   39.868001       6.0000     15.9994
  197   2 H    1     -27.200001   -4.400000   39.488000       1.0000      1.0079
  198   2 H    1     -27.630003   -5.810000   40.117999       1.0000      1.0079
  199   1 O    8     -24.520000    6.160001   30.598001       6.0000     15.9994
  200   2 H    1     -24.860001    6.470000   31.418001       1.0000      1.0079
  201   2 H    1     -24.600000    5.160000   30.528000       1.0000      1.0079
  202   1 O    8      16.070002   -3.190000   34.538000       6.0000     15.9994
  203   2 H    1      15.660001   -2.400000   35.048001       1.0000      1.0079
  204   2 H    1      15.730000   -3.210000   33.638000       1.0000      1.0079
  205   1 O    8      -1.570000  -21.310001   29.998000       6.0000     15.9994
  206   2 H    1      -1.050000  -22.130001   29.798001       1.0000      1.0079
  207   2 H    1      -2.470000  -21.580000   29.768001       1.0000      1.0079
  208   1 O    8     -15.270000   -2.270000   36.678001       6.0000     15.9994
  209   2 H    1     -15.800000   -1.950000   37.448001       1.0000      1.0079
  210   2 H    1     -15.390000   -1.540000   36.018001       1.0000      1.0079
  211   1 O    8      -0.330000    7.870001   33.388001       6.0000     15.9994
  212   2 H    1       0.290000    8.030001   32.648000       1.0000      1.0079
  213   2 H    1      16.780001    8.550000   34.018000       1.0000      1.0079
  214   1 O    8       0.190000  -19.500000   29.178001       6.0000     15.9994
  215   2 H    1      -0.610000  -20.080002   29.518000       1.0000      1.0079
  216   2 H    1      -0.200000  -18.580000   29.228000       1.0000      1.0079
  217   1 O    8      16.990002   10.220001   37.948001       6.0000     15.9994
  218   2 H    1      16.900002   11.120001   38.328002       1.0000      1.0079
  219   2 H    1       0.690000    9.700001   38.588001       1.0000      1.0079
  220   1 O    8     -14.170000  -22.590000   29.938000       6.0000     15.9994
  221   2 H    1     -13.500000  -23.320000   30.108000       1.0000      1.0079
  222   2 H    1     -13.870001  -21.950001   29.248000       1.0000      1.0079
  223   1 O    8       6.470000   -8.960000   36.068000       6.0000     15.9994
  224   2 H    1       6.520000   -9.090000   35.068000       1.0000      1.0079
  225   2 H    1       7.410001   -8.900001   36.208001       1.0000      1.0079
  226   1 O    8     -13.850001   29.100000   32.888001       6.0000     15.9994
  227   2 H    1     -14.420000   29.410002   32.128000       1.0000      1.0079
  228   2 H    1     -13.930000   28.120001   32.788001       1.0000      1.0079
  229   1 O    8     -10.340000   47.780003   38.208000       6.0000     15.9994
  230   2 H    1     -10.490000   48.250004   37.308002       1.0000      1.0079
  231   2 H    1      -9.520000   48.270000   38.448001       1.0000      1.0079
  232   1 O    8       2.230000   22.830000   35.178001       6.0000     15.9994
  233   2 H    1       3.180000   23.030003   35.498000       1.0000      1.0079
  234   2 H    1       1.730000   23.500002   35.758001       1.0000      1.0079
  235   1 O    8      22.600000   -0.810000   37.208000       6.0000     15.9994
  236   2 H    1      22.950001   -1.020000   38.078000       1.0000      1.0079
  237   2 H    1      23.310001   -0.610000   36.528001       1.0000      1.0079
  238   1 O    8     -17.390001   11.980001   30.118000       6.0000     15.9994
  239   2 H    1     -18.190001   12.340001   30.638000       1.0000      1.0079
  240   2 H    1     -16.810001   11.720000   30.898000       1.0000      1.0079
  241   1 O    8       7.760000  -11.650001   33.178001       6.0000     15.9994
  242   2 H    1       7.340000  -12.500000   33.328000       1.0000      1.0079
  243   2 H    1       8.070001  -11.600000   32.248000       1.0000      1.0079
  244   1 O    8      -4.020000   -2.790000   32.848001       6.0000     15.9994
  245   2 H    1      -4.640000   -2.200000   33.318001       1.0000      1.0079
  246   2 H    1      -4.220000   -2.790000   31.898000       1.0000      1.0079
  247   1 O    8      -2.660000   11.620001   33.708000       6.0000     15.9994
  248   2 H    1      -2.670000   10.710001   33.298002       1.0000      1.0079
  249   2 H    1      -3.450000   11.670000   34.308001       1.0000      1.0079
  250   1 O    8      18.570002    3.390000   34.428001       6.0000     15.9994
  251   2 H    1      17.680000    3.080000   34.018000       1.0000      1.0079
  252   2 H    1      18.790001    2.650000   35.008001       1.0000      1.0079
  253   1 O    8     -18.020000   16.770000   38.798000       6.0000     15.9994
  254   2 H    1     -17.570002   17.470001   39.298002       1.0000      1.0079
  255   2 H    1     -17.790001   16.840002   37.888002       1.0000      1.0079
  256   1 O    8       3.590000   29.970001   37.508001       6.0000     15.9994
  257   2 H    1       3.960000   30.880001   37.528001       1.0000      1.0079
  258   2 H    1       4.370000   29.380001   37.488000       1.0000      1.0079
  259   1 O    8      37.640003   16.340000   32.028000       6.0000     15.9994
  260   2 H    1      38.410000   16.750000   31.598001       1.0000      1.0079
  261   2 H    1      37.150002   16.970001   32.668001       1.0000      1.0079
  262   1 O    8      -4.990000   27.600002   38.968002       6.0000     15.9994
  263   2 H    1      -4.540000   28.450001   39.018001       1.0000      1.0079
  264   2 H    1      -4.910000   27.230000   38.088001       1.0000      1.0079
  265   1 O    8      22.850000    8.590000   30.748000       6.0000     15.9994
  266   2 H    1      23.450001    9.390000   30.778000       1.0000      1.0079
  267   2 H    1      22.120001    9.030001   30.268000       1.0000      1.0079
  268   1 O    8      -0.400000   14.370001   35.518001       6.0000     15.9994
  269   2 H    1      -0.460000   14.800000   34.628000       1.0000      1.0079
  270   2 H    1      -0.020000   13.450001   35.188001       1.0000      1.0079
  271   1 O    8     -15.310000    0.490000   35.258001       6.0000     15.9994
  272   2 H    1     -14.710001    0.380000   34.458000       1.0000      1.0079
  273   2 H    1     -14.630001    0.630000   36.008001       1.0000      1.0079
  274   1 O    8      -2.950000   -7.090001   33.378000       6.0000     15.9994
  275   2 H    1      -3.310000   -6.800000   32.528001       1.0000      1.0079
  276   2 H    1      -3.120000   -8.040000   33.278000       1.0000      1.0079
  277   1 O    8      19.230001   22.670002   30.168001       6.0000     15.9994
  278   2 H    1      19.580000   22.880001   31.088001       1.0000      1.0079
  279   2 H    1      18.620001   21.840000   30.238000       1.0000      1.0079
  280   1 O    8     -21.610001    4.520000   30.138001       6.0000     15.9994
  281   2 H    1     -21.660002    5.050000   31.018001       1.0000      1.0079
  282   2 H    1     -22.510002    4.400000   29.888000       1.0000      1.0079
  283   1 O    8       9.710001   26.180000   32.058000       6.0000     15.9994
  284   2 H    1       9.390000   26.440001   32.978000       1.0000      1.0079
  285   2 H    1      10.160000   25.360001   32.078000       1.0000      1.0079
  286   1 O    8      -8.220000   20.250000   38.708001       6.0000     15.9994
  287   2 H    1       9.080001   20.389999   37.828000       1.0000      1.0079
  288   2 H    1       9.250001   19.690001   39.288001       1.0000      1.0079
  289   1 O    8      19.620001   18.110001   36.838001       6.0000     15.9994
  290   2 H    1      19.210001   17.230000   36.708001       1.0000      1.0079
  291   2 H    1      19.020000   18.900002   36.518000       1.0000      1.0079
  292   1 O    8      13.550000   10.520000   29.948000       6.0000     15.9994
  293   2 H    1      14.440001   10.740000   29.788000       1.0000      1.0079
  294   2 H    1      13.220000   10.170001   29.138001       1.0000      1.0079
  295   1 O    8     -12.230001  -25.940001   36.408001       6.0000     15.9994
  296   2 H    1     -12.540001  -25.000000   36.328000       1.0000      1.0079
  297   2 H    1     -12.270001  -26.210001   35.458001       1.0000      1.0079
  298   1 O    8      -2.390000   24.160002   38.768001       6.0000     15.9994
  299   2 H    1      -1.840000   23.790001   39.548002       1.0000      1.0079
  300   2 H    1      -1.900000   23.980000   38.008001       1.0000      1.0079
  301   1 O    8     -19.670002   -5.290000   35.558001       6.0000     15.9994
  302   2 H    1     -19.070000   -4.570000   35.188001       1.0000      1.0079
  303   2 H    1      -3.120000   -5.780000   34.818000       1.0000      1.0079
  304   3 Pt  78       1.800000    0.720000   15.000000      10.0000    195.0840
  305   3 Pt  78       4.640000    0.770000   15.120003      10.0000    195.0840
  306   3 Pt  78       7.360001    0.660000   15.090004      10.0000    195.0840
  307   3 Pt  78      10.140000    0.630000   15.150002      10.0000    195.0840
  308   3 Pt  78      12.990000    0.740000   15.340000      10.0000    195.0840
  309   3 Pt  78      15.840001    0.710000   15.220001      10.0000    195.0840
  310   3 Pt  78       3.090000    3.080000   15.209999      10.0000    195.0840
  311   3 Pt  78       5.950000    3.120000   15.290001      10.0000    195.0840
  312   3 Pt  78       8.680000    3.140000   15.160004      10.0000    195.0840
  313   3 Pt  78      11.540001    3.190000   15.120003      10.0000    195.0840
  314   3 Pt  78      14.450001    3.020000   15.310001      10.0000    195.0840
  315   3 Pt  78       0.420000    3.180000   15.290001      10.0000    195.0840
  316   3 Pt  78       4.540000    5.530000   15.000000      10.0000    195.0840
  317   3 Pt  78       7.420001    5.650000   15.360001      10.0000    195.0840
  318   3 Pt  78      10.150002    5.610001   15.120003      10.0000    195.0840
  319   3 Pt  78      12.990000    5.500000   15.139999      10.0000    195.0840
  320   3 Pt  78      -1.140000    5.510000   15.200001      10.0000    195.0840
  321   3 Pt  78       1.730000    5.540000   15.110001      10.0000    195.0840
  322   3 Pt  78       5.940001    8.000000   15.100002      10.0000    195.0840
  323   3 Pt  78       8.850000    8.000000   15.200001      10.0000    195.0840
  324   3 Pt  78      11.660000    8.000000   15.190002      10.0000    195.0840
  325   3 Pt  78      -2.440000    8.130000   15.180000      10.0000    195.0840
  326   3 Pt  78       0.370000    8.030001   15.080002      10.0000    195.0840
  327   3 Pt  78       3.220000    8.000000   15.010002      10.0000    195.0840
  328   3 Pt  78       7.290000   10.440001   15.139999      10.0000    195.0840
  329   3 Pt  78      10.240001   10.460000   15.240002      10.0000    195.0840
  330   3 Pt  78      -4.020000   10.490000   15.250004      10.0000    195.0840
  331   3 Pt  78      -1.140000   10.470000   15.150002      10.0000    195.0840
  332   3 Pt  78       1.750000   10.320001   15.120003      10.0000    195.0840
  333   3 Pt  78       4.490000   10.470000   15.040001      10.0000    195.0840
  334   3 Pt  78       8.830000   12.950001   15.049999      10.0000    195.0840
  335   3 Pt  78      -5.310000   13.010001   15.100002      10.0000    195.0840
  336   3 Pt  78      -2.520000   12.880001   15.120003      10.0000    195.0840
  337   3 Pt  78       0.300000   12.740001   15.150002      10.0000    195.0840
  338   3 Pt  78       3.150000   12.810000   15.320004      10.0000    195.0840
  339   3 Pt  78       5.930000   12.780001   15.160004      10.0000    195.0840
  340   3 Pt  78       0.260000    1.540000   17.470001      10.0000    195.0840
  341   3 Pt  78       3.050000    1.460000   17.500000      10.0000    195.0840
  342   3 Pt  78       5.770000    1.540000   17.600002      10.0000    195.0840
  343   3 Pt  78       8.720000    1.410000   17.490002      10.0000    195.0840
  344   3 Pt  78      11.350001    1.400000   17.600002      10.0000    195.0840
  345   3 Pt  78      14.230001    1.540000   17.650002      10.0000    195.0840
  346   3 Pt  78       1.740000    3.970000   17.500000      10.0000    195.0840
  347   3 Pt  78       4.520000    3.990000   17.580002      10.0000    195.0840
  348   3 Pt  78       7.410001    3.890000   17.670002      10.0000    195.0840
  349   3 Pt  78      10.140000    3.850000   17.549999      10.0000    195.0840
  350   3 Pt  78      12.910000    3.860000   17.580002      10.0000    195.0840
  351   3 Pt  78      -1.010000    3.900000   17.549999      10.0000    195.0840
  352   3 Pt  78       3.160000    6.370000   17.390003      10.0000    195.0840
  353   3 Pt  78       5.990000    6.360001   17.530003      10.0000    195.0840
  354   3 Pt  78       8.820001    6.450000   17.600002      10.0000    195.0840
  355   3 Pt  78      11.590000    6.400001   17.480000      10.0000    195.0840
  356   3 Pt  78      -2.540000    6.340000   17.410000      10.0000    195.0840
  357   3 Pt  78       0.370000    6.470000   17.390003      10.0000    195.0840
  358   3 Pt  78       4.570000    8.870000   17.530003      10.0000    195.0840
  359   3 Pt  78       7.250000    8.730000   17.510002      10.0000    195.0840
  360   3 Pt  78      10.150002    8.780001   17.549999      10.0000    195.0840
  361   3 Pt  78      -3.940000    8.750001   17.460003      10.0000    195.0840
  362   3 Pt  78      -1.010000    8.800000   17.460003      10.0000    195.0840
  363   3 Pt  78       1.780000    8.850000   17.549999      10.0000    195.0840
  364   3 Pt  78       5.810000   11.340000   17.490002      10.0000    195.0840
  365   3 Pt  78       8.670000   11.230000   17.470001      10.0000    195.0840
  366   3 Pt  78      -5.370000   11.370001   17.430000      10.0000    195.0840
  367   3 Pt  78      -2.570000   11.240001   17.530003      10.0000    195.0840
  368   3 Pt  78       0.330000   11.250000   17.530003      10.0000    195.0840
  369   3 Pt  78       3.100000   11.190001   17.450001      10.0000    195.0840
  370   3 Pt  78       7.350000   13.720001   17.520004      10.0000    195.0840
  371   3 Pt  78      -6.740000   13.740001   17.390003      10.0000    195.0840
  372   3 Pt  78      -3.910000   13.610001   17.580002      10.0000    195.0840
  373   3 Pt  78      -1.190000   13.650000   17.450001      10.0000    195.0840
  374   3 Pt  78       1.590000   13.610001   17.480000      10.0000    195.0840
  375   3 Pt  78       4.500000   13.750001   17.590004      10.0000    195.0840
  376   3 Pt  78      -8.260000   14.560001   19.810001      10.0000    195.0840
  377   3 Pt  78      -5.430000   14.520000   19.710003      10.0000    195.0840
  378   3 Pt  78      -2.590000   14.420000   19.790001      10.0000    195.0840
  379   3 Pt  78       0.160000   14.400001   19.870003      10.0000    195.0840
  380   3 Pt  78       3.030000   14.470000   19.860001      10.0000    195.0840
  381   3 Pt  78       5.800000   14.520000   19.950001      10.0000    195.0840
  382   3 Pt  78       1.580000    2.400000   19.780003      10.0000    195.0840
  383   3 Pt  78       4.400000    2.380000   19.820000      10.0000    195.0840
  384   3 Pt  78       7.230001    2.340000   19.970005      10.0000    195.0840
  385   3 Pt  78      10.020000    2.130000   19.920002      10.0000    195.0840
  386   3 Pt  78      12.850000    2.310000   20.000000      10.0000    195.0840
  387   3 Pt  78      -1.260000    2.260000   19.810001      10.0000    195.0840
  388   3 Pt  78       3.110000    4.830000   19.730003      10.0000    195.0840
  389   3 Pt  78       5.840001    4.780000   19.850002      10.0000    195.0840
  390   3 Pt  78       8.700001    4.790000   19.889999      10.0000    195.0840
  391   3 Pt  78      11.380000    4.780000   19.840004      10.0000    195.0840
  392   3 Pt  78      -2.590000    4.710000   19.830002      10.0000    195.0840
  393   3 Pt  78       0.250000    4.800000   19.810001      10.0000    195.0840
  394   3 Pt  78       4.440001    7.240000   19.780003      10.0000    195.0840
  395   3 Pt  78       7.240000    7.140000   19.889999      10.0000    195.0840
  396   3 Pt  78      10.030001    7.340000   19.840004      10.0000    195.0840
  397   3 Pt  78      -4.070000    7.150001   19.870003      10.0000    195.0840
  398   3 Pt  78      -1.130000    7.120000   19.810001      10.0000    195.0840
  399   3 Pt  78       1.700000    7.160000   19.830002      10.0000    195.0840
  400   3 Pt  78       5.800000    9.710001   19.830002      10.0000    195.0840
  401   3 Pt  78       8.610001    9.680000   19.760002      10.0000    195.0840
  402   3 Pt  78      -5.380001    9.670001   19.770004      10.0000    195.0840
  403   3 Pt  78      -2.580000    9.600000   19.780003      10.0000    195.0840
  404   3 Pt  78       0.210000    9.600000   19.920002      10.0000    195.0840
  405   3 Pt  78       2.990000    9.670001   19.920002      10.0000    195.0840
  406   3 Pt  78       7.170000   12.120000   19.880001      10.0000    195.0840
  407   3 Pt  78      -6.890000   12.110001   19.690002      10.0000    195.0840
  408   3 Pt  78      -4.010000   12.030001   19.820000      10.0000    195.0840
  409   3 Pt  78      -1.210000   11.990000   19.870003      10.0000    195.0840
  410   3 Pt  78       1.550000   12.120000   19.880001      10.0000    195.0840
  411   3 Pt  78       4.340000   12.140001   19.850002      10.0000    195.0840
  412   3 Pt  78       1.570000    0.710000   22.008000      10.0000    195.0840
  413   3 Pt  78       4.380000    0.640000   22.038000      10.0000    195.0840
  414   3 Pt  78       7.140000    0.640000   22.218000      10.0000    195.0840
  415   3 Pt  78       9.910001    0.670000   22.228000      10.0000    195.0840
  416   3 Pt  78      12.760000    0.660000   22.258000      10.0000    195.0840
  417   3 Pt  78      15.520000    0.730000   22.228000      10.0000    195.0840
  418   3 Pt  78       3.020000    3.100000   22.108000      10.0000    195.0840
  419   3 Pt  78       5.750000    3.140000   22.198000      10.0000    195.0840
  420   3 Pt  78       8.530001    3.220000   22.188000      10.0000    195.0840
  421   3 Pt  78      11.320001    3.120000   22.158000      10.0000    195.0840
  422   3 Pt  78      14.170000    3.100000   22.268000      10.0000    195.0840
  423   3 Pt  78       0.190000    3.120000   22.078000      10.0000    195.0840
  424   3 Pt  78       4.340000    5.600000   22.128000      10.0000    195.0840
  425   3 Pt  78       7.130001    5.630000   22.118000      10.0000    195.0840
  426   3 Pt  78       9.930000    5.660000   22.168000      10.0000    195.0840
  427   3 Pt  78      12.630000    5.530000   22.168000      10.0000    195.0840
  428   3 Pt  78      -1.270000    5.540000   22.128000      10.0000    195.0840
  429   3 Pt  78       1.730000    5.480001   22.078000      10.0000    195.0840
  430   3 Pt  78       5.760000    8.100000   22.078000      10.0000    195.0840
  431   3 Pt  78       8.590000    8.090000   22.168000      10.0000    195.0840
  432   3 Pt  78      11.410000    8.030001   22.178000      10.0000    195.0840
  433   3 Pt  78      -2.660000    7.910000   22.168000      10.0000    195.0840
  434   3 Pt  78       0.180000    7.880001   22.148000      10.0000    195.0840
  435   3 Pt  78       2.990000    7.950000   22.138000      10.0000    195.0840
  436   3 Pt  78       7.260000   10.500001   22.098000      10.0000    195.0840
  437   3 Pt  78       9.950001   10.410000   22.058000      10.0000    195.0840
  438   3 Pt  78      -4.030000   10.370001   22.068000      10.0000    195.0840
  439   3 Pt  78      -1.250000   10.360001   22.208000      10.0000    195.0840
  440   3 Pt  78       1.480000   10.440001   22.208000      10.0000    195.0840
  441   3 Pt  78       4.320000   10.460000   22.148000      10.0000    195.0840
  442   3 Pt  78       8.660001   12.950001   22.128000      10.0000    195.0840
  443   3 Pt  78      -5.500000   12.770000   21.908000      10.0000    195.0840
  444   3 Pt  78      -2.660000   12.820001   22.148000      10.0000    195.0840
  445   3 Pt  78       0.110000   12.750001   22.208000      10.0000    195.0840
  446   3 Pt  78       2.920000   12.830001   22.258000      10.0000    195.0840
  447   3 Pt  78       5.780000   12.870001   22.188000      10.0000    195.0840
  448   3 Pt  78       0.190000    1.440000   24.518000      10.0000    195.0840
  449   3 Pt  78       2.990000    1.530000   24.418000      10.0000    195.0840
  450   3 Pt  78       5.820000    1.600000   24.628000      10.0000    195.0840
  451   3 Pt  78       8.680000    1.510000   24.538000      10.0000    195.0840
  452   3 Pt  78      11.510000    1.480000   24.428000      10.0000    195.0840
  453   3 Pt  78      14.380001    1.490000   24.478000      10.0000    195.0840
  454   3 Pt  78       1.720000    3.900000   24.418000      10.0000    195.0840
  455   3 Pt  78       4.430000    3.930000   24.528000      10.0000    195.0840
  456   3 Pt  78       7.230001    3.930000   24.488000      10.0000    195.0840
  457   3 Pt  78      10.050000    3.950000   24.468000      10.0000    195.0840
  458   3 Pt  78      12.870001    3.940000   24.418000      10.0000    195.0840
  459   3 Pt  78      -1.110000    3.970000   24.448000      10.0000    195.0840
  460   3 Pt  78       3.070000    6.250000   24.568000      10.0000    195.0840
  461   3 Pt  78       5.800000    6.420000   24.368000      10.0000    195.0840
  462   3 Pt  78       8.600000    6.460000   24.548000      10.0000    195.0840
  463   3 Pt  78      11.470001    6.390000   24.438000      10.0000    195.0840
  464   3 Pt  78      -2.670000    6.370000   24.428000      10.0000    195.0840
  465   3 Pt  78       0.230000    6.300001   24.448000      10.0000    195.0840
  466   3 Pt  78       4.360000    8.750001   24.318000      10.0000    195.0840
  467   3 Pt  78       7.260000    8.890000   24.368000      10.0000    195.0840
  468   3 Pt  78      10.040001    8.860001   24.508000      10.0000    195.0840
  469   3 Pt  78      -4.070000    8.880001   24.498000      10.0000    195.0840
  470   3 Pt  78      -1.310000    8.750001   24.528000      10.0000    195.0840
  471   3 Pt  78       1.580000    8.680000   24.448000      10.0000    195.0840
  472   3 Pt  78       5.730000   11.320001   24.408000      10.0000    195.0840
  473   3 Pt  78       8.650001   11.290001   24.458000      10.0000    195.0840
  474   3 Pt  78      -5.390000   11.260000   24.328000      10.0000    195.0840
  475   3 Pt  78      -2.640000   11.240001   24.548000      10.0000    195.0840
  476   3 Pt  78       0.130000   11.140001   24.558000      10.0000    195.0840
  477   3 Pt  78       2.920000   11.240001   24.548000      10.0000    195.0840
  478   3 Pt  78       7.140000   13.580000   24.618000      10.0000    195.0840
  479   3 Pt  78      -6.800000   13.690001   24.318000      10.0000    195.0840
  480   3 Pt  78      -4.020000   13.680000   24.328000      10.0000    195.0840
  481   3 Pt  78      -1.270000   13.800001   24.508000      10.0000    195.0840
  482   3 Pt  78       1.580000   13.700001   24.568000      10.0000    195.0840
  483   3 Pt  78       4.380000   13.660001   24.578000      10.0000    195.0840
  484   3 Pt  78      -8.360001   14.350000   26.898000      10.0000    195.0840
  485   3 Pt  78      -5.360000   14.330001   26.608000      10.0000    195.0840
  486   3 Pt  78      -2.640000   14.360001   26.958001      10.0000    195.0840
  487   3 Pt  78       0.220000   14.540001   26.858000      10.0000    195.0840
  488   3 Pt  78       3.000000   14.370001   26.898000      10.0000    195.0840
  489   3 Pt  78       5.740000   14.450001   27.048001      10.0000    195.0840
  490   3 Pt  78       1.700000    2.160000   26.848000      10.0000    195.0840
  491   3 Pt  78       4.470000    2.120000   26.978000      10.0000    195.0840
  492   3 Pt  78       7.290000    2.220000   26.898000      10.0000    195.0840
  493   3 Pt  78      10.130000    2.250000   26.828000      10.0000    195.0840
  494   3 Pt  78      12.880001    2.150000   26.778000      10.0000    195.0840
  495   3 Pt  78      -1.020000    2.250000   26.838000      10.0000    195.0840
  496   3 Pt  78       3.120000    4.660000   26.838000      10.0000    195.0840
  497   3 Pt  78       5.920000    4.590000   26.768000      10.0000    195.0840
  498   3 Pt  78       8.650001    4.610000   26.778000      10.0000    195.0840
  499   3 Pt  78      11.370001    4.650001   26.698000      10.0000    195.0840
  500   3 Pt  78      -2.620000    4.670000   26.738000      10.0000    195.0840
  501   3 Pt  78       0.420000    4.620000   26.848000      10.0000    195.0840
  502   3 Pt  78       4.530000    7.150001   26.678001      10.0000    195.0840
  503   3 Pt  78       7.190001    7.070000   26.968000      10.0000    195.0840
  504   3 Pt  78      10.090000    7.120000   27.008001      10.0000    195.0840
  505   3 Pt  78      -4.100000    7.130001   26.788000      10.0000    195.0840
[...]
 -                                                                             -
 -------------------------------------------------------------------------------
 COUNTER                                    TOTAL       BLAS       SMM       ACC
 flops     5 x    32 x     5           4046764800       0.0%    100.0%      0.0%
 flops    13 x    32 x     5           5144730240       0.0%    100.0%      0.0%
 flops     5 x    32 x    13           5144730240       0.0%    100.0%      0.0%
 flops    13 x    32 x    13           6027951488       0.0%    100.0%      0.0%
 flops     5 x     5 x    96           7871232000       0.0%    100.0%      0.0%
 flops    13 x    32 x    20           8450490880       0.0%    100.0%      0.0%
 flops    20 x    32 x    13           8450490880       0.0%    100.0%      0.0%
 flops     5 x    32 x    20           9088704000       0.0%    100.0%      0.0%
 flops    20 x    32 x     5           9088704000       0.0%    100.0%      0.0%
 flops     5 x    13 x    96           9949056000       0.0%    100.0%      0.0%
 flops    13 x     5 x    96           9966028800       0.0%    100.0%      0.0%
 flops    13 x    13 x    96          11798092800       0.0%    100.0%      0.0%
 flops    20 x    13 x    96          16333824000       0.0%    100.0%      0.0%
 flops    13 x    20 x    96          16377753600       0.0%    100.0%      0.0%
 flops    20 x     5 x    96          17577984000       0.0%    100.0%      0.0%
 flops     5 x    20 x    96          17604096000       0.0%    100.0%      0.0%
 flops     5 x     5 x   128          73464832000       0.0%    100.0%      0.0%
 flops    20 x    32 x    20          74052403200       0.0%    100.0%      0.0%
 flops     5 x    13 x   128          92857856000       0.0%    100.0%      0.0%
 flops    13 x     5 x   128          93016268800       0.0%    100.0%      0.0%
 flops    13 x    13 x   128         110115532800       0.0%    100.0%      0.0%
 flops    20 x    20 x    96         143990784000       0.0%    100.0%      0.0%
 flops    20 x    13 x   128         152449024000       0.0%    100.0%      0.0%
 flops    13 x    20 x   128         152859033600       0.0%    100.0%      0.0%
 flops    20 x     5 x   128         164061184000       0.0%    100.0%      0.0%
 flops     5 x    20 x   128         164304896000       0.0%    100.0%      0.0%
 flops    20 x    20 x   128        1343913984000       0.0%    100.0%      0.0%
 flops inhomo. stacks                           0       0.0%      0.0%      0.0%
 flops total                         2.728006E+12       0.0%    100.0%      0.0%
 flops max/rank                     23.726839E+09       0.0%    100.0%      0.0%
 matmuls inhomo. stacks                         0       0.0%      0.0%      0.0%
 matmuls total                           76002630       0.0%    100.0%      0.0%
 number of processed stacks                758132       0.0%    100.0%      0.0%
 average stack size                                     0.0     100.2       0.0
 marketing flops                     5.627917E+12
 -------------------------------------------------------------------------------
 # multiplications                             41
 max memory usage/rank               1.617273E+09
 # max total images/rank                        2
 # max 3D layers                                1
 # MPI messages exchanged                  152192
 MPI messages size (bytes):
  total size                        97.439416E+09
  min size                         288.768000E+03
  max size                           2.225352E+06
  average size                     640.240062E+03
 MPI breakdown and total messages size (bytes):
             size <=      128                   0                        0
       128 < size <=     8192                   0                        0
      8192 < size <=    32768                   0                        0
     32768 < size <=   131072                   0                        0
    131072 < size <=  4194304              152192              97439414872
   4194304 < size <= 16777216                   0                        0
  16777216 < size                               0                        0
 -------------------------------------------------------------------------------

 *** WARNING in dbcsr_mm.F:290 :: Using a non-square number of MPI ranks ***
 *** might lead to poor performance. Used ranks: 128 Suggested: 121 256  ***

 -------------------------------------------------------------------------------
 -                                                                             -
 -                      DBCSR MESSAGE PASSING PERFORMANCE                      -
 -                                                                             -
 -------------------------------------------------------------------------------
 ROUTINE             CALLS      AVE VOLUME [Bytes]
 MP_Bcast               28                     12.
 MP_Allreduce          354                     11.
 MP_Alltoall          1141                 576801.
 MP_ISend             2624                 302005.
 MP_IRecv             2624                 295562.
 -------------------------------------------------------------------------------

 -------------------------------------------------------------------------------
 -                                                                             -
 -                                DBM STATISTICS                               -
 -                                                                             -
 -------------------------------------------------------------------------------
    M  x    N  x    K                                          COUNT     PERCENT
 -------------------------------------------------------------------------------

 -------------------------------------------------------------------------------
 -                                                                             -
 -                                GRID STATISTICS                              -
 -                                                                             -
 -------------------------------------------------------------------------------
 LP    KERNEL             BACKEND                              COUNT     PERCENT
 4     collocate general  REF                               15780687      22.10%
 4     integrate general  REF                               15657002      21.93%
 3     collocate general  REF                               10956972      15.35%
 3     integrate general  REF                               10902321      15.27%
 2     collocate general  REF                                8825583      12.36%
 2     integrate general  REF                                8599286      12.05%
 5     integrate general  REF                                 404633       0.57%
 0     collocate general  REF                                 132864       0.19%
 0     integrate general  REF                                  66432       0.09%
 1     integrate general  REF                                  66432       0.09%
 -------------------------------------------------------------------------------

 MEMORY| Estimated peak process memory [MiB]                                1794

 -------------------------------------------------------------------------------
 ----                             MULTIGRID INFO                            ----
 -------------------------------------------------------------------------------
 count for grid        1:        1096240          cutoff [a.u.]          200.00
 count for grid        2:        1091007          cutoff [a.u.]           66.67
 count for grid        3:         715451          cutoff [a.u.]           22.22
 count for grid        4:         554512          cutoff [a.u.]            7.41
 total gridlevel count  :        3457210

 -------------------------------------------------------------------------------
 -                                                                             -
 -                         MESSAGE PASSING PERFORMANCE                         -
 -                                                                             -
 -------------------------------------------------------------------------------

 ROUTINE             CALLS      AVE VOLUME [Bytes]
 MP_Group                4
 MP_Bcast             2213                 305473.
 MP_Allreduce         3428                  31815.
 MP_Sync                84
 MP_Alltoall          2362               16364126.
 MP_SendRecv           508                   6225.
 MP_ISendRecv        19812                  61740.
 MP_Wait             35118
 MP_comm_split          40
 MP_ISend            14428                 256115.
 MP_IRecv            14428                 256115.
 MP_Recv               122                1700608.
 MP_Write_All            3                1797408.
 -------------------------------------------------------------------------------


 -------------------------------------------------------------------------------
 -                                                                             -
 -                           R E F E R E N C E S                               -
 -                                                                             -
 -------------------------------------------------------------------------------
 
 CP2K version 2022.1, the CP2K developers group (2022).
 CP2K is freely available from https://www.cp2k.org/ .

 Kuehne,Thomas D.; Iannuzzi,Marcella; Del Ben,Mauro;
 Rybkin,Vladimir V.; Seewald,Patrick; Stein,Frederick; Laino,Teodoro;
 Khaliullin,Rustam Z.; Schuett,Ole; Schiffmann,Florian; Golze,Dorothea;
 Wilhelm,Jan; Chulkov,Sergey; Bani-Hashemian,Mohammad Hossein;
 Weber,Valery; Borstnik,Urban; Taillefumier,Mathieu;
 Jakobovits,Alice Shoshana; Lazzaro,Alfio; Pabst,Hans; Mueller,Tiziano;
 Schade,Robert; Guidon,Manuel; Andermatt,Samuel; Holmberg,Nico;
 Schenter,Gregory K.; Hehn,Anna; Bussy,Augustin; Belleflamme,Fabian;
 Tabacchi,Gloria; Gloess,Andreas; Lass,Michael; Bethune,Iain;
 Mundy,Christopher J.; Plessl,Christian; Watkins,Matt;
 VandeVondele,Joost; Krack,Matthias; Hutter,Juerg. 
 The Journal of Chemical Physics, 152 (19), (2020). 
 CP2K: An electronic structure and molecular dynamics software package -
 Quickstep: Efficient and accurate electronic structure calculations.
 https://doi.org/10.1063/5.0007045

 Goerigk, Lars; Hansen, Andreas; Bauer, Christoph; Ehrlich, Stephan;
 Najibi, Asim; Grimme, Stefan. , 19 (48), (2017). 
 A look at the density functional theory zoo with the advanced GMTKN55 database
 for general main group thermochemistry, kinetics and noncovalent interactions.
 https://doi.org/10.1039/C7CP04913G

 Bani-Hashemian, MH; Bruck, S; Luisier, M; VandeVondele, J. 
 JOURNAL OF CHEMICAL PHYSICS, 144 (4), 044113 (2016). 
 A generalized Poisson solver for first-principles device simulations.
 https://doi.org/10.1063/1.4940796

 Schuett, Ole; Messmer, Peter; Hutter, Juerg; VandeVondele, Joost. 
 Electronic Structure Calculations on Graphics Processing Units, John
 Wiley & Sons, Ltd, 173-190 (2016). 
 GPU-Accelerated Sparse Matrix-Matrix Multiplication for
 Linear Scaling Density Functional Theory.
 https://doi.org/10.1002/9781118670712.ch8

 Heinecke, A; Henry, G; Hutchinson, M; Pabst, H. 
 Proceedings of Intl. Supercomputing Conference, 981-991 (2016). 
 LIBXSMM: Accelerating Small Matrix Multiplications
 by Runtime Code Generation.
 https://doi.org/10.1109/SC.2016.83

 Borstnik, U; VandeVondele, J; Weber, V; Hutter, J. 
 PARALLEL COMPUTING, 40 (5-6), 47-58 (2014). 
 Sparse matrix multiplication: The distributed block-compressed sparse
 row library.
 https://doi.org/10.1016/j.parco.2014.03.012

 Hutter, J; Iannuzzi, M; Schiffmann, F; VandeVondele, J. 
 WIREs Comput Mol Sci., 4 (1), 15-25 (2014). 
 CP2K: atomistic simulations of condensed matter systems.
 https://doi.org/10.1002/wcms.1159

 Marek, A; Blum, V; Johanni, R; Havu, V; Lang, B; Auckenthaler, T;
 Heinecke, A; Bungartz, H; Lederer, H. 
 Journal of Physics: Condensed Matter, 26 (21), (2014). 
 The ELPA library: scalable parallel eigenvalue solutions for
 electronic structure
 theory and computational science.
 https://doi.org/10.1088/0953-8984/26/21/213201

 Grimme, S; Ehrlich, S; Goerigk, L. 
 JOURNAL OF COMPUTATIONAL CHEMISTRY, 32, 1456 (2011). 
 Effect of the damping function in dispersion corrected density functional theory.
 https://doi.org/10.1002/jcc.21759

 Grimme, S; Antony, J; Ehrlich, S; Krieg, H. 
 JOURNAL OF CHEMICAL PHYSICS, 132 (15), 154104 (2010). 
 A consistent and accurate ab initio parametrization of density
 functional dispersion correction (DFT-D) for the 94 elements H-Pu.
 https://doi.org/10.1063/1.3382344

 VandeVondele, J; Hutter, J. 
 JOURNAL OF CHEMICAL PHYSICS, 127 (11), 114105 (2007). 
 Gaussian basis sets for accurate calculations on molecular systems in
 gas and condensed phases.
 https://doi.org/10.1063/1.2770708

 Krack, M. 
 THEORETICAL CHEMISTRY ACCOUNTS, 114 (1-3), 145-152 (2005). 
 Pseudopotentials for H to Kr optimized for gradient-corrected
 exchange-correlation functionals.
 https://doi.org/10.1007/s00214-005-0655-y

 VandeVondele, J; Krack, M; Mohamed, F; Parrinello, M; Chassaing, T;
 Hutter, J. COMPUTER PHYSICS COMMUNICATIONS, 167 (2), 103-128 (2005). 
 QUICKSTEP: Fast and accurate density functional calculations using a
 mixed Gaussian and plane waves approach.
 https://doi.org/10.1016/j.cpc.2004.12.014

 Frigo, M; Johnson, SG. 
 PROCEEDINGS OF THE IEEE, 93 (2), 216-231 (2005). 
 The design and implementation of FFTW3.
 https://doi.org/10.1109/JPROC.2004.840301

 Hartwigsen, C; Goedecker, S; Hutter, J. 
 PHYSICAL REVIEW B, 58 (7), 3641-3662 (1998). 
 Relativistic separable dual-space Gaussian pseudopotentials from H to Rn.
 https://doi.org/10.1103/PhysRevB.58.3641

 Lippert, G; Hutter, J; Parrinello, M. 
 MOLECULAR PHYSICS, 92 (3), 477-487 (1997). 
 A hybrid Gaussian and plane wave density functional scheme.
 https://doi.org/10.1080/002689797170220

 Perdew, JP; Burke, K; Ernzerhof, M. 
 PHYSICAL REVIEW LETTERS, 77 (18), 3865-3868 (1996). 
 Generalized gradient approximation made simple.
 https://doi.org/10.1103/PhysRevLett.77.3865

 Goedecker, S; Teter, M; Hutter, J. 
 PHYSICAL REVIEW B, 54 (3), 1703-1710 (1996). 
 Separable dual-space Gaussian pseudopotentials.
 https://doi.org/10.1103/PhysRevB.54.1703


 -------------------------------------------------------------------------------
 -                                                                             -
 -                                T I M I N G                                  -
 -                                                                             -
 -------------------------------------------------------------------------------
 SUBROUTINE                       CALLS  ASD         SELF TIME        TOTAL TIME
                                MAXIMUM       AVERAGE  MAXIMUM  AVERAGE  MAXIMUM
 CP2K                                 1  1.0    0.019    0.035  280.394  280.395
 qs_forces                            1  2.0    0.002    0.004  280.047  280.048
 qs_energies                          1  3.0    0.000    0.001  273.893  273.897
 scf_env_do_scf                       1  4.0    0.000    0.000  264.803  264.941
 scf_env_do_scf_inner_loop           38  5.0    0.002    0.006  264.799  264.937
 rebuild_ks_matrix                   39  6.9    0.000    0.000  142.265  142.348
 qs_ks_build_kohn_sham_matrix        39  7.9    0.006    0.007  142.265  142.348
 qs_ks_update_qs_env                 38  6.0    0.000    0.000  138.185  138.267
 pw_transfer                       2032 12.2    0.148    0.199   88.908   90.842
 fft_wrap_pw1pw2                   2032 13.2    0.019    0.027   88.760   90.643
 fft_wrap_pw1pw2_200               1798 14.4    5.983    7.050   87.595   89.407
 qs_scf_new_mos                      38  6.0    0.002    0.005   76.303   76.389
 pw_poisson_solve                    39  8.9    0.004    0.009   76.346   76.381
 fft3d_ps                          2032 15.2   25.561   28.580   71.429   74.144
 implicit_poisson_solver_mixed_      39  9.9    1.607    1.951   72.259   72.320
 eigensolver                         38  7.0    0.003    0.005   71.664   71.907
 derive_fft                         234 12.1    0.015    0.018   50.607   50.763
 cp_fm_diag_elpa                     40  8.1    0.001    0.001   50.250   50.374
 cp_fm_redistribute_end              40  9.1    6.652   49.795    6.736   49.838
 cp_fm_diag_elpa_base                40  9.0   42.455   48.724   42.866   49.152
 mp_alltoall_z22v                  2032 17.2   38.464   47.781   38.464   47.781
 qs_rho_update_rho_low               39  6.0    0.000    0.000   44.871   44.879
 calculate_rho_elec                  39  7.0    0.075    0.093   44.871   44.879
 sum_up_and_integrate                39  8.9    0.212    0.257   44.157   44.247
 integrate_v_rspace                  39  9.9    0.001    0.002   43.945   44.067
 apply_P_operator                   195 11.1    1.040    1.149   43.219   43.353
 grid_collocate_task_list            39  8.0   28.357   35.516   28.357   35.516
 grid_integrate_task_list            39 10.9   26.412   32.414   26.412   32.414
 x_to_yz                           1171 16.4    4.953    6.374   28.776   30.020
 rs_pw_transfer                     316 10.4    0.004    0.004   20.367   26.438
 cp_fm_triangular_multiply          114  8.0   22.890   23.116   22.890   23.116
 yz_to_x                            627 16.4    1.710    1.972   16.205   22.034
 density_rs2pw                       39  8.0    0.003    0.008   15.629   21.845
 qs_vxc_create                       39  8.9    0.001    0.003   19.467   19.717
 xc_vxc_pw_create                    39  9.9    0.333    0.412   19.466   19.716
 rs_pw_transfer_RS2PW_200            41  9.9    2.680    3.011    9.745   15.825
 mp_waitany                       14428 12.3    9.601   15.502    9.601   15.502
 xc_pw_derive                       234 11.9    0.003    0.004   13.731   15.190
 mp_alltoall_d11v                   568 10.3    7.754   13.624    7.754   13.624
 apply_poisson_operator_fft          39 10.9    0.001    0.001   12.641   12.855
 rs_gather_matrices                  39 10.9    0.047    0.057    6.472   12.245
 apply_inv_laplace_operator_fft     119 11.6    0.299    0.340   11.632   12.098
 potential_pw2rs                     39 10.9    0.012    0.015   11.045   11.133
 xc_pw_divergence                    39 10.9    0.002    0.002    9.375   10.495
 xc_rho_set_and_dset_create          39 10.9    0.194    0.229    9.389    9.980
 ps_implicit_compute_error_fft       78 10.9    0.490    0.598    8.682    9.340
 ps_implicit_compute_veps            39 10.9    0.227    0.276    8.657    8.799
 pw_scatter_p                      1288 15.4    7.221    8.396    7.221    8.396
 rs_pw_transfer_PW2RS_200            41 12.7    3.103    3.283    6.453    6.631
 gspace_mixing                       37  6.0    0.071    0.087    6.369    6.370
 pw_derive                          936 13.0    5.935    6.363    5.935    6.363
 scf_post_calculation_gpw             1  4.0    0.000    0.001    5.703    5.709
 write_available_results              1  5.0    0.000    0.000    5.703    5.709
 -------------------------------------------------------------------------------

 The number of warnings for this run is : 1
 
 -------------------------------------------------------------------------------
  **** **** ******  **  PROGRAM ENDED AT                 2023-12-02 12:48:55.419
 ***** ** ***  *** **   PROGRAM RAN ON                                     cu098
 **    ****   ******    PROGRAM RAN BY                                     jxzhu
 ***** **    ** ** **   PROGRAM PROCESS ID                                 54813
  **** **  *******  **  PROGRAM STOPPED IN /public/home/jxzhu/tmp_calc/524ce499b
                                           5b1cc41aa20dc4371d7c5c5be6f12e5/calc/
                                           001500.000/search_lo.000003
