 DBCSR| CPU Multiplication driver                                           XSMM
 DBCSR| Multrec recursion limit                                              512
 DBCSR| Multiplication stack size                                           1000
 DBCSR| Maximum elements for images                                    UNLIMITED
 DBCSR| Multiplicative factor virtual images                                   1
 DBCSR| Use multiplication densification                                       T
 DBCSR| Multiplication size stacks                                             3
 DBCSR| Use memory pool for CPU allocation                                     F
 DBCSR| Number of 3D layers                                               SINGLE
 DBCSR| Use MPI memory allocation                                              F
 DBCSR| Use RMA algorithm                                                      F
 DBCSR| Use Communication thread                                               T
 DBCSR| Communication thread load                                             87
 DBCSR| MPI: My node id                                                        0
 DBCSR| MPI: Number of nodes                                                 128
 DBCSR| OMP: Current number of threads                                         1
 DBCSR| OMP: Max number of threads                                             1
 DBCSR| Split modifier for TAS multiplication algorithm                  1.0E+00


  **** **** ******  **  PROGRAM STARTED AT               2023-12-02 16:43:18.874
 ***** ** ***  *** **   PROGRAM STARTED ON                                 cu062
 **    ****   ******    PROGRAM STARTED BY                                 jxzhu
 ***** **    ** ** **   PROGRAM PROCESS ID                                 43593
  **** **  *******  **  PROGRAM STARTED IN /public/home/jxzhu/tmp_calc/a454151b1
                                           7372fa9d0ed997a20267c6307913a7d/calc/
                                           001800.000/search_hi.000000

 CP2K| version string:                                       CP2K version 2022.1
 CP2K| source code revision number:                                  git:2caeb6f
 CP2K| cp2kflags: omp libint fftw3 libxc elpa parallel mpi3 scalapack cosma xsmm
 CP2K|             plumed2 spglib mkl sirius libvori libbqb
 CP2K| is freely available from                            https://www.cp2k.org/
 CP2K| Program compiled at                           Mon Jul 3 17:37:06 CST 2023
 CP2K| Program compiled on                                                 mu003
 CP2K| Program compiled for                                                local
 CP2K| Data directory path                             /public/home/jxzhu/basis/
 CP2K| Input file name                                                 input.inp
 
 GLOBAL| Force Environment number                                              1
 GLOBAL| Basis set file name                                        BASIS_MOLOPT
 GLOBAL| Potential file name                                      GTH_POTENTIALS
 GLOBAL| MM Potential file name                                     MM_POTENTIAL
 GLOBAL| Coordinate file name                                          coord.xyz
 GLOBAL| Method name                                                        CP2K
 GLOBAL| Project name                                                       cp2k
 GLOBAL| Run type                                                   ENERGY_FORCE
 GLOBAL| FFT library                                                       FFTW3
 GLOBAL| Diagonalization library                                            ELPA
 GLOBAL| Minimum number of eigenvectors for ELPA usage                        16
 GLOBAL| Orthonormality check for eigenvectors                          DISABLED
 GLOBAL| Matrix multiplication library                                     COSMA
 GLOBAL| All-to-all communication in single precision                          F
 GLOBAL| FFTs using library dependent lengths                                  T
 GLOBAL| Grid backend                                                       AUTO
 GLOBAL| Global print level                                               MEDIUM
 GLOBAL| MPI I/O enabled                                                       T
 GLOBAL| Total number of message passing processes                           128
 GLOBAL| Number of threads for this process                                    1
 GLOBAL| This output is from process                                           0
 GLOBAL| Stack size for threads created by OpenMP (OMP_STACKSIZE)        default
 GLOBAL| CPU model name                 Intel(R) Xeon(R) Gold 6338 CPU @ 2.00GHz
 GLOBAL| CPUID                                                              1003

 MEMORY| system memory details [Kb]
 MEMORY|                        rank 0           min           max       average
 MEMORY| MemTotal            263619172     263619168     263619172     263619170
 MEMORY| MemFree             190329968     190329968     193786484     192057097
 MEMORY| Buffers                  3320            44          3320          1682
 MEMORY| Cached                1756384       1002812       1756384       1379598
 MEMORY| Slab                  2035848       1846864       2035848       1941356
 MEMORY| SReclaimable           250732        228304        250732        239518
 MEMORY| MemLikelyFree       192340404     192340404     195017644     193677895


 *** Fundamental physical constants (SI units) ***

 *** Literature: B. J. Mohr and B. N. Taylor,
 ***             CODATA recommended values of the fundamental physical
 ***             constants: 2006, Web Version 5.1
 ***             http://physics.nist.gov/constants

 Speed of light in vacuum [m/s]                             2.99792458000000E+08
 Magnetic constant or permeability of vacuum [N/A**2]       1.25663706143592E-06
 Electric constant or permittivity of vacuum [F/m]          8.85418781762039E-12
 Planck constant (h) [J*s]                                  6.62606896000000E-34
 Planck constant (h-bar) [J*s]                              1.05457162825177E-34
 Elementary charge [C]                                      1.60217648700000E-19
 Electron mass [kg]                                         9.10938215000000E-31
 Electron g factor [ ]                                     -2.00231930436220E+00
 Proton mass [kg]                                           1.67262163700000E-27
 Fine-structure constant                                    7.29735253760000E-03
 Rydberg constant [1/m]                                     1.09737315685270E+07
 Avogadro constant [1/mol]                                  6.02214179000000E+23
 Boltzmann constant [J/K]                                   1.38065040000000E-23
 Atomic mass unit [kg]                                      1.66053878200000E-27
 Bohr radius [m]                                            5.29177208590000E-11

 *** Conversion factors ***

 [u] -> [a.u.]                                              1.82288848426455E+03
 [Angstrom] -> [Bohr] = [a.u.]                              1.88972613288564E+00
 [a.u.] = [Bohr] -> [Angstrom]                              5.29177208590000E-01
 [a.u.] -> [s]                                              2.41888432650478E-17
 [a.u.] -> [fs]                                             2.41888432650478E-02
 [a.u.] -> [J]                                              4.35974393937059E-18
 [a.u.] -> [N]                                              8.23872205491840E-08
 [a.u.] -> [K]                                              3.15774647902944E+05
 [a.u.] -> [kJ/mol]                                         2.62549961709828E+03
 [a.u.] -> [kcal/mol]                                       6.27509468713739E+02
 [a.u.] -> [Pa]                                             2.94210107994716E+13
 [a.u.] -> [bar]                                            2.94210107994716E+08
 [a.u.] -> [atm]                                            2.90362800883016E+08
 [a.u.] -> [eV]                                             2.72113838565563E+01
 [a.u.] -> [Hz]                                             6.57968392072181E+15
 [a.u.] -> [1/cm] (wave numbers)                            2.19474631370540E+05
 [a.u./Bohr**2] -> [1/cm]                                   5.14048714338585E+03
 

 CELL_TOP| Volume [angstrom^3]:                                     17614.982639
 CELL_TOP| Vector a [angstrom    16.869     0.000     0.000   |a| =    16.869000
 CELL_TOP| Vector b [angstrom    -8.434    14.609     0.000   |b| =    16.869015
 CELL_TOP| Vector c [angstrom     0.000     0.000    71.478   |c| =    71.478000
 CELL_TOP| Angle (b,c), alpha [degree]:                                90.000000
 CELL_TOP| Angle (a,c), beta  [degree]:                                90.000000
 CELL_TOP| Angle (a,b), gamma [degree]:                               119.999970
 CELL_TOP| Numerically orthorhombic:                                          NO
 
 GENERATE|  Preliminary Number of Bonds generated:                             0
 GENERATE|  Achieved consistency in connectivity generation.

 CELL| Volume [angstrom^3]:                                         17614.982639
 CELL| Vector a [angstrom]:      16.869     0.000     0.000   |a| =    16.869000
 CELL| Vector b [angstrom]:      -8.434    14.609     0.000   |b| =    16.869015
 CELL| Vector c [angstrom]:       0.000     0.000    71.478   |c| =    71.478000
 CELL| Angle (b,c), alpha [degree]:                                    90.000000
 CELL| Angle (a,c), beta  [degree]:                                    90.000000
 CELL| Angle (a,b), gamma [degree]:                                   119.999970
 CELL| Numerically orthorhombic:                                              NO

 CELL_REF| Volume [angstrom^3]:                                     17614.982639
 CELL_REF| Vector a [angstrom    16.869     0.000     0.000   |a| =    16.869000
 CELL_REF| Vector b [angstrom    -8.434    14.609     0.000   |b| =    16.869015
 CELL_REF| Vector c [angstrom     0.000     0.000    71.478   |c| =    71.478000
 CELL_REF| Angle (b,c), alpha [degree]:                                90.000000
 CELL_REF| Angle (a,c), beta  [degree]:                                90.000000
 CELL_REF| Angle (a,b), gamma [degree]:                               119.999970
 CELL_REF| Numerically orthorhombic:                                          NO

 *******************************************************************************
 *******************************************************************************
 **                                                                           **
 **     #####                         ##              ##                      **
 **    ##   ##            ##          ##              ##                      **
 **   ##     ##                       ##            ######                    **
 **   ##     ##  ##   ##  ##   #####  ##  ##   ####   ##    #####    #####    **
 **   ##     ##  ##   ##  ##  ##      ## ##   ##      ##   ##   ##  ##   ##   **
 **   ##  ## ##  ##   ##  ##  ##      ####     ###    ##   ######   ######    **
 **    ##  ###   ##   ##  ##  ##      ## ##      ##   ##   ##       ##        **
 **     #######   #####   ##   #####  ##  ##  ####    ##    #####   ##        **
 **           ##                                                    ##        **
 **                                                                           **
 **                                                ... make the atoms dance   **
 **                                                                           **
 **            Copyright (C) by CP2K developers group (2000-2022)             **
 **                      J. Chem. Phys. 152, 194103 (2020)                    **
 **                                                                           **
 *******************************************************************************

 DFT| Spin restricted Kohn-Sham (RKS) calculation                            RKS
 DFT| Multiplicity                                                             1
 DFT| Number of spin states                                                    1
 DFT| Charge                                                                   0
 DFT| Self-interaction correction (SIC)                                       NO
 DFT| Cutoffs: density                                              1.000000E-10
 DFT|          gradient                                             1.000000E-10
 DFT|          tau                                                  1.000000E-10
 DFT|          cutoff_smoothing_range                               0.000000E+00
 DFT| XC density smoothing                                                  NONE
 DFT| XC derivatives                                                          PW

 FUNCTIONAL| PBE:
 FUNCTIONAL| J.P.Perdew, K.Burke, M.Ernzerhof, Phys. Rev. Letter, vol. 77, n 18,
 FUNCTIONAL|  pp. 3865-3868, (1996){spin unpolarized}                           

 vdW POTENTIAL|                                                   Pair Potential
 vdW POTENTIAL|          DFT-D3 (Version 3.1)
 vdW POTENTIAL|          Potential Form: S. Grimme et al, JCP 132: 154104 (2010)
 vdW POTENTIAL|          Zero Damping
 vdW POTENTIAL|          Cutoff Radius [Bohr]:                             20.00
 vdW POTENTIAL|          s6 Scaling Factor:                               1.0000
 vdW POTENTIAL|          sr6 Scaling Factor:                              1.2170
 vdW POTENTIAL|          s8 Scaling Factor:                               0.7220
 vdW POTENTIAL|          Cutoff for CN calculation:                   0.1000E-05

 QS| Method:                                                                 GPW
 QS| Density plane wave grid type                        NON-SPHERICAL FULLSPACE
 QS| Number of grid levels:                                                    4
 QS| Density cutoff [a.u.]:                                                200.0
 QS| Multi grid cutoff [a.u.]: 1) grid level                               200.0
 QS|                           2) grid level                                66.7
 QS|                           3) grid level                                22.2
 QS|                           4) grid level                                 7.4
 QS| Grid level progression factor:                                          3.0
 QS| Relative density cutoff [a.u.]:                                        20.0
 QS| Interaction thresholds: eps_pgf_orb:                                3.2E-07
 QS|                         eps_filter_matrix:                          0.0E+00
 QS|                         eps_core_charge:                            1.0E-15
 QS|                         eps_rho_gspace:                             1.0E-13
 QS|                         eps_rho_rspace:                             1.0E-13
 QS|                         eps_gvg_rspace:                             3.2E-07
 QS|                         eps_ppl:                                    1.0E-02
 QS|                         eps_ppnl:                                   3.2E-09


 ATOMIC KIND INFORMATION

  1. Atomic kind: O                                     Number of atoms:      96

     Orbital Basis Set                                        DZVP-MOLOPT-SR-GTH

       Number of orbital shell sets:                                           1
       Number of orbital shells:                                               5
       Number of primitive Cartesian functions:                                5
       Number of Cartesian basis functions:                                   14
       Number of spherical basis functions:                                   13
       Norm type:                                                              2

       Normalised Cartesian orbitals:

                        Set   Shell   Orbital            Exponent    Coefficient

                          1       1    2s               10.389228       0.396646
                                                         3.849621       0.208811
                                                         1.388401      -0.301641
                                                         0.496955      -0.274061
                                                         0.162492      -0.033677

                          1       2    3s               10.389228       0.303673
                                                         3.849621       0.240943
                                                         1.388401      -0.313066
                                                         0.496955      -0.043055
                                                         0.162492       0.213991

                          1       3    3px              10.389228      -1.530415
                                                         3.849621      -1.371928
                                                         1.388401      -0.761951
                                                         0.496955      -0.253695
                                                         0.162492      -0.035541
                          1       3    3py              10.389228      -1.530415
                                                         3.849621      -1.371928
                                                         1.388401      -0.761951
                                                         0.496955      -0.253695
                                                         0.162492      -0.035541
                          1       3    3pz              10.389228      -1.530415
                                                         3.849621      -1.371928
                                                         1.388401      -0.761951
                                                         0.496955      -0.253695
                                                         0.162492      -0.035541

                          1       4    4px              10.389228      -0.565392
                                                         3.849621      -0.038231
                                                         1.388401      -0.382373
                                                         0.496955       0.179070
                                                         0.162492       0.122714
                          1       4    4py              10.389228      -0.565392
                                                         3.849621      -0.038231
                                                         1.388401      -0.382373
                                                         0.496955       0.179070
                                                         0.162492       0.122714
                          1       4    4pz              10.389228      -0.565392
                                                         3.849621      -0.038231
                                                         1.388401      -0.382373
                                                         0.496955       0.179070
                                                         0.162492       0.122714

                          1       5    4dx2             10.389228       1.867377
                                                         3.849621       0.670994
                                                         1.388401       1.353441
                                                         0.496955       0.273538
                                                         0.162492       0.006620
                          1       5    4dxy             10.389228       3.234392
                                                         3.849621       1.162195
                                                         1.388401       2.344229
                                                         0.496955       0.473781
                                                         0.162492       0.011466
                          1       5    4dxz             10.389228       3.234392
                                                         3.849621       1.162195
                                                         1.388401       2.344229
                                                         0.496955       0.473781
                                                         0.162492       0.011466
                          1       5    4dy2             10.389228       1.867377
                                                         3.849621       0.670994
                                                         1.388401       1.353441
                                                         0.496955       0.273538
                                                         0.162492       0.006620
                          1       5    4dyz             10.389228       3.234392
                                                         3.849621       1.162195
                                                         1.388401       2.344229
                                                         0.496955       0.473781
                                                         0.162492       0.011466
                          1       5    4dz2             10.389228       1.867377
                                                         3.849621       0.670994
                                                         1.388401       1.353441
                                                         0.496955       0.273538
                                                         0.162492       0.006620

       Atomic covalent radius [Angstrom]:                                  0.730

       Atomic van der Waals radius [Angstrom]:                             1.520

     GTH Potential information for                                    GTH-PBE-q6

       Description:                       Goedecker-Teter-Hutter pseudopotential
                                           Goedecker et al., PRB 54, 1703 (1996)
                                          Hartwigsen et al., PRB 58, 3641 (1998)
                                                      Krack, TCA 114, 145 (2005)

       Gaussian exponent of the core charge distribution:               8.360253
       Electronic configuration (s p d ...):                               2   4

       Parameters of the local part of the GTH pseudopotential:

                          rloc        C1          C2          C3          C4
                        0.244554  -16.667215    2.487311

       Parameters of the non-local part of the GTH pseudopotential:

                   l      r(l)      h(i,j,l)

                   0    0.220956   18.337458
                   1    0.211332

  2. Atomic kind: H                                     Number of atoms:     192

     Orbital Basis Set                                        DZVP-MOLOPT-SR-GTH

       Number of orbital shell sets:                                           1
       Number of orbital shells:                                               3
       Number of primitive Cartesian functions:                                5
       Number of Cartesian basis functions:                                    5
       Number of spherical basis functions:                                    5
       Norm type:                                                              2

       Normalised Cartesian orbitals:

                        Set   Shell   Orbital            Exponent    Coefficient

                          1       1    2s               10.068468      -0.133023
                                                         2.680223      -0.177618
                                                         0.791502      -0.258419
                                                         0.239116      -0.107525
                                                         0.082193      -0.014019

                          1       2    3s               10.068468       0.344673
                                                         2.680223       1.819821
                                                         0.791502      -0.999069
                                                         0.239116       0.017430
                                                         0.082193       0.082660

                          1       3    3px              10.068468       0.155326
                                                         2.680223       0.367157
                                                         0.791502       0.311480
                                                         0.239116       0.080105
                                                         0.082193       0.033440
                          1       3    3py              10.068468       0.155326
                                                         2.680223       0.367157
                                                         0.791502       0.311480
                                                         0.239116       0.080105
                                                         0.082193       0.033440
                          1       3    3pz              10.068468       0.155326
                                                         2.680223       0.367157
                                                         0.791502       0.311480
                                                         0.239116       0.080105
                                                         0.082193       0.033440

       Atomic covalent radius [Angstrom]:                                  0.320

       Atomic van der Waals radius [Angstrom]:                             1.090

     GTH Potential information for                                    GTH-PBE-q1

       Description:                       Goedecker-Teter-Hutter pseudopotential
                                           Goedecker et al., PRB 54, 1703 (1996)
                                          Hartwigsen et al., PRB 58, 3641 (1998)
                                                      Krack, TCA 114, 145 (2005)

       Gaussian exponent of the core charge distribution:              12.500000
       Electronic configuration (s p d ...):                                   1

       Parameters of the local part of the GTH pseudopotential:

                          rloc        C1          C2          C3          C4
                        0.200000   -4.178900    0.724463

  3. Atomic kind: Pt                                    Number of atoms:     216

     Orbital Basis Set                      DZVP-A5-Q10-323-MOL-T1-DERIVED_SET-1

       Number of orbital shell sets:                                           1
       Number of orbital shells:                                               6
       Number of primitive Cartesian functions:                                5
       Number of Cartesian basis functions:                                   23
       Number of spherical basis functions:                                   20
       Norm type:                                                              2

       Normalised Cartesian orbitals:

                        Set   Shell   Orbital            Exponent    Coefficient

                          1       1    2s                2.521825       0.177473
                                                         1.453920      -0.063399
                                                         0.614053      -0.407089
                                                         0.232656       0.262254
                                                         0.074788       0.047371

                          1       2    3s                2.521825      -0.049056
                                                         1.453920       0.044904
                                                         0.614053      -0.009756
                                                         0.232656      -0.144709
                                                         0.074788       0.144085

                          1       3    3px               2.521825      -0.317572
                                                         1.453920       0.534826
                                                         0.614053      -0.489458
                                                         0.232656       0.245631
                                                         0.074788       0.018221
                          1       3    3py               2.521825      -0.317572
                                                         1.453920       0.534826
                                                         0.614053      -0.489458
                                                         0.232656       0.245631
                                                         0.074788       0.018221
                          1       3    3pz               2.521825      -0.317572
                                                         1.453920       0.534826
                                                         0.614053      -0.489458
                                                         0.232656       0.245631
                                                         0.074788       0.018221

                          1       4    4dx2              2.521825       3.008522
                                                         1.453920      -1.224251
                                                         0.614053       0.225691
                                                         0.232656       0.125144
                                                         0.074788      -0.015348
                          1       4    4dxy              2.521825       5.210912
                                                         1.453920      -2.120465
                                                         0.614053       0.390909
                                                         0.232656       0.216756
                                                         0.074788      -0.026584
                          1       4    4dxz              2.521825       5.210912
                                                         1.453920      -2.120465
                                                         0.614053       0.390909
                                                         0.232656       0.216756
                                                         0.074788      -0.026584
                          1       4    4dy2              2.521825       3.008522
                                                         1.453920      -1.224251
                                                         0.614053       0.225691
                                                         0.232656       0.125144
                                                         0.074788      -0.015348
                          1       4    4dyz              2.521825       5.210912
                                                         1.453920      -2.120465
                                                         0.614053       0.390909
                                                         0.232656       0.216756
                                                         0.074788      -0.026584
                          1       4    4dz2              2.521825       3.008522
                                                         1.453920      -1.224251
                                                         0.614053       0.225691
                                                         0.232656       0.125144
                                                         0.074788      -0.015348

                          1       5    5dx2              2.521825       0.698026
                                                         1.453920      -1.511486
                                                         0.614053      -0.335394
                                                         0.232656      -0.025564
                                                         0.074788      -0.002699
                          1       5    5dxy              2.521825       1.209017
                                                         1.453920      -2.617970
                                                         0.614053      -0.580920
                                                         0.232656      -0.044277
                                                         0.074788      -0.004674
                          1       5    5dxz              2.521825       1.209017
                                                         1.453920      -2.617970
                                                         0.614053      -0.580920
                                                         0.232656      -0.044277
                                                         0.074788      -0.004674
                          1       5    5dy2              2.521825       0.698026
                                                         1.453920      -1.511486
                                                         0.614053      -0.335394
                                                         0.232656      -0.025564
                                                         0.074788      -0.002699
                          1       5    5dyz              2.521825       1.209017
                                                         1.453920      -2.617970
                                                         0.614053      -0.580920
                                                         0.232656      -0.044277
                                                         0.074788      -0.004674
                          1       5    5dz2              2.521825       0.698026
                                                         1.453920      -1.511486
                                                         0.614053      -0.335394
                                                         0.232656      -0.025564
                                                         0.074788      -0.002699

                          1       6    6dx2              2.521825       0.831079
                                                         1.453920      -0.709226
                                                         0.614053      -0.137351
                                                         0.232656       0.068642
                                                         0.074788       0.011745
                          1       6    6dxy              2.521825       1.439472
                                                         1.453920      -1.228415
                                                         0.614053      -0.237899
                                                         0.232656       0.118891
                                                         0.074788       0.020343
                          1       6    6dxz              2.521825       1.439472
                                                         1.453920      -1.228415
                                                         0.614053      -0.237899
                                                         0.232656       0.118891
                                                         0.074788       0.020343
                          1       6    6dy2              2.521825       0.831079
                                                         1.453920      -0.709226
                                                         0.614053      -0.137351
                                                         0.232656       0.068642
                                                         0.074788       0.011745
                          1       6    6dyz              2.521825       1.439472
                                                         1.453920      -1.228415
                                                         0.614053      -0.237899
                                                         0.232656       0.118891
                                                         0.074788       0.020343
                          1       6    6dz2              2.521825       0.831079
                                                         1.453920      -0.709226
                                                         0.614053      -0.137351
                                                         0.232656       0.068642
                                                         0.074788       0.011745

       Atomic covalent radius [Angstrom]:                                  1.300

       Atomic van der Waals radius [Angstrom]:                             1.750

     GTH Potential information for                                   GTH-PBE-q10

       Description:                       Goedecker-Teter-Hutter pseudopotential
                                           Goedecker et al., PRB 54, 1703 (1996)
                                          Hartwigsen et al., PRB 58, 3641 (1998)
                                                      Krack, TCA 114, 145 (2005)

       Gaussian exponent of the core charge distribution:               1.317676
       Electronic configuration (s p d ...):                           1   0   9

       Parameters of the local part of the GTH pseudopotential:

                          rloc        C1          C2          C3          C4
                        0.616000   11.313635

       Parameters of the non-local part of the GTH pseudopotential:

                   l      r(l)      h(i,j,l)

                   0    0.550904    4.733491   -1.784594
                                   -1.784594    2.303901
                   1    0.674138    2.534798   -1.778066
                                   -1.778066    2.103836
                   2    0.457392   -7.264011    2.558665
                                    2.558665   -2.901253


 MOLECULE KIND INFORMATION


 All atoms are their own molecule, skipping detailed information


 TOTAL NUMBERS AND MAXIMUM NUMBERS

  Total number of            - Atomic kinds:                                   3
                             - Atoms:                                        504
                             - Shell sets:                                   504
                             - Shells:                                      2352
                             - Primitive Cartesian functions:               2520
                             - Cartesian basis functions:                   7272
                             - Spherical basis functions:                   6528

  Maximum angular momentum of- Orbital basis functions:                        2
                             - Local part of the GTH pseudopotential:          2
                             - Non-local part of the GTH pseudopotential:      4


 MODULE QUICKSTEP:  ATOMIC COORDINATES IN angstrom

 Atom  Kind  Element       X           Y           Z          Z(eff)       Mass
    1   1 O    8     -17.340000   19.530001   38.117999       6.0000     15.9994
    2   2 H    1     -18.190001   19.720001   37.647998       1.0000      1.0079
    3   2 H    1     -17.330000   18.560001   38.387999       1.0000      1.0079
    4   1 O    8     -13.650000  -12.020000   37.107999       6.0000     15.9994
    5   2 H    1     -14.150001  -11.530000   36.377999       1.0000      1.0079
    6   2 H    1     -13.360001  -12.880001   36.648000       1.0000      1.0079
    7   1 O    8       5.550000  -16.530001   36.117999       6.0000     15.9994
    8   2 H    1       4.790000  -16.580002   36.768000       1.0000      1.0079
    9   2 H    1       5.190001  -16.639999   35.167998       1.0000      1.0079
   10   1 O    8      -0.800000   19.790001   29.777999       6.0000     15.9994
   11   2 H    1      -0.930000   18.800001   29.797999       1.0000      1.0079
   12   2 H    1      -0.090000   19.770000   29.037997       1.0000      1.0079
   13   1 O    8      -3.710000   17.860001   39.637999       6.0000     15.9994
   14   2 H    1      -3.650000   18.810001   39.807999       1.0000      1.0079
   15   2 H    1      -4.440001   17.640001   39.047999       1.0000      1.0079
   16   1 O    8      15.850000  -11.980001   39.277999       6.0000     15.9994
   17   2 H    1      14.870001  -11.790000   39.327998       1.0000      1.0079
   18   2 H    1      16.140001  -11.590000   40.197999       1.0000      1.0079
   19   1 O    8     -16.450001   39.850002   29.967997       6.0000     15.9994
   20   2 H    1     -16.110001   38.930000   30.277999       1.0000      1.0079
   21   2 H    1       0.020000   39.700005   29.018000       1.0000      1.0079
   22   1 O    8      -3.080000   24.170000   32.917998       6.0000     15.9994
   23   2 H    1      -2.840000   25.090000   32.937999       1.0000      1.0079
   24   2 H    1      -2.680000   23.750000   33.717999       1.0000      1.0079
   25   1 O    8     -26.260002    3.930000   34.957997       6.0000     15.9994
   26   2 H    1     -26.800001    4.660000   35.417998       1.0000      1.0079
   27   2 H    1     -26.430000    4.080000   34.008000       1.0000      1.0079
   28   1 O    8     -12.740001    2.920000   29.917998       6.0000     15.9994
   29   2 H    1     -12.870001    2.550000   29.037997       1.0000      1.0079
   30   2 H    1     -13.510000    2.600000   30.437999       1.0000      1.0079
   31   1 O    8       8.200001    0.040000   38.897998       6.0000     15.9994
   32   2 H    1      -7.730001    0.060000   39.097998       1.0000      1.0079
   33   2 H    1       7.840000    0.940000   39.187999       1.0000      1.0079
   34   1 O    8      21.330002   29.950001   32.498000       6.0000     15.9994
   35   2 H    1      21.830002   29.070000   32.597998       1.0000      1.0079
   36   2 H    1      21.930000   30.670002   32.667998       1.0000      1.0079
   37   1 O    8     -22.730000   15.530001   34.217999       6.0000     15.9994
   38   2 H    1     -22.020000   15.310000   33.477998       1.0000      1.0079
   39   2 H    1     -23.440001   14.870001   34.127997       1.0000      1.0079
   40   1 O    8      10.940001    6.830000   39.797999       6.0000     15.9994
   41   2 H    1      11.280001    5.880000   39.877999       1.0000      1.0079
   42   2 H    1       9.920000    6.810000   39.657998       1.0000      1.0079
   43   1 O    8     -23.100002   11.400002   30.338000       6.0000     15.9994
   44   2 H    1     -32.430004   25.630001   30.117999       1.0000      1.0079
   45   2 H    1     -22.580002   11.260000   29.507998       1.0000      1.0079
   46   1 O    8      -9.520000    6.340000   32.487998       6.0000     15.9994
   47   2 H    1      -8.890000    5.840001   31.927998       1.0000      1.0079
   48   2 H    1      -8.860001    6.830000   33.068000       1.0000      1.0079
   49   1 O    8      -2.430000   10.830001   30.857999       6.0000     15.9994
   50   2 H    1      -1.480000   10.490000   30.637999       1.0000      1.0079
   51   2 H    1      -3.030000   10.180000   30.437999       1.0000      1.0079
   52   1 O    8     -29.920002   20.580002   35.127999       6.0000     15.9994
   53   2 H    1     -29.620001   21.220001   35.857999       1.0000      1.0079
   54   2 H    1     -30.690002   20.100000   35.527999       1.0000      1.0079
   55   1 O    8     -31.190002  -14.090000   35.317998       6.0000     15.9994
   56   2 H    1     -30.740002  -14.990001   35.297999       1.0000      1.0079
   57   2 H    1     -32.160000  -14.200001   35.518000       1.0000      1.0079
   58   1 O    8      41.160004   -4.530000   36.387999       6.0000     15.9994
   59   2 H    1      41.950001   -4.190001   36.838000       1.0000      1.0079
   60   2 H    1      40.770000   -3.760000   35.857999       1.0000      1.0079
   61   1 O    8     -41.180000    3.890000   32.327998       6.0000     15.9994
   62   2 H    1     -24.510002    3.220000   31.637999       1.0000      1.0079
   63   2 H    1     -23.700001    4.540000   31.947999       1.0000      1.0079
   64   1 O    8     -11.020000   27.510002   32.617999       6.0000     15.9994
   65   2 H    1     -10.970000   27.070000   33.488000       1.0000      1.0079
   66   2 H    1     -11.210001   26.850002   31.857999       1.0000      1.0079
   67   1 O    8      18.150002   10.760001   37.688001       6.0000     15.9994
   68   2 H    1      18.740002    9.970000   37.517999       1.0000      1.0079
   69   2 H    1      17.850000   10.850000   38.617999       1.0000      1.0079
   70   1 O    8       5.030000   18.230001   34.097998       6.0000     15.9994
   71   2 H    1       4.710000   19.030001   34.547999       1.0000      1.0079
   72   2 H    1       4.310000   17.790001   33.578000       1.0000      1.0079
   73   1 O    8     -18.400000   23.200001   29.937999       6.0000     15.9994
   74   2 H    1     -17.880001   22.369999   30.037997       1.0000      1.0079
   75   2 H    1     -18.230001   23.590002   29.047999       1.0000      1.0079
   76   1 O    8      -7.830000  -21.800001   34.447999       6.0000     15.9994
   77   2 H    1      -7.390000  -22.369999   35.097998       1.0000      1.0079
   78   2 H    1      -7.220001  -21.060001   34.268000       1.0000      1.0079
   79   1 O    8      12.150001   13.030001   38.057999       6.0000     15.9994
   80   2 H    1      12.660000   12.280001   37.777999       1.0000      1.0079
   81   2 H    1      11.740000   12.840000   38.978000       1.0000      1.0079
   82   1 O    8     -12.430000   23.440001   29.917998       6.0000     15.9994
   83   2 H    1     -11.630001   22.850000   30.037997       1.0000      1.0079
   84   2 H    1     -12.600001   23.680000   29.018000       1.0000      1.0079
   85   1 O    8       0.840000   -0.630000   30.297999       6.0000     15.9994
   86   2 H    1       0.780000   -0.330000   29.378001       1.0000      1.0079
   87   2 H    1       1.290000   -1.470000   30.247996       1.0000      1.0079
   88   1 O    8      -0.570000   34.880001   36.757998       6.0000     15.9994
   89   2 H    1       0.290000   35.060001   37.168000       1.0000      1.0079
   90   2 H    1      -0.890000   35.540001   36.047999       1.0000      1.0079
   91   1 O    8      -1.140000    2.960000   35.807998       6.0000     15.9994
   92   2 H    1     -10.480001   17.630001   35.447997       1.0000      1.0079
   93   2 H    1      -0.790000    3.830000   36.097998       1.0000      1.0079
   94   1 O    8      20.430000   -4.010000   35.748000       6.0000     15.9994
   95   2 H    1      21.000002   -4.530000   35.117999       1.0000      1.0079
   96   2 H    1      20.800001   -4.400000   36.557998       1.0000      1.0079
   97   1 O    8      17.220001    3.530000   29.037997       6.0000     15.9994
   98   2 H    1      17.970001    3.150000   29.627997       1.0000      1.0079
   99   2 H    1      16.380001    3.180000   29.518000       1.0000      1.0079
  100   1 O    8      18.860001    6.200000   37.737998       6.0000     15.9994
  101   2 H    1      18.860001    6.050000   38.707999       1.0000      1.0079
  102   2 H    1      19.490002    5.570001   37.257998       1.0000      1.0079
  103   1 O    8      -2.440000  -17.070002   35.267999       6.0000     15.9994
  104   2 H    1      -3.420000  -17.220001   35.488000       1.0000      1.0079
  105   2 H    1      -2.210000  -16.280001   35.848000       1.0000      1.0079
  106   1 O    8      27.360001   -2.720000   32.877997       6.0000     15.9994
  107   2 H    1      26.570000   -2.140000   32.907998       1.0000      1.0079
  108   2 H    1      27.560001   -2.800000   31.917998       1.0000      1.0079
  109   1 O    8      -9.690001   10.630001   36.018000       6.0000     15.9994
  110   2 H    1     -10.130000   11.470001   36.287999       1.0000      1.0079
  111   2 H    1      -8.770000   10.830001   35.568000       1.0000      1.0079
  112   1 O    8      18.760000   -9.050000   29.228000       6.0000     15.9994
  113   2 H    1      18.780001   -8.080000   29.378001       1.0000      1.0079
  114   2 H    1      19.560001   -9.480001   29.518000       1.0000      1.0079
  115   1 O    8      11.050000   19.760000   33.908000       6.0000     15.9994
  116   2 H    1      11.940001   19.890001   33.448001       1.0000      1.0079
  117   2 H    1      10.600000   20.610001   34.008000       1.0000      1.0079
  118   1 O    8     -22.270000   23.240002   37.068000       6.0000     15.9994
  119   2 H    1     -22.740002   22.410002   37.268000       1.0000      1.0079
  120   2 H    1     -22.430000   23.440001   36.137997       1.0000      1.0079
  121   1 O    8      -3.310000   10.190001   37.758000       6.0000     15.9994
  122   2 H    1      -3.090000   10.080000   38.777999       1.0000      1.0079
  123   2 H    1      -2.430000    9.980000   37.287997       1.0000      1.0079
  124   1 O    8       6.170001  -14.660001   30.017997       6.0000     15.9994
  125   2 H    1       6.420000  -15.090000   29.137996       1.0000      1.0079
  126   2 H    1       5.210000  -14.680000   29.998000       1.0000      1.0079
  127   1 O    8     -12.210001   12.630000   33.348000       6.0000     15.9994
  128   2 H    1     -13.110001   12.590000   32.887999       1.0000      1.0079
  129   2 H    1     -11.440001   12.680000   32.717997       1.0000      1.0079
  130   1 O    8       9.620001   17.520000   33.407998       6.0000     15.9994
  131   2 H    1      18.550001    3.800000   33.497998       1.0000      1.0079
  132   2 H    1      -6.830000   16.790001   34.057998       1.0000      1.0079
  133   1 O    8       7.950000    9.730001   38.728000       6.0000     15.9994
  134   2 H    1       7.510000    9.860001   37.867999       1.0000      1.0079
  135   2 H    1       7.850000    8.770000   38.947999       1.0000      1.0079
  136   1 O    8      -3.750000   -4.220000   29.167998       6.0000     15.9994
  137   2 H    1      -4.520000   -3.740000   29.518000       1.0000      1.0079
  138   2 H    1      -3.980000   -5.180000   29.408000       1.0000      1.0079
  139   1 O    8      10.240001    2.140000   29.917998       6.0000     15.9994
  140   2 H    1      10.420000    2.490000   29.007998       1.0000      1.0079
  141   2 H    1       9.570000    1.420000   29.777999       1.0000      1.0079
  142   1 O    8      -1.580000   17.140001   30.107997       6.0000     15.9994
  143   2 H    1      -2.540000   17.120001   30.057998       1.0000      1.0079
  144   2 H    1      -1.150000   16.270000   29.957999       1.0000      1.0079
  145   1 O    8     -28.970001    5.810000   29.748000       6.0000     15.9994
  146   2 H    1     -29.340002    4.900000   29.617999       1.0000      1.0079
  147   2 H    1     -28.030003    5.700001   29.608001       1.0000      1.0079
  148   1 O    8     -22.480001   -5.160000   34.397998       6.0000     15.9994
  149   2 H    1     -21.760002   -5.120000   33.767999       1.0000      1.0079
  150   2 H    1     -22.930002   -4.320000   34.197997       1.0000      1.0079
  151   1 O    8       3.890000   -0.590000   29.957999       6.0000     15.9994
  152   2 H    1       3.490000    0.000000   30.667998       1.0000      1.0079
  153   2 H    1       3.190000   -0.480000   29.267997       1.0000      1.0079
  154   1 O    8       4.970000   -5.480001   33.658000       6.0000     15.9994
  155   2 H    1       5.410000   -5.050000   32.837998       1.0000      1.0079
  156   2 H    1       4.040000   -5.450000   33.427998       1.0000      1.0079
  157   1 O    8      -1.270000    3.130000   32.457997       6.0000     15.9994
  158   2 H    1      -1.980000    3.510000   33.007998       1.0000      1.0079
  159   2 H    1      -0.510000    2.870000   33.007998       1.0000      1.0079
  160   1 O    8       7.560000   20.400002   32.147998       6.0000     15.9994
  161   2 H    1       7.850000   20.470001   33.117999       1.0000      1.0079
  162   2 H    1       7.460001   19.440001   32.027999       1.0000      1.0079
  163   1 O    8      19.780001   45.779999   32.988000       6.0000     15.9994
  164   2 H    1      19.190002   46.540001   32.928000       1.0000      1.0079
  165   2 H    1      19.680000   45.230003   33.777999       1.0000      1.0079
  166   1 O    8      16.639999   -7.510000   39.687999       6.0000     15.9994
  167   2 H    1      16.190001   -8.350000   39.357999       1.0000      1.0079
  168   2 H    1      16.280001   -7.310000   40.597998       1.0000      1.0079
  169   1 O    8      -6.560000    7.860000   30.837998       6.0000     15.9994
  170   2 H    1      -6.220000    7.150001   31.408000       1.0000      1.0079
  171   2 H    1       2.660000   -6.440001   30.338000       1.0000      1.0079
  172   1 O    8      -7.330000   11.050000   34.817998       6.0000     15.9994
  173   2 H    1      -6.460000   10.940001   35.317998       1.0000      1.0079
  174   2 H    1      -7.470000   11.970000   34.607999       1.0000      1.0079
  175   1 O    8     -18.730001    2.770000   29.967997       6.0000     15.9994
  176   2 H    1     -18.780001    3.000000   30.957999       1.0000      1.0079
  177   2 H    1     -18.890001    1.770000   29.957999       1.0000      1.0079
  178   1 O    8       3.440000   14.770001   30.558001       6.0000     15.9994
  179   2 H    1       3.110000   15.450001   29.987998       1.0000      1.0079
  180   2 H    1      11.670000    0.370000   31.417998       1.0000      1.0079
  181   1 O    8      -5.320000    6.020000   32.478000       6.0000     15.9994
  182   2 H    1      -4.980001    6.310000   33.377997       1.0000      1.0079
  183   2 H    1      -4.690000    5.370000   32.177998       1.0000      1.0079
  184   1 O    8       7.590001   15.050001   36.648000       6.0000     15.9994
  185   2 H    1       6.650000   14.680000   36.347998       1.0000      1.0079
  186   2 H    1       7.600000   15.980000   36.297999       1.0000      1.0079
  187   1 O    8      16.880001   13.860001   32.847998       6.0000     15.9994
  188   2 H    1      15.940001   13.480000   32.867999       1.0000      1.0079
  189   2 H    1      16.890001   14.510001   33.557999       1.0000      1.0079
  190   1 O    8       4.090000    8.330001   30.818000       6.0000     15.9994
  191   2 H    1       4.480000    7.530000   30.467997       1.0000      1.0079
  192   2 H    1       4.560000    8.610001   31.648000       1.0000      1.0079
  193   1 O    8      -6.990001   -6.640000   30.787999       6.0000     15.9994
  194   2 H    1      -7.140000   -6.650000   31.777999       1.0000      1.0079
  195   2 H    1      -5.950000   -6.410000   30.797999       1.0000      1.0079
  196   1 O    8      -1.450000   -0.180000   39.307999       6.0000     15.9994
  197   2 H    1      -1.240000    0.080000   38.407998       1.0000      1.0079
  198   2 H    1      -0.590000   -0.060000   39.817998       1.0000      1.0079
  199   1 O    8      -1.760000   14.360001   36.587998       6.0000     15.9994
  200   2 H    1      -1.360000   14.310001   37.487998       1.0000      1.0079
  201   2 H    1      -2.560000   14.890001   36.627997       1.0000      1.0079
  202   1 O    8      -6.890000   44.100002   37.977998       6.0000     15.9994
  203   2 H    1      -6.230001   43.370003   37.767999       1.0000      1.0079
  204   2 H    1      -7.670000   43.950001   37.358001       1.0000      1.0079
  205   1 O    8      -2.090000   52.080002   35.068000       6.0000     15.9994
  206   2 H    1      -1.170000   51.810001   35.068000       1.0000      1.0079
  207   2 H    1      -1.910000   52.980003   35.588000       1.0000      1.0079
  208   1 O    8      -2.000000    6.960001   30.047999       6.0000     15.9994
  209   2 H    1      -9.880000   21.290001   30.767999       1.0000      1.0079
  210   2 H    1      -1.670000    6.580000   29.217997       1.0000      1.0079
  211   1 O    8      -5.780000   -0.100000   39.408000       6.0000     15.9994
  212   2 H    1      -5.110001    0.550000   39.647998       1.0000      1.0079
  213   2 H    1      -5.690000   -0.700000   40.207999       1.0000      1.0079
  214   1 O    8       9.770000   34.500000   35.887999       6.0000     15.9994
  215   2 H    1       9.080001   34.070000   35.398000       1.0000      1.0079
  216   2 H    1       9.450001   34.280003   36.757998       1.0000      1.0079
  217   1 O    8     -35.290001   27.500002   32.057998       6.0000     15.9994
  218   2 H    1     -35.090000   26.680002   31.557998       1.0000      1.0079
  219   2 H    1     -35.310001   28.220001   31.377999       1.0000      1.0079
  220   1 O    8      -2.050000    5.490000   38.917998       6.0000     15.9994
  221   2 H    1      -1.580000    5.710001   38.057999       1.0000      1.0079
  222   2 H    1      -1.410000    4.910000   39.357999       1.0000      1.0079
  223   1 O    8       4.870000    1.870000   36.427998       6.0000     15.9994
  224   2 H    1       4.440001    1.820000   35.568000       1.0000      1.0079
  225   2 H    1       5.590000    2.360000   35.967997       1.0000      1.0079
  226   1 O    8     -16.940001   15.720000   35.047999       6.0000     15.9994
  227   2 H    1     -17.260000   16.600000   34.998000       1.0000      1.0079
  228   2 H    1     -17.390001   15.250001   35.737998       1.0000      1.0079
  229   1 O    8      12.790001  -24.550001   30.177996       6.0000     15.9994
  230   2 H    1      13.300000  -23.730001   30.237998       1.0000      1.0079
  231   2 H    1      13.480000  -25.260000   29.957999       1.0000      1.0079
  232   1 O    8       2.440000   -5.040000   33.077998       6.0000     15.9994
  233   2 H    1       2.000000   -5.400000   32.268000       1.0000      1.0079
  234   2 H    1       1.870000   -4.410000   33.627999       1.0000      1.0079
  235   1 O    8      -6.840000   16.620001   30.937999       6.0000     15.9994
  236   2 H    1      -7.020000   15.720000   30.717999       1.0000      1.0079
  237   2 H    1      -7.010000   16.840002   31.947999       1.0000      1.0079
  238   1 O    8      21.560001    5.410000   32.557998       6.0000     15.9994
  239   2 H    1      21.660002    5.580000   31.557998       1.0000      1.0079
  240   2 H    1      22.470001    5.610001   32.928000       1.0000      1.0079
  241   1 O    8      39.800003   -1.530000   29.207999       6.0000     15.9994
  242   2 H    1      39.870003   -2.490000   29.597998       1.0000      1.0079
  243   2 H    1      38.990002   -1.030000   29.378001       1.0000      1.0079
  244   1 O    8      -7.970000   13.530001   34.057998       6.0000     15.9994
  245   2 H    1      -8.410000   14.180001   34.627997       1.0000      1.0079
  246   2 H    1      -8.480000   13.480000   33.207999       1.0000      1.0079
  247   1 O    8     -12.920000   18.700001   39.148000       6.0000     15.9994
  248   2 H    1     -12.020000   19.010002   38.887999       1.0000      1.0079
  249   2 H    1     -13.260001   18.110001   38.407998       1.0000      1.0079
  250   1 O    8       5.910000    5.830000   36.617999       6.0000     15.9994
  251   2 H    1      -2.570000   21.380001   36.318000       1.0000      1.0079
  252   2 H    1       5.100000    5.370000   36.497998       1.0000      1.0079
  253   1 O    8     -21.130001    7.410001   37.428000       6.0000     15.9994
  254   2 H    1     -21.930000    7.230001   37.957999       1.0000      1.0079
  255   2 H    1     -20.880001    8.310000   37.717997       1.0000      1.0079
  256   1 O    8       8.180000    0.210000   30.128001       6.0000     15.9994
  257   2 H    1       7.500000   -0.420000   29.877997       1.0000      1.0079
  258   2 H    1       8.420001   -0.090000   31.088000       1.0000      1.0079
  259   1 O    8     -15.020000    5.680000   29.347998       6.0000     15.9994
  260   2 H    1     -15.230001    6.570000   29.748000       1.0000      1.0079
  261   2 H    1     -15.750000    5.080000   29.608001       1.0000      1.0079
  262   1 O    8      -8.920000   11.000000   30.198001       6.0000     15.9994
  263   2 H    1      -9.130000   10.070001   30.517997       1.0000      1.0079
  264   2 H    1      -9.250001   11.110001   29.277999       1.0000      1.0079
  265   1 O    8     -13.250000   33.700001   36.178000       6.0000     15.9994
  266   2 H    1     -13.840000   33.990002   35.347998       1.0000      1.0079
  267   2 H    1     -13.660001   32.890003   36.627997       1.0000      1.0079
  268   1 O    8      12.740001   22.880001   39.768000       6.0000     15.9994
  269   2 H    1      11.950001   22.520000   40.197999       1.0000      1.0079
  270   2 H    1      12.520000   23.059999   38.847998       1.0000      1.0079
  271   1 O    8      14.550000   17.650002   32.697999       6.0000     15.9994
  272   2 H    1      15.010000   17.630001   31.757998       1.0000      1.0079
  273   2 H    1      13.880000   18.350000   32.537999       1.0000      1.0079
  274   1 O    8       2.460000    2.850000   38.217999       6.0000     15.9994
  275   2 H    1       2.200000    1.890000   38.097998       1.0000      1.0079
  276   2 H    1       1.620000    3.180000   38.597998       1.0000      1.0079
  277   1 O    8      -5.290000   27.240002   37.187999       6.0000     15.9994
  278   2 H    1      -5.990000   26.510000   37.317998       1.0000      1.0079
  279   2 H    1      -5.600000   27.830002   37.907998       1.0000      1.0079
  280   1 O    8      11.120001   -2.740000   30.117999       6.0000     15.9994
  281   2 H    1      -5.770000   -1.760000   30.147998       1.0000      1.0079
  282   2 H    1      10.170001   -3.040000   29.867999       1.0000      1.0079
  283   1 O    8     -15.740002    7.390000   33.667998       6.0000     15.9994
  284   2 H    1     -16.440001    7.650001   34.257998       1.0000      1.0079
  285   2 H    1     -14.980001    7.920001   33.997998       1.0000      1.0079
  286   1 O    8      -1.270000    7.680000   34.817998       6.0000     15.9994
  287   2 H    1      -2.140000    7.800000   34.377999       1.0000      1.0079
  288   2 H    1      -1.280000    8.460000   35.428000       1.0000      1.0079
  289   3 Pt  78       1.620000    0.630000   27.108001      10.0000    195.0840
  290   3 Pt  78       4.460000    0.770000   27.067996      10.0000    195.0840
  291   3 Pt  78       7.260000    0.760000   26.847998      10.0000    195.0840
  292   3 Pt  78      10.140000    0.540000   26.857997      10.0000    195.0840
  293   3 Pt  78      12.870001    0.670000   26.878001      10.0000    195.0840
  294   3 Pt  78      15.710001    0.720000   26.908000      10.0000    195.0840
  295   3 Pt  78       3.210000    3.170000   26.887999      10.0000    195.0840
  296   3 Pt  78       5.880000    3.180000   26.818000      10.0000    195.0840
  297   3 Pt  78       8.650001    3.120000   26.787997      10.0000    195.0840
  298   3 Pt  78      11.510000    2.960000   26.787997      10.0000    195.0840
  299   3 Pt  78      14.220000    3.080000   26.987998      10.0000    195.0840
  300   3 Pt  78       0.310000    3.230000   26.897998      10.0000    195.0840
  301   3 Pt  78       4.550000    5.650000   26.927996      10.0000    195.0840
  302   3 Pt  78       7.310000    5.550000   26.927996      10.0000    195.0840
  303   3 Pt  78      10.180000    5.430000   26.878001      10.0000    195.0840
  304   3 Pt  78      12.860001    5.480001   26.878001      10.0000    195.0840
  305   3 Pt  78      -1.100000    5.620000   26.937999      10.0000    195.0840
  306   3 Pt  78       1.790000    5.660000   26.967997      10.0000    195.0840
  307   3 Pt  78       5.990000    7.910000   26.917998      10.0000    195.0840
  308   3 Pt  78       8.770000    8.010000   26.978000      10.0000    195.0840
  309   3 Pt  78      11.620001    7.950000   26.897998      10.0000    195.0840
  310   3 Pt  78      -2.450000    8.100000   26.787997      10.0000    195.0840
  311   3 Pt  78       0.390000    8.080000   26.857997      10.0000    195.0840
  312   3 Pt  78       3.180000    8.110001   26.867999      10.0000    195.0840
  313   3 Pt  78       7.340000   10.430001   26.967997      10.0000    195.0840
  314   3 Pt  78      10.180000   10.430001   26.878001      10.0000    195.0840
  315   3 Pt  78      -3.750000   10.480001   26.967997      10.0000    195.0840
  316   3 Pt  78      -1.000000   10.440001   26.827998      10.0000    195.0840
  317   3 Pt  78       1.720000   10.440001   26.857997      10.0000    195.0840
  318   3 Pt  78       4.640000   10.550001   26.927996      10.0000    195.0840
  319   3 Pt  78       8.770000   12.850000   26.867999      10.0000    195.0840
  320   3 Pt  78      -5.320000   12.800001   27.057998      10.0000    195.0840
  321   3 Pt  78      -2.590000   12.980001   26.987998      10.0000    195.0840
  322   3 Pt  78       0.300000   12.830001   26.867999      10.0000    195.0840
  323   3 Pt  78       3.170000   12.880001   26.997996      10.0000    195.0840
  324   3 Pt  78       5.960000   12.980001   26.887999      10.0000    195.0840
  325   3 Pt  78       0.190000    1.630000   24.588000      10.0000    195.0840
  326   3 Pt  78       2.980000    1.540000   24.697997      10.0000    195.0840
  327   3 Pt  78       5.720000    1.660000   24.647998      10.0000    195.0840
  328   3 Pt  78       8.640000    1.480000   24.437999      10.0000    195.0840
  329   3 Pt  78      11.480000    1.460000   24.448001      10.0000    195.0840
  330   3 Pt  78      14.160000    1.480000   24.518000      10.0000    195.0840
  331   3 Pt  78       1.660000    3.940000   24.597998      10.0000    195.0840
  332   3 Pt  78       4.400000    4.100000   24.507998      10.0000    195.0840
  333   3 Pt  78       7.140000    3.980000   24.527999      10.0000    195.0840
  334   3 Pt  78      10.060000    3.920000   24.518000      10.0000    195.0840
  335   3 Pt  78      12.750001    3.890000   24.497996      10.0000    195.0840
  336   3 Pt  78      -1.210000    3.940000   24.547999      10.0000    195.0840
  337   3 Pt  78       2.980000    6.480000   24.547999      10.0000    195.0840
  338   3 Pt  78       5.770000    6.500000   24.557998      10.0000    195.0840
  339   3 Pt  78       8.590000    6.360001   24.637999      10.0000    195.0840
  340   3 Pt  78      11.460000    6.380000   24.617999      10.0000    195.0840
  341   3 Pt  78      -2.570000    6.430000   24.507998      10.0000    195.0840
  342   3 Pt  78       0.280000    6.340000   24.577998      10.0000    195.0840
  343   3 Pt  78       4.480000    8.870000   24.597998      10.0000    195.0840
  344   3 Pt  78       7.170000    8.850000   24.597998      10.0000    195.0840
  345   3 Pt  78      10.070001    8.830000   24.617999      10.0000    195.0840
  346   3 Pt  78      -4.010000    8.890000   24.597998      10.0000    195.0840
  347   3 Pt  78      -1.140000    8.830000   24.497996      10.0000    195.0840
  348   3 Pt  78       1.700000    8.870000   24.538001      10.0000    195.0840
  349   3 Pt  78       5.900001   11.260000   24.507998      10.0000    195.0840
  350   3 Pt  78       8.660001   11.350001   24.577998      10.0000    195.0840
  351   3 Pt  78      -5.420001   11.330000   24.518000      10.0000    195.0840
  352   3 Pt  78      -2.600000   11.340000   24.647998      10.0000    195.0840
  353   3 Pt  78       0.180000   11.290001   24.467997      10.0000    195.0840
  354   3 Pt  78       3.000000   11.290001   24.507998      10.0000    195.0840
  355   3 Pt  78       7.350000   13.640001   24.557998      10.0000    195.0840
  356   3 Pt  78      -6.640000   13.750001   24.687999      10.0000    195.0840
  357   3 Pt  78      -3.940000   13.780001   24.647998      10.0000    195.0840
  358   3 Pt  78      -1.240000   13.750001   24.597998      10.0000    195.0840
  359   3 Pt  78       1.550000   13.690001   24.577998      10.0000    195.0840
  360   3 Pt  78       4.480000   13.650000   24.577998      10.0000    195.0840
  361   3 Pt  78      -8.240001   14.570000   22.307998      10.0000    195.0840
  362   3 Pt  78      -5.430000   14.510001   22.367999      10.0000    195.0840
  363   3 Pt  78      -2.580000   14.430000   22.307998      10.0000    195.0840
  364   3 Pt  78       0.150000   14.400001   22.217997      10.0000    195.0840
  365   3 Pt  78       3.020000   14.440001   22.257998      10.0000    195.0840
  366   3 Pt  78       5.810000   14.570000   22.177996      10.0000    195.0840
  367   3 Pt  78       1.630000    2.400000   22.327998      10.0000    195.0840
  368   3 Pt  78       4.450000    2.440000   22.307998      10.0000    195.0840
  369   3 Pt  78       7.230001    2.280000   22.128001      10.0000    195.0840
  370   3 Pt  78      10.040001    2.180000   22.187999      10.0000    195.0840
  371   3 Pt  78      12.920000    2.310000   22.107997      10.0000    195.0840
  372   3 Pt  78      -1.240000    2.320000   22.247996      10.0000    195.0840
  373   3 Pt  78       3.080000    4.870000   22.228000      10.0000    195.0840
  374   3 Pt  78       5.780000    4.790000   22.217997      10.0000    195.0840
  375   3 Pt  78       8.720000    4.810000   22.167998      10.0000    195.0840
  376   3 Pt  78      11.370001    4.770000   22.167998      10.0000    195.0840
  377   3 Pt  78      -2.640000    4.780000   22.228000      10.0000    195.0840
  378   3 Pt  78       0.240000    4.780000   22.257998      10.0000    195.0840
  379   3 Pt  78       4.360000    7.300000   22.228000      10.0000    195.0840
  380   3 Pt  78       7.270000    7.190001   22.217997      10.0000    195.0840
  381   3 Pt  78       9.990001    7.340000   22.338000      10.0000    195.0840
  382   3 Pt  78      -4.060000    7.180000   22.257998      10.0000    195.0840
  383   3 Pt  78      -1.160000    7.090001   22.207999      10.0000    195.0840
  384   3 Pt  78       1.630000    7.190001   22.277999      10.0000    195.0840
  385   3 Pt  78       5.790000    9.730001   22.237998      10.0000    195.0840
  386   3 Pt  78       8.560000    9.680000   22.387999      10.0000    195.0840
  387   3 Pt  78      -5.410000    9.640000   22.417998      10.0000    195.0840
  388   3 Pt  78      -2.630000    9.600000   22.327998      10.0000    195.0840
  389   3 Pt  78       0.260000    9.600000   22.268000      10.0000    195.0840
  390   3 Pt  78       3.000000    9.670001   22.237998      10.0000    195.0840
  391   3 Pt  78       7.180000   12.140001   22.217997      10.0000    195.0840
  392   3 Pt  78      -6.910000   12.100000   22.297999      10.0000    195.0840
  393   3 Pt  78      -4.050000   12.060001   22.317996      10.0000    195.0840
  394   3 Pt  78      -1.230000   11.990000   22.257998      10.0000    195.0840
  395   3 Pt  78       1.540000   12.110001   22.147998      10.0000    195.0840
  396   3 Pt  78       4.290000   12.130001   22.257998      10.0000    195.0840
  397   3 Pt  78       1.620000    0.740000   20.040000      10.0000    195.0840
  398   3 Pt  78       4.490000    0.660000   20.160000      10.0000    195.0840
  399   3 Pt  78       7.160000    0.640000   19.920000      10.0000    195.0840
  400   3 Pt  78       9.900001    0.640000   19.860000      10.0000    195.0840
  401   3 Pt  78      12.750001    0.680000   19.780000      10.0000    195.0840
  402   3 Pt  78      15.550001    0.740000   19.900000      10.0000    195.0840
  403   3 Pt  78       3.060000    3.040000   19.980000      10.0000    195.0840
  404   3 Pt  78       5.810000    3.170000   19.830000      10.0000    195.0840
  405   3 Pt  78       8.570001    3.170000   19.890000      10.0000    195.0840
  406   3 Pt  78      11.330000    3.030000   19.870000      10.0000    195.0840
  407   3 Pt  78      14.220000    3.080000   19.850000      10.0000    195.0840
  408   3 Pt  78       0.180000    3.120000   19.930000      10.0000    195.0840
  409   3 Pt  78       4.390000    5.620000   19.910000      10.0000    195.0840
  410   3 Pt  78       7.140000    5.690000   19.900000      10.0000    195.0840
  411   3 Pt  78       9.900001    5.690000   19.920000      10.0000    195.0840
  412   3 Pt  78      12.750001    5.500000   19.980000      10.0000    195.0840
  413   3 Pt  78      -1.130000    5.510000   19.910000      10.0000    195.0840
  414   3 Pt  78       1.700000    5.470000   19.940000      10.0000    195.0840
  415   3 Pt  78       5.770000    8.080000   19.910000      10.0000    195.0840
  416   3 Pt  78       8.600000    8.080000   19.950000      10.0000    195.0840
  417   3 Pt  78      11.440001    8.010000   19.950000      10.0000    195.0840
  418   3 Pt  78      -2.640000    7.910000   19.940000      10.0000    195.0840
  419   3 Pt  78       0.210000    7.900000   19.920000      10.0000    195.0840
  420   3 Pt  78       2.940000    8.030001   19.900000      10.0000    195.0840
  421   3 Pt  78       7.180000   10.520000   20.010000      10.0000    195.0840
  422   3 Pt  78       9.970000   10.430001   20.090000      10.0000    195.0840
  423   3 Pt  78      -4.050000   10.410000   20.080000      10.0000    195.0840
  424   3 Pt  78      -1.220000   10.320001   19.890000      10.0000    195.0840
  425   3 Pt  78       1.460000   10.440001   19.830000      10.0000    195.0840
  426   3 Pt  78       4.330000   10.420000   19.930000      10.0000    195.0840
  427   3 Pt  78       8.560000   12.970000   20.020000      10.0000    195.0840
  428   3 Pt  78      -5.520000   12.860001   20.190000      10.0000    195.0840
  429   3 Pt  78      -2.620000   12.710000   19.910000      10.0000    195.0840
  430   3 Pt  78       0.040000   12.720001   19.890000      10.0000    195.0840
  431   3 Pt  78       2.830000   12.830001   19.770000      10.0000    195.0840
  432   3 Pt  78       5.780000   12.910000   19.850000      10.0000    195.0840
  433   3 Pt  78       0.110000    1.600000   17.680000      10.0000    195.0840
  434   3 Pt  78       2.990000    1.610000   17.770000      10.0000    195.0840
  435   3 Pt  78       5.750000    1.550000   17.590000      10.0000    195.0840
  436   3 Pt  78       8.500000    1.470000   17.560000      10.0000    195.0840
  437   3 Pt  78      11.140001    1.480000   17.590000      10.0000    195.0840
  438   3 Pt  78      13.980001    1.550000   17.500000      10.0000    195.0840
  439   3 Pt  78       1.550000    3.910000   17.660000      10.0000    195.0840
  440   3 Pt  78       4.220000    4.030000   17.460000      10.0000    195.0840
  441   3 Pt  78       7.130001    4.020000   17.550000      10.0000    195.0840
  442   3 Pt  78       9.840000    4.090000   17.500000      10.0000    195.0840
  443   3 Pt  78      12.540001    3.900000   17.550000      10.0000    195.0840
  444   3 Pt  78      -1.450000    3.890000   17.650000      10.0000    195.0840
  445   3 Pt  78       2.930000    6.360001   17.480000      10.0000    195.0840
  446   3 Pt  78       5.640000    6.510000   17.630000      10.0000    195.0840
  447   3 Pt  78       8.470000    6.480000   17.560000      10.0000    195.0840
  448   3 Pt  78      11.300000    6.390000   17.420000      10.0000    195.0840
  449   3 Pt  78      -2.690000    6.320000   17.730000      10.0000    195.0840
  450   3 Pt  78       0.150000    6.310000   17.700000      10.0000    195.0840
  451   3 Pt  78       4.230000    8.840000   17.550000      10.0000    195.0840
  452   3 Pt  78       7.030000    8.950001   17.710000      10.0000    195.0840
  453   3 Pt  78       9.890000    8.960000   17.720000      10.0000    195.0840
  454   3 Pt  78      -4.070000    8.780001   17.700000      10.0000    195.0840
  455   3 Pt  78      -1.270000    8.820001   17.700000      10.0000    195.0840
  456   3 Pt  78       1.440000    8.790001   17.500000      10.0000    195.0840
  457   3 Pt  78       5.670000   11.290001   17.680000      10.0000    195.0840
  458   3 Pt  78       8.580000   11.330000   17.650000      10.0000    195.0840
  459   3 Pt  78      -5.490000   11.340000   17.810000      10.0000    195.0840
  460   3 Pt  78      -2.670000   11.290001   17.690000      10.0000    195.0840
  461   3 Pt  78       0.130000   11.140001   17.450000      10.0000    195.0840
  462   3 Pt  78       2.850000   11.200000   17.610000      10.0000    195.0840
  463   3 Pt  78       7.140000   13.740001   17.700000      10.0000    195.0840
  464   3 Pt  78      -6.950001   13.790001   17.770000      10.0000    195.0840
  465   3 Pt  78      -4.190001   13.770000   17.690000      10.0000    195.0840
  466   3 Pt  78      -1.360000   13.700001   17.550000      10.0000    195.0840
  467   3 Pt  78       1.430000   13.590001   17.600000      10.0000    195.0840
  468   3 Pt  78       4.310000   13.750001   17.540000      10.0000    195.0840
  469   3 Pt  78      -8.520000   14.640001   15.460000      10.0000    195.0840
  470   3 Pt  78      -5.680000   14.680000   15.340000      10.0000    195.0840
  471   3 Pt  78      -2.900000   14.590001   15.240000      10.0000    195.0840
  472   3 Pt  78      -0.210000   14.640001   15.120000      10.0000    195.0840
  473   3 Pt  78       2.730000   14.480001   15.280000      10.0000    195.0840
  474   3 Pt  78       5.550000   14.460001   15.130000      10.0000    195.0840
  475   3 Pt  78       1.350000    2.390000   15.330000      10.0000    195.0840
  476   3 Pt  78       4.150000    2.480000   15.230000      10.0000    195.0840
  477   3 Pt  78       6.940000    2.420000   15.290000      10.0000    195.0840
  478   3 Pt  78       9.770000    2.450000   15.190000      10.0000    195.0840
  479   3 Pt  78      12.570001    2.310000   15.250000      10.0000    195.0840
  480   3 Pt  78      -1.460000    2.350000   15.230000      10.0000    195.0840
  481   3 Pt  78       2.760000    4.790000   15.000000      10.0000    195.0840
  482   3 Pt  78       5.510000    5.020000   15.110000      10.0000    195.0840
  483   3 Pt  78       8.280001    4.880000   15.190000      10.0000    195.0840
  484   3 Pt  78      11.190001    4.680000   15.020000      10.0000    195.0840
  485   3 Pt  78      -2.880000    4.700000   15.370000      10.0000    195.0840
  486   3 Pt  78      -0.120000    4.780000   15.310000      10.0000    195.0840
  487   3 Pt  78       4.030000    7.270000   15.020000      10.0000    195.0840
  488   3 Pt  78       6.870000    7.290000   15.290000      10.0000    195.0840
  489   3 Pt  78       9.720000    7.180000   15.240000      10.0000    195.0840
  490   3 Pt  78      -4.180000    7.180000   15.160000      10.0000    195.0840
  491   3 Pt  78      -1.510000    7.190001   15.310000      10.0000    195.0840
  492   3 Pt  78       1.350000    7.280001   15.240000      10.0000    195.0840
  493   3 Pt  78       5.440001    9.680000   15.330000      10.0000    195.0840
  494   3 Pt  78       8.240001    9.650001   15.350000      10.0000    195.0840
  495   3 Pt  78      -5.600000    9.800000   15.440000      10.0000    195.0840
  496   3 Pt  78      -2.940000    9.720000   15.490000      10.0000    195.0840
  497   3 Pt  78      -0.250000    9.670001   15.039999      10.0000    195.0840
  498   3 Pt  78       2.670000    9.600000   15.210000      10.0000    195.0840
  499   3 Pt  78       6.940000   12.210001   15.450000      10.0000    195.0840
  500   3 Pt  78      -6.990001   12.140001   15.409999      10.0000    195.0840
  501   3 Pt  78      -4.250000   12.170000   15.480000      10.0000    195.0840
  502   3 Pt  78      -1.470000   12.240001   15.110000      10.0000    195.0840
  503   3 Pt  78       1.300000   12.140001   15.220000      10.0000    195.0840
  504   3 Pt  78       4.020000   12.190001   15.280000      10.0000    195.0840




 SCF PARAMETERS         Density guess:                                   RESTART
[...]
 flops    13 x    32 x     5           4596862400       0.0%    100.0%      0.0%
 flops     5 x    32 x    13           4596862400       0.0%    100.0%      0.0%
 flops    20 x    13 x   108           4600627200       0.0%    100.0%      0.0%
 flops     5 x    20 x   108           4901040000       0.0%    100.0%      0.0%
 flops    20 x     5 x   108           4901040000       0.0%    100.0%      0.0%
 flops    13 x    13 x    96           5435688960       0.0%    100.0%      0.0%
 flops    13 x    32 x    13           5462945280       0.0%    100.0%      0.0%
 flops    13 x    20 x    96           8091033600       0.0%    100.0%      0.0%
 flops    20 x    13 x    96           8178892800       0.0%    100.0%      0.0%
 flops    13 x    32 x    20           8270545920       0.0%    100.0%      0.0%
 flops    20 x    32 x    13           8270545920       0.0%    100.0%      0.0%
 flops     5 x    20 x    96           8712960000       0.0%    100.0%      0.0%
 flops    20 x     5 x    96           8712960000       0.0%    100.0%      0.0%
 flops     5 x    32 x    20           8858176000       0.0%    100.0%      0.0%
 flops    20 x    32 x     5           8858176000       0.0%    100.0%      0.0%
 flops     5 x     5 x   128          30822272000       0.0%    100.0%      0.0%
 flops    13 x     5 x   128          39179878400       0.0%    100.0%      0.0%
 flops     5 x    13 x   128          39192857600       0.0%    100.0%      0.0%
 flops    20 x    20 x   108          40497408000       0.0%    100.0%      0.0%
 flops    13 x    13 x   128          47109304320       0.0%    100.0%      0.0%
 flops    13 x    20 x   128          70122291200       0.0%    100.0%      0.0%
 flops    20 x    13 x   128          70883737600       0.0%    100.0%      0.0%
 flops    20 x    20 x    96          71995392000       0.0%    100.0%      0.0%
 flops    20 x    32 x    20          72858009600       0.0%    100.0%      0.0%
 flops     5 x    20 x   128          75512320000       0.0%    100.0%      0.0%
 flops    20 x     5 x   128          75512320000       0.0%    100.0%      0.0%
 flops    20 x    20 x   128         623960064000       0.0%    100.0%      0.0%
 flops inhomo. stacks                           0       0.0%      0.0%      0.0%
 flops total                         1.391757E+12       0.0%    100.0%      0.0%
 flops max/rank                     12.617736E+09       0.0%    100.0%      0.0%
 matmuls inhomo. stacks                         0       0.0%      0.0%      0.0%
 matmuls total                           42193152       0.0%    100.0%      0.0%
 number of processed stacks                390971       0.0%    100.0%      0.0%
 average stack size                                     0.0     107.9       0.0
 marketing flops                     2.767063E+12
 -------------------------------------------------------------------------------
 # multiplications                             21
 max memory usage/rank               1.557860E+09
 # max total images/rank                        2
 # max 3D layers                                1
 # MPI messages exchanged                   77952
 MPI messages size (bytes):
  total size                        49.701425E+09
  min size                         287.232000E+03
  max size                           2.266480E+06
  average size                     637.590125E+03
 MPI breakdown and total messages size (bytes):
             size <=      128                   0                        0
       128 < size <=     8192                   0                        0
      8192 < size <=    32768                   0                        0
     32768 < size <=   131072                   0                        0
    131072 < size <=  4194304               77952              49701424992
   4194304 < size <= 16777216                   0                        0
  16777216 < size                               0                        0
 -------------------------------------------------------------------------------

 *** WARNING in dbcsr_mm.F:290 :: Using a non-square number of MPI ranks ***
 *** might lead to poor performance. Used ranks: 128 Suggested: 121 256  ***

 -------------------------------------------------------------------------------
 -                                                                             -
 -                      DBCSR MESSAGE PASSING PERFORMANCE                      -
 -                                                                             -
 -------------------------------------------------------------------------------
 ROUTINE             CALLS      AVE VOLUME [Bytes]
 MP_Bcast               46                     12.
 MP_Allreduce          250                     15.
 MP_Alltoall           581                 590734.
 MP_ISend             1344                 304119.
 MP_IRecv             1344                 297778.
 -------------------------------------------------------------------------------

 -------------------------------------------------------------------------------
 -                                                                             -
 -                                DBM STATISTICS                               -
 -                                                                             -
 -------------------------------------------------------------------------------
    M  x    N  x    K                                          COUNT     PERCENT
 -------------------------------------------------------------------------------

 -------------------------------------------------------------------------------
 -                                                                             -
 -                                GRID STATISTICS                              -
 -                                                                             -
 -------------------------------------------------------------------------------
 LP    KERNEL             BACKEND                              COUNT     PERCENT
 4     collocate general  REF                                7663498      22.67%
 4     integrate general  REF                                7530029      22.28%
 3     collocate general  REF                                5127587      15.17%
 3     integrate general  REF                                5067186      14.99%
 2     collocate general  REF                                3979968      11.77%
 2     integrate general  REF                                3770496      11.16%
 5     integrate general  REF                                 403342       1.19%
 0     collocate general  REF                                 129024       0.38%
 0     integrate general  REF                                  64512       0.19%
 1     integrate general  REF                                  64512       0.19%
 -------------------------------------------------------------------------------

 MEMORY| Estimated peak process memory [MiB]                                1745

 -------------------------------------------------------------------------------
 ----                             MULTIGRID INFO                            ----
 -------------------------------------------------------------------------------
 count for grid        1:        1091151          cutoff [a.u.]          200.00
 count for grid        2:        1086254          cutoff [a.u.]           66.67
 count for grid        3:         707557          cutoff [a.u.]           22.22
 count for grid        4:         543040          cutoff [a.u.]            7.41
 total gridlevel count  :        3428002

 -------------------------------------------------------------------------------
 -                                                                             -
 -                         MESSAGE PASSING PERFORMANCE                         -
 -                                                                             -
 -------------------------------------------------------------------------------

 ROUTINE             CALLS      AVE VOLUME [Bytes]
 MP_Group                4
 MP_Bcast             2133                 315061.
 MP_Allreduce         2908                  36505.
 MP_Sync                44
 MP_Alltoall          1162               16661949.
 MP_SendRecv           508                   5832.
 MP_ISendRecv         9652                  61740.
 MP_Wait             17398
 MP_comm_split          20
 MP_ISend             7308                 256925.
 MP_IRecv             7308                 256925.
 MP_Recv                61                1671168.
 MP_Write_All            3                1797408.
 -------------------------------------------------------------------------------


 -------------------------------------------------------------------------------
 -                                                                             -
 -                           R E F E R E N C E S                               -
 -                                                                             -
 -------------------------------------------------------------------------------
 
 CP2K version 2022.1, the CP2K developers group (2022).
 CP2K is freely available from https://www.cp2k.org/ .

 Kuehne,Thomas D.; Iannuzzi,Marcella; Del Ben,Mauro;
 Rybkin,Vladimir V.; Seewald,Patrick; Stein,Frederick; Laino,Teodoro;
 Khaliullin,Rustam Z.; Schuett,Ole; Schiffmann,Florian; Golze,Dorothea;
 Wilhelm,Jan; Chulkov,Sergey; Bani-Hashemian,Mohammad Hossein;
 Weber,Valery; Borstnik,Urban; Taillefumier,Mathieu;
 Jakobovits,Alice Shoshana; Lazzaro,Alfio; Pabst,Hans; Mueller,Tiziano;
 Schade,Robert; Guidon,Manuel; Andermatt,Samuel; Holmberg,Nico;
 Schenter,Gregory K.; Hehn,Anna; Bussy,Augustin; Belleflamme,Fabian;
 Tabacchi,Gloria; Gloess,Andreas; Lass,Michael; Bethune,Iain;
 Mundy,Christopher J.; Plessl,Christian; Watkins,Matt;
 VandeVondele,Joost; Krack,Matthias; Hutter,Juerg. 
 The Journal of Chemical Physics, 152 (19), (2020). 
 CP2K: An electronic structure and molecular dynamics software package -
 Quickstep: Efficient and accurate electronic structure calculations.
 https://doi.org/10.1063/5.0007045

 Goerigk, Lars; Hansen, Andreas; Bauer, Christoph; Ehrlich, Stephan;
 Najibi, Asim; Grimme, Stefan. , 19 (48), (2017). 
 A look at the density functional theory zoo with the advanced GMTKN55 database
 for general main group thermochemistry, kinetics and noncovalent interactions.
 https://doi.org/10.1039/C7CP04913G

 Bani-Hashemian, MH; Bruck, S; Luisier, M; VandeVondele, J. 
 JOURNAL OF CHEMICAL PHYSICS, 144 (4), 044113 (2016). 
 A generalized Poisson solver for first-principles device simulations.
 https://doi.org/10.1063/1.4940796

 Schuett, Ole; Messmer, Peter; Hutter, Juerg; VandeVondele, Joost. 
 Electronic Structure Calculations on Graphics Processing Units, John
 Wiley & Sons, Ltd, 173-190 (2016). 
 GPU-Accelerated Sparse Matrix-Matrix Multiplication for
 Linear Scaling Density Functional Theory.
 https://doi.org/10.1002/9781118670712.ch8

 Heinecke, A; Henry, G; Hutchinson, M; Pabst, H. 
 Proceedings of Intl. Supercomputing Conference, 981-991 (2016). 
 LIBXSMM: Accelerating Small Matrix Multiplications
 by Runtime Code Generation.
 https://doi.org/10.1109/SC.2016.83

 Borstnik, U; VandeVondele, J; Weber, V; Hutter, J. 
 PARALLEL COMPUTING, 40 (5-6), 47-58 (2014). 
 Sparse matrix multiplication: The distributed block-compressed sparse
 row library.
 https://doi.org/10.1016/j.parco.2014.03.012

 Hutter, J; Iannuzzi, M; Schiffmann, F; VandeVondele, J. 
 WIREs Comput Mol Sci., 4 (1), 15-25 (2014). 
 CP2K: atomistic simulations of condensed matter systems.
 https://doi.org/10.1002/wcms.1159

 Marek, A; Blum, V; Johanni, R; Havu, V; Lang, B; Auckenthaler, T;
 Heinecke, A; Bungartz, H; Lederer, H. 
 Journal of Physics: Condensed Matter, 26 (21), (2014). 
 The ELPA library: scalable parallel eigenvalue solutions for
 electronic structure
 theory and computational science.
 https://doi.org/10.1088/0953-8984/26/21/213201

 Grimme, S; Ehrlich, S; Goerigk, L. 
 JOURNAL OF COMPUTATIONAL CHEMISTRY, 32, 1456 (2011). 
 Effect of the damping function in dispersion corrected density functional theory.
 https://doi.org/10.1002/jcc.21759

 Grimme, S; Antony, J; Ehrlich, S; Krieg, H. 
 JOURNAL OF CHEMICAL PHYSICS, 132 (15), 154104 (2010). 
 A consistent and accurate ab initio parametrization of density
 functional dispersion correction (DFT-D) for the 94 elements H-Pu.
 https://doi.org/10.1063/1.3382344

 VandeVondele, J; Hutter, J. 
 JOURNAL OF CHEMICAL PHYSICS, 127 (11), 114105 (2007). 
 Gaussian basis sets for accurate calculations on molecular systems in
 gas and condensed phases.
 https://doi.org/10.1063/1.2770708

 Krack, M. 
 THEORETICAL CHEMISTRY ACCOUNTS, 114 (1-3), 145-152 (2005). 
 Pseudopotentials for H to Kr optimized for gradient-corrected
 exchange-correlation functionals.
 https://doi.org/10.1007/s00214-005-0655-y

 VandeVondele, J; Krack, M; Mohamed, F; Parrinello, M; Chassaing, T;
 Hutter, J. COMPUTER PHYSICS COMMUNICATIONS, 167 (2), 103-128 (2005). 
 QUICKSTEP: Fast and accurate density functional calculations using a
 mixed Gaussian and plane waves approach.
 https://doi.org/10.1016/j.cpc.2004.12.014

 Frigo, M; Johnson, SG. 
 PROCEEDINGS OF THE IEEE, 93 (2), 216-231 (2005). 
 The design and implementation of FFTW3.
 https://doi.org/10.1109/JPROC.2004.840301

 Hartwigsen, C; Goedecker, S; Hutter, J. 
 PHYSICAL REVIEW B, 58 (7), 3641-3662 (1998). 
 Relativistic separable dual-space Gaussian pseudopotentials from H to Rn.
 https://doi.org/10.1103/PhysRevB.58.3641

 Lippert, G; Hutter, J; Parrinello, M. 
 MOLECULAR PHYSICS, 92 (3), 477-487 (1997). 
 A hybrid Gaussian and plane wave density functional scheme.
 https://doi.org/10.1080/002689797170220

 Perdew, JP; Burke, K; Ernzerhof, M. 
 PHYSICAL REVIEW LETTERS, 77 (18), 3865-3868 (1996). 
 Generalized gradient approximation made simple.
 https://doi.org/10.1103/PhysRevLett.77.3865

 Goedecker, S; Teter, M; Hutter, J. 
 PHYSICAL REVIEW B, 54 (3), 1703-1710 (1996). 
 Separable dual-space Gaussian pseudopotentials.
 https://doi.org/10.1103/PhysRevB.54.1703


 -------------------------------------------------------------------------------
 -                                                                             -
 -                                T I M I N G                                  -
 -                                                                             -
 -------------------------------------------------------------------------------
 SUBROUTINE                       CALLS  ASD         SELF TIME        TOTAL TIME
                                MAXIMUM       AVERAGE  MAXIMUM  AVERAGE  MAXIMUM
 CP2K                                 1  1.0    0.346    0.361  137.642  137.643
 qs_forces                            1  2.0    0.002    0.002  136.944  136.945
 qs_energies                          1  3.0    0.000    0.001  130.848  130.853
 scf_env_do_scf                       1  4.0    0.000    0.000  121.844  121.987
 scf_env_do_scf_inner_loop           18  5.0    0.002    0.003  121.840  121.983
 rebuild_ks_matrix                   19  6.8    0.000    0.000   68.938   68.955
 qs_ks_build_kohn_sham_matrix        19  7.8    0.003    0.004   68.938   68.955
 qs_ks_update_qs_env                 18  6.0    0.000    0.000   64.941   64.958
 pw_transfer                        992 12.1    0.073    0.090   44.140   44.994
 fft_wrap_pw1pw2                    992 13.1    0.010    0.012   44.067   44.906
 fft_wrap_pw1pw2_200                878 14.3    2.928    3.514   43.469   44.272
 pw_poisson_solve                    19  8.8    0.002    0.005   37.582   37.601
 fft3d_ps                           992 15.1   12.484   13.902   35.597   36.954
 implicit_poisson_solver_mixed_      19  9.8    0.788    0.963   35.338   35.363
 qs_scf_new_mos                      18  6.0    0.001    0.002   34.914   34.953
 eigensolver                         18  7.0    0.001    0.002   32.986   33.090
 derive_fft                         114 12.0    0.007    0.008   24.768   24.870
 cp_fm_diag_elpa                     20  8.1    0.000    0.000   24.037   24.096
 cp_fm_redistribute_end              20  9.1    3.225   23.822    3.262   23.843
 mp_alltoall_z22v                   992 17.1   19.456   23.837   19.456   23.837
 cp_fm_diag_elpa_base                20  9.1   20.271   23.302   20.468   23.516
 apply_P_operator                    95 11.0    0.511    0.568   21.093   21.179
 sum_up_and_integrate                19  8.8    0.103    0.137   20.682   20.708
 integrate_v_rspace                  19  9.8    0.001    0.004   20.579   20.628
 qs_rho_update_rho_low               19  6.0    0.000    0.000   20.356   20.361
 calculate_rho_elec                  19  7.0    0.037    0.047   20.355   20.361
 grid_collocate_task_list            19  8.0   13.476   15.807   13.476   15.807
 x_to_yz                            571 16.3    2.430    3.094   14.812   15.411
 grid_integrate_task_list            19 10.8   12.611   14.512   12.611   14.512
 rs_pw_transfer                     156 10.3    0.002    0.002    9.523   11.375
 cp_fm_triangular_multiply           54  8.0   10.513   10.659   10.513   10.659
 yz_to_x                            307 16.3    0.839    0.983    7.838   10.650
 qs_vxc_create                       19  8.8    0.001    0.001    9.475    9.586
 xc_vxc_pw_create                    19  9.8    0.163    0.203    9.474    9.585
 density_rs2pw                       19  8.0    0.001    0.001    6.521    8.404
 xc_pw_derive                       114 11.8    0.002    0.002    6.692    7.421
 apply_poisson_operator_fft          19 10.8    0.000    0.000    6.173    6.279
 apply_inv_laplace_operator_fft      59 11.6    0.147    0.166    5.814    6.016
 mp_waitany                        7308 12.2    4.100    5.998    4.100    5.998
 rs_pw_transfer_RS2PW_200            21  9.9    1.365    1.543    3.983    5.819
 potential_pw2rs                     19 10.8    0.006    0.006    5.593    5.646
 scf_post_calculation_gpw             1  4.0    0.000    0.001    5.533    5.538
 write_available_results              1  5.0    0.000    0.000    5.532    5.538
 xc_pw_divergence                    19 10.8    0.001    0.001    4.528    5.075
 xc_rho_set_and_dset_create          19 10.8    0.095    0.111    4.616    4.914
 ps_implicit_compute_error_fft       38 10.8    0.239    0.291    4.248    4.535
 mp_alltoall_d11v                   288 10.2    2.853    4.531    2.853    4.531
 ps_implicit_compute_veps            19 10.8    0.112    0.132    4.300    4.375
 pw_scatter_p                       628 15.3    3.519    4.330    3.519    4.330
 qs_ks_update_qs_env_forces           1  3.0    0.000    0.000    4.030    4.030
 rs_gather_matrices                  19 10.8    0.023    0.032    2.364    3.999
 write_mo_dependent_results           1  6.0    0.000    0.000    2.517    3.613
 calculate_projected_dos              1  7.0    0.350    1.591    2.517    3.613
 rs_pw_transfer_PW2RS_200            21 12.4    1.590    1.677    3.487    3.592
 pw_derive                          456 13.0    2.896    3.135    2.896    3.135
 write_mo_free_results                1  6.0    0.273    0.401    3.015    3.026
 -------------------------------------------------------------------------------

 The number of warnings for this run is : 1
 
 -------------------------------------------------------------------------------
  **** **** ******  **  PROGRAM ENDED AT                 2023-12-02 16:45:39.697
 ***** ** ***  *** **   PROGRAM RAN ON                                     cu062
 **    ****   ******    PROGRAM RAN BY                                     jxzhu
 ***** **    ** ** **   PROGRAM PROCESS ID                                 43593
  **** **  *******  **  PROGRAM STOPPED IN /public/home/jxzhu/tmp_calc/a454151b1
                                           7372fa9d0ed997a20267c6307913a7d/calc/
                                           001800.000/search_hi.000000
