 DBCSR| CPU Multiplication driver                                           XSMM
 DBCSR| Multrec recursion limit                                              512
 DBCSR| Multiplication stack size                                           1000
 DBCSR| Maximum elements for images                                    UNLIMITED
 DBCSR| Multiplicative factor virtual images                                   1
 DBCSR| Use multiplication densification                                       T
 DBCSR| Multiplication size stacks                                             3
 DBCSR| Use memory pool for CPU allocation                                     F
 DBCSR| Number of 3D layers                                               SINGLE
 DBCSR| Use MPI memory allocation                                              F
 DBCSR| Use RMA algorithm                                                      F
 DBCSR| Use Communication thread                                               T
 DBCSR| Communication thread load                                             87
 DBCSR| MPI: My node id                                                        0
 DBCSR| MPI: Number of nodes                                                 128
 DBCSR| OMP: Current number of threads                                         1
 DBCSR| OMP: Max number of threads                                             1
 DBCSR| Split modifier for TAS multiplication algorithm                  1.0E+00


  **** **** ******  **  PROGRAM STARTED AT               2023-12-02 14:24:54.826
 ***** ** ***  *** **   PROGRAM STARTED ON                                 cu098
 **    ****   ******    PROGRAM STARTED BY                                 jxzhu
 ***** **    ** ** **   PROGRAM PROCESS ID                                 17100
  **** **  *******  **  PROGRAM STARTED IN /public/home/jxzhu/tmp_calc/b95cabd09
                                           9d10657bfd0ad47b39e85f2cdef7839/calc/
                                           001600.000/search_hi.000002

 CP2K| version string:                                       CP2K version 2022.1
 CP2K| source code revision number:                                  git:2caeb6f
 CP2K| cp2kflags: omp libint fftw3 libxc elpa parallel mpi3 scalapack cosma xsmm
 CP2K|             plumed2 spglib mkl sirius libvori libbqb
 CP2K| is freely available from                            https://www.cp2k.org/
 CP2K| Program compiled at                           Mon Jul 3 17:37:06 CST 2023
 CP2K| Program compiled on                                                 mu003
 CP2K| Program compiled for                                                local
 CP2K| Data directory path                             /public/home/jxzhu/basis/
 CP2K| Input file name                                                 input.inp
 
 GLOBAL| Force Environment number                                              1
 GLOBAL| Basis set file name                                        BASIS_MOLOPT
 GLOBAL| Potential file name                                      GTH_POTENTIALS
 GLOBAL| MM Potential file name                                     MM_POTENTIAL
 GLOBAL| Coordinate file name                                          coord.xyz
 GLOBAL| Method name                                                        CP2K
 GLOBAL| Project name                                                       cp2k
 GLOBAL| Run type                                                   ENERGY_FORCE
 GLOBAL| FFT library                                                       FFTW3
 GLOBAL| Diagonalization library                                            ELPA
 GLOBAL| Minimum number of eigenvectors for ELPA usage                        16
 GLOBAL| Orthonormality check for eigenvectors                          DISABLED
 GLOBAL| Matrix multiplication library                                     COSMA
 GLOBAL| All-to-all communication in single precision                          F
 GLOBAL| FFTs using library dependent lengths                                  T
 GLOBAL| Grid backend                                                       AUTO
 GLOBAL| Global print level                                               MEDIUM
 GLOBAL| MPI I/O enabled                                                       T
 GLOBAL| Total number of message passing processes                           128
 GLOBAL| Number of threads for this process                                    1
 GLOBAL| This output is from process                                           0
 GLOBAL| Stack size for threads created by OpenMP (OMP_STACKSIZE)        default
 GLOBAL| CPU model name                 Intel(R) Xeon(R) Gold 6338 CPU @ 2.00GHz
 GLOBAL| CPUID                                                              1003

 MEMORY| system memory details [Kb]
 MEMORY|                        rank 0           min           max       average
 MEMORY| MemTotal            263619172     263619172     263619172     263619172
 MEMORY| MemFree             222349240     222349240     223830516     223089572
 MEMORY| Buffers                    28            28          3320          1674
 MEMORY| Cached                2173672       1367052       2173672       1770362
 MEMORY| Slab                  1342220       1210012       1342220       1276116
 MEMORY| SReclaimable           228328        228328        250344        239336
 MEMORY| MemLikelyFree       224751268     224751268     225451232     225100944


 *** Fundamental physical constants (SI units) ***

 *** Literature: B. J. Mohr and B. N. Taylor,
 ***             CODATA recommended values of the fundamental physical
 ***             constants: 2006, Web Version 5.1
 ***             http://physics.nist.gov/constants

 Speed of light in vacuum [m/s]                             2.99792458000000E+08
 Magnetic constant or permeability of vacuum [N/A**2]       1.25663706143592E-06
 Electric constant or permittivity of vacuum [F/m]          8.85418781762039E-12
 Planck constant (h) [J*s]                                  6.62606896000000E-34
 Planck constant (h-bar) [J*s]                              1.05457162825177E-34
 Elementary charge [C]                                      1.60217648700000E-19
 Electron mass [kg]                                         9.10938215000000E-31
 Electron g factor [ ]                                     -2.00231930436220E+00
 Proton mass [kg]                                           1.67262163700000E-27
 Fine-structure constant                                    7.29735253760000E-03
 Rydberg constant [1/m]                                     1.09737315685270E+07
 Avogadro constant [1/mol]                                  6.02214179000000E+23
 Boltzmann constant [J/K]                                   1.38065040000000E-23
 Atomic mass unit [kg]                                      1.66053878200000E-27
 Bohr radius [m]                                            5.29177208590000E-11

 *** Conversion factors ***

 [u] -> [a.u.]                                              1.82288848426455E+03
 [Angstrom] -> [Bohr] = [a.u.]                              1.88972613288564E+00
 [a.u.] = [Bohr] -> [Angstrom]                              5.29177208590000E-01
 [a.u.] -> [s]                                              2.41888432650478E-17
 [a.u.] -> [fs]                                             2.41888432650478E-02
 [a.u.] -> [J]                                              4.35974393937059E-18
 [a.u.] -> [N]                                              8.23872205491840E-08
 [a.u.] -> [K]                                              3.15774647902944E+05
 [a.u.] -> [kJ/mol]                                         2.62549961709828E+03
 [a.u.] -> [kcal/mol]                                       6.27509468713739E+02
 [a.u.] -> [Pa]                                             2.94210107994716E+13
 [a.u.] -> [bar]                                            2.94210107994716E+08
 [a.u.] -> [atm]                                            2.90362800883016E+08
 [a.u.] -> [eV]                                             2.72113838565563E+01
 [a.u.] -> [Hz]                                             6.57968392072181E+15
 [a.u.] -> [1/cm] (wave numbers)                            2.19474631370540E+05
 [a.u./Bohr**2] -> [1/cm]                                   5.14048714338585E+03
 

 CELL_TOP| Volume [angstrom^3]:                                     17614.982639
 CELL_TOP| Vector a [angstrom    16.869     0.000     0.000   |a| =    16.869000
 CELL_TOP| Vector b [angstrom    -8.434    14.609     0.000   |b| =    16.869015
 CELL_TOP| Vector c [angstrom     0.000     0.000    71.478   |c| =    71.478000
 CELL_TOP| Angle (b,c), alpha [degree]:                                90.000000
 CELL_TOP| Angle (a,c), beta  [degree]:                                90.000000
 CELL_TOP| Angle (a,b), gamma [degree]:                               119.999970
 CELL_TOP| Numerically orthorhombic:                                          NO
 
 GENERATE|  Preliminary Number of Bonds generated:                             0
 GENERATE|  Achieved consistency in connectivity generation.

 CELL| Volume [angstrom^3]:                                         17614.982639
 CELL| Vector a [angstrom]:      16.869     0.000     0.000   |a| =    16.869000
 CELL| Vector b [angstrom]:      -8.434    14.609     0.000   |b| =    16.869015
 CELL| Vector c [angstrom]:       0.000     0.000    71.478   |c| =    71.478000
 CELL| Angle (b,c), alpha [degree]:                                    90.000000
 CELL| Angle (a,c), beta  [degree]:                                    90.000000
 CELL| Angle (a,b), gamma [degree]:                                   119.999970
 CELL| Numerically orthorhombic:                                              NO

 CELL_REF| Volume [angstrom^3]:                                     17614.982639
 CELL_REF| Vector a [angstrom    16.869     0.000     0.000   |a| =    16.869000
 CELL_REF| Vector b [angstrom    -8.434    14.609     0.000   |b| =    16.869015
 CELL_REF| Vector c [angstrom     0.000     0.000    71.478   |c| =    71.478000
 CELL_REF| Angle (b,c), alpha [degree]:                                90.000000
 CELL_REF| Angle (a,c), beta  [degree]:                                90.000000
 CELL_REF| Angle (a,b), gamma [degree]:                               119.999970
 CELL_REF| Numerically orthorhombic:                                          NO

 *******************************************************************************
 *******************************************************************************
 **                                                                           **
 **     #####                         ##              ##                      **
 **    ##   ##            ##          ##              ##                      **
 **   ##     ##                       ##            ######                    **
 **   ##     ##  ##   ##  ##   #####  ##  ##   ####   ##    #####    #####    **
 **   ##     ##  ##   ##  ##  ##      ## ##   ##      ##   ##   ##  ##   ##   **
 **   ##  ## ##  ##   ##  ##  ##      ####     ###    ##   ######   ######    **
 **    ##  ###   ##   ##  ##  ##      ## ##      ##   ##   ##       ##        **
 **     #######   #####   ##   #####  ##  ##  ####    ##    #####   ##        **
 **           ##                                                    ##        **
 **                                                                           **
 **                                                ... make the atoms dance   **
 **                                                                           **
 **            Copyright (C) by CP2K developers group (2000-2022)             **
 **                      J. Chem. Phys. 152, 194103 (2020)                    **
 **                                                                           **
 *******************************************************************************

 DFT| Spin restricted Kohn-Sham (RKS) calculation                            RKS
 DFT| Multiplicity                                                             1
 DFT| Number of spin states                                                    1
 DFT| Charge                                                                   0
 DFT| Self-interaction correction (SIC)                                       NO
 DFT| Cutoffs: density                                              1.000000E-10
 DFT|          gradient                                             1.000000E-10
 DFT|          tau                                                  1.000000E-10
 DFT|          cutoff_smoothing_range                               0.000000E+00
 DFT| XC density smoothing                                                  NONE
 DFT| XC derivatives                                                          PW

 FUNCTIONAL| PBE:
 FUNCTIONAL| J.P.Perdew, K.Burke, M.Ernzerhof, Phys. Rev. Letter, vol. 77, n 18,
 FUNCTIONAL|  pp. 3865-3868, (1996){spin unpolarized}                           

 vdW POTENTIAL|                                                   Pair Potential
 vdW POTENTIAL|          DFT-D3 (Version 3.1)
 vdW POTENTIAL|          Potential Form: S. Grimme et al, JCP 132: 154104 (2010)
 vdW POTENTIAL|          Zero Damping
 vdW POTENTIAL|          Cutoff Radius [Bohr]:                             20.00
 vdW POTENTIAL|          s6 Scaling Factor:                               1.0000
 vdW POTENTIAL|          sr6 Scaling Factor:                              1.2170
 vdW POTENTIAL|          s8 Scaling Factor:                               0.7220
 vdW POTENTIAL|          Cutoff for CN calculation:                   0.1000E-05

 QS| Method:                                                                 GPW
 QS| Density plane wave grid type                        NON-SPHERICAL FULLSPACE
 QS| Number of grid levels:                                                    4
 QS| Density cutoff [a.u.]:                                                200.0
 QS| Multi grid cutoff [a.u.]: 1) grid level                               200.0
 QS|                           2) grid level                                66.7
 QS|                           3) grid level                                22.2
 QS|                           4) grid level                                 7.4
 QS| Grid level progression factor:                                          3.0
 QS| Relative density cutoff [a.u.]:                                        20.0
 QS| Interaction thresholds: eps_pgf_orb:                                3.2E-07
 QS|                         eps_filter_matrix:                          0.0E+00
 QS|                         eps_core_charge:                            1.0E-15
 QS|                         eps_rho_gspace:                             1.0E-13
 QS|                         eps_rho_rspace:                             1.0E-13
 QS|                         eps_gvg_rspace:                             3.2E-07
 QS|                         eps_ppl:                                    1.0E-02
 QS|                         eps_ppnl:                                   3.2E-09


 ATOMIC KIND INFORMATION

  1. Atomic kind: O                                     Number of atoms:      99

     Orbital Basis Set                                        DZVP-MOLOPT-SR-GTH

       Number of orbital shell sets:                                           1
       Number of orbital shells:                                               5
       Number of primitive Cartesian functions:                                5
       Number of Cartesian basis functions:                                   14
       Number of spherical basis functions:                                   13
       Norm type:                                                              2

       Normalised Cartesian orbitals:

                        Set   Shell   Orbital            Exponent    Coefficient

                          1       1    2s               10.389228       0.396646
                                                         3.849621       0.208811
                                                         1.388401      -0.301641
                                                         0.496955      -0.274061
                                                         0.162492      -0.033677

                          1       2    3s               10.389228       0.303673
                                                         3.849621       0.240943
                                                         1.388401      -0.313066
                                                         0.496955      -0.043055
                                                         0.162492       0.213991

                          1       3    3px              10.389228      -1.530415
                                                         3.849621      -1.371928
                                                         1.388401      -0.761951
                                                         0.496955      -0.253695
                                                         0.162492      -0.035541
                          1       3    3py              10.389228      -1.530415
                                                         3.849621      -1.371928
                                                         1.388401      -0.761951
                                                         0.496955      -0.253695
                                                         0.162492      -0.035541
                          1       3    3pz              10.389228      -1.530415
                                                         3.849621      -1.371928
                                                         1.388401      -0.761951
                                                         0.496955      -0.253695
                                                         0.162492      -0.035541

                          1       4    4px              10.389228      -0.565392
                                                         3.849621      -0.038231
                                                         1.388401      -0.382373
                                                         0.496955       0.179070
                                                         0.162492       0.122714
                          1       4    4py              10.389228      -0.565392
                                                         3.849621      -0.038231
                                                         1.388401      -0.382373
                                                         0.496955       0.179070
                                                         0.162492       0.122714
                          1       4    4pz              10.389228      -0.565392
                                                         3.849621      -0.038231
                                                         1.388401      -0.382373
                                                         0.496955       0.179070
                                                         0.162492       0.122714

                          1       5    4dx2             10.389228       1.867377
                                                         3.849621       0.670994
                                                         1.388401       1.353441
                                                         0.496955       0.273538
                                                         0.162492       0.006620
                          1       5    4dxy             10.389228       3.234392
                                                         3.849621       1.162195
                                                         1.388401       2.344229
                                                         0.496955       0.473781
                                                         0.162492       0.011466
                          1       5    4dxz             10.389228       3.234392
                                                         3.849621       1.162195
                                                         1.388401       2.344229
                                                         0.496955       0.473781
                                                         0.162492       0.011466
                          1       5    4dy2             10.389228       1.867377
                                                         3.849621       0.670994
                                                         1.388401       1.353441
                                                         0.496955       0.273538
                                                         0.162492       0.006620
                          1       5    4dyz             10.389228       3.234392
                                                         3.849621       1.162195
                                                         1.388401       2.344229
                                                         0.496955       0.473781
                                                         0.162492       0.011466
                          1       5    4dz2             10.389228       1.867377
                                                         3.849621       0.670994
                                                         1.388401       1.353441
                                                         0.496955       0.273538
                                                         0.162492       0.006620

       Atomic covalent radius [Angstrom]:                                  0.730

       Atomic van der Waals radius [Angstrom]:                             1.520

     GTH Potential information for                                    GTH-PBE-q6

       Description:                       Goedecker-Teter-Hutter pseudopotential
                                           Goedecker et al., PRB 54, 1703 (1996)
                                          Hartwigsen et al., PRB 58, 3641 (1998)
                                                      Krack, TCA 114, 145 (2005)

       Gaussian exponent of the core charge distribution:               8.360253
       Electronic configuration (s p d ...):                               2   4

       Parameters of the local part of the GTH pseudopotential:

                          rloc        C1          C2          C3          C4
                        0.244554  -16.667215    2.487311

       Parameters of the non-local part of the GTH pseudopotential:

                   l      r(l)      h(i,j,l)

                   0    0.220956   18.337458
                   1    0.211332

  2. Atomic kind: H                                     Number of atoms:     198

     Orbital Basis Set                                        DZVP-MOLOPT-SR-GTH

       Number of orbital shell sets:                                           1
       Number of orbital shells:                                               3
       Number of primitive Cartesian functions:                                5
       Number of Cartesian basis functions:                                    5
       Number of spherical basis functions:                                    5
       Norm type:                                                              2

       Normalised Cartesian orbitals:

                        Set   Shell   Orbital            Exponent    Coefficient

                          1       1    2s               10.068468      -0.133023
                                                         2.680223      -0.177618
                                                         0.791502      -0.258419
                                                         0.239116      -0.107525
                                                         0.082193      -0.014019

                          1       2    3s               10.068468       0.344673
                                                         2.680223       1.819821
                                                         0.791502      -0.999069
                                                         0.239116       0.017430
                                                         0.082193       0.082660

                          1       3    3px              10.068468       0.155326
                                                         2.680223       0.367157
                                                         0.791502       0.311480
                                                         0.239116       0.080105
                                                         0.082193       0.033440
                          1       3    3py              10.068468       0.155326
                                                         2.680223       0.367157
                                                         0.791502       0.311480
                                                         0.239116       0.080105
                                                         0.082193       0.033440
                          1       3    3pz              10.068468       0.155326
                                                         2.680223       0.367157
                                                         0.791502       0.311480
                                                         0.239116       0.080105
                                                         0.082193       0.033440

       Atomic covalent radius [Angstrom]:                                  0.320

       Atomic van der Waals radius [Angstrom]:                             1.090

     GTH Potential information for                                    GTH-PBE-q1

       Description:                       Goedecker-Teter-Hutter pseudopotential
                                           Goedecker et al., PRB 54, 1703 (1996)
                                          Hartwigsen et al., PRB 58, 3641 (1998)
                                                      Krack, TCA 114, 145 (2005)

       Gaussian exponent of the core charge distribution:              12.500000
       Electronic configuration (s p d ...):                                   1

       Parameters of the local part of the GTH pseudopotential:

                          rloc        C1          C2          C3          C4
                        0.200000   -4.178900    0.724463

  3. Atomic kind: Pt                                    Number of atoms:     216

     Orbital Basis Set                      DZVP-A5-Q10-323-MOL-T1-DERIVED_SET-1

       Number of orbital shell sets:                                           1
       Number of orbital shells:                                               6
       Number of primitive Cartesian functions:                                5
       Number of Cartesian basis functions:                                   23
       Number of spherical basis functions:                                   20
       Norm type:                                                              2

       Normalised Cartesian orbitals:

                        Set   Shell   Orbital            Exponent    Coefficient

                          1       1    2s                2.521825       0.177473
                                                         1.453920      -0.063399
                                                         0.614053      -0.407089
                                                         0.232656       0.262254
                                                         0.074788       0.047371

                          1       2    3s                2.521825      -0.049056
                                                         1.453920       0.044904
                                                         0.614053      -0.009756
                                                         0.232656      -0.144709
                                                         0.074788       0.144085

                          1       3    3px               2.521825      -0.317572
                                                         1.453920       0.534826
                                                         0.614053      -0.489458
                                                         0.232656       0.245631
                                                         0.074788       0.018221
                          1       3    3py               2.521825      -0.317572
                                                         1.453920       0.534826
                                                         0.614053      -0.489458
                                                         0.232656       0.245631
                                                         0.074788       0.018221
                          1       3    3pz               2.521825      -0.317572
                                                         1.453920       0.534826
                                                         0.614053      -0.489458
                                                         0.232656       0.245631
                                                         0.074788       0.018221

                          1       4    4dx2              2.521825       3.008522
                                                         1.453920      -1.224251
                                                         0.614053       0.225691
                                                         0.232656       0.125144
                                                         0.074788      -0.015348
                          1       4    4dxy              2.521825       5.210912
                                                         1.453920      -2.120465
                                                         0.614053       0.390909
                                                         0.232656       0.216756
                                                         0.074788      -0.026584
                          1       4    4dxz              2.521825       5.210912
                                                         1.453920      -2.120465
                                                         0.614053       0.390909
                                                         0.232656       0.216756
                                                         0.074788      -0.026584
                          1       4    4dy2              2.521825       3.008522
                                                         1.453920      -1.224251
                                                         0.614053       0.225691
                                                         0.232656       0.125144
                                                         0.074788      -0.015348
                          1       4    4dyz              2.521825       5.210912
                                                         1.453920      -2.120465
                                                         0.614053       0.390909
                                                         0.232656       0.216756
                                                         0.074788      -0.026584
                          1       4    4dz2              2.521825       3.008522
                                                         1.453920      -1.224251
                                                         0.614053       0.225691
                                                         0.232656       0.125144
                                                         0.074788      -0.015348

                          1       5    5dx2              2.521825       0.698026
                                                         1.453920      -1.511486
                                                         0.614053      -0.335394
                                                         0.232656      -0.025564
                                                         0.074788      -0.002699
                          1       5    5dxy              2.521825       1.209017
                                                         1.453920      -2.617970
                                                         0.614053      -0.580920
                                                         0.232656      -0.044277
                                                         0.074788      -0.004674
                          1       5    5dxz              2.521825       1.209017
                                                         1.453920      -2.617970
                                                         0.614053      -0.580920
                                                         0.232656      -0.044277
                                                         0.074788      -0.004674
                          1       5    5dy2              2.521825       0.698026
                                                         1.453920      -1.511486
                                                         0.614053      -0.335394
                                                         0.232656      -0.025564
                                                         0.074788      -0.002699
                          1       5    5dyz              2.521825       1.209017
                                                         1.453920      -2.617970
                                                         0.614053      -0.580920
                                                         0.232656      -0.044277
                                                         0.074788      -0.004674
                          1       5    5dz2              2.521825       0.698026
                                                         1.453920      -1.511486
                                                         0.614053      -0.335394
                                                         0.232656      -0.025564
                                                         0.074788      -0.002699

                          1       6    6dx2              2.521825       0.831079
                                                         1.453920      -0.709226
                                                         0.614053      -0.137351
                                                         0.232656       0.068642
                                                         0.074788       0.011745
                          1       6    6dxy              2.521825       1.439472
                                                         1.453920      -1.228415
                                                         0.614053      -0.237899
                                                         0.232656       0.118891
                                                         0.074788       0.020343
                          1       6    6dxz              2.521825       1.439472
                                                         1.453920      -1.228415
                                                         0.614053      -0.237899
                                                         0.232656       0.118891
                                                         0.074788       0.020343
                          1       6    6dy2              2.521825       0.831079
                                                         1.453920      -0.709226
                                                         0.614053      -0.137351
                                                         0.232656       0.068642
                                                         0.074788       0.011745
                          1       6    6dyz              2.521825       1.439472
                                                         1.453920      -1.228415
                                                         0.614053      -0.237899
                                                         0.232656       0.118891
                                                         0.074788       0.020343
                          1       6    6dz2              2.521825       0.831079
                                                         1.453920      -0.709226
                                                         0.614053      -0.137351
                                                         0.232656       0.068642
                                                         0.074788       0.011745

       Atomic covalent radius [Angstrom]:                                  1.300

       Atomic van der Waals radius [Angstrom]:                             1.750

     GTH Potential information for                                   GTH-PBE-q10

       Description:                       Goedecker-Teter-Hutter pseudopotential
                                           Goedecker et al., PRB 54, 1703 (1996)
                                          Hartwigsen et al., PRB 58, 3641 (1998)
                                                      Krack, TCA 114, 145 (2005)

       Gaussian exponent of the core charge distribution:               1.317676
       Electronic configuration (s p d ...):                           1   0   9

       Parameters of the local part of the GTH pseudopotential:

                          rloc        C1          C2          C3          C4
                        0.616000   11.313635

       Parameters of the non-local part of the GTH pseudopotential:

                   l      r(l)      h(i,j,l)

                   0    0.550904    4.733491   -1.784594
                                   -1.784594    2.303901
                   1    0.674138    2.534798   -1.778066
                                   -1.778066    2.103836
                   2    0.457392   -7.264011    2.558665
                                    2.558665   -2.901253


 MOLECULE KIND INFORMATION


 All atoms are their own molecule, skipping detailed information


 TOTAL NUMBERS AND MAXIMUM NUMBERS

  Total number of            - Atomic kinds:                                   3
                             - Atoms:                                        513
                             - Shell sets:                                   513
                             - Shells:                                      2385
                             - Primitive Cartesian functions:               2565
                             - Cartesian basis functions:                   7344
                             - Spherical basis functions:                   6597

  Maximum angular momentum of- Orbital basis functions:                        2
                             - Local part of the GTH pseudopotential:          2
                             - Non-local part of the GTH pseudopotential:      4


 MODULE QUICKSTEP:  ATOMIC COORDINATES IN angstrom

 Atom  Kind  Element       X           Y           Z          Z(eff)       Mass
    1   1 O    8     -32.280003  -23.730001   37.008000       6.0000     15.9994
    2   2 H    1     -31.580002  -24.380001   36.618000       1.0000      1.0079
    3   2 H    1     -32.880001  -24.390001   37.338000       1.0000      1.0079
    4   1 O    8      10.559999    5.350000   39.508000       6.0000     15.9994
    5   2 H    1      10.820000    4.770000   40.237999       1.0000      1.0079
    6   2 H    1       9.830000    4.920000   39.018000       1.0000      1.0079
    7   1 O    8     -10.180000  -19.740002   33.428000       6.0000     15.9994
    8   2 H    1      -9.840000  -18.860001   33.037999       1.0000      1.0079
    9   2 H    1      -9.350000  -20.310001   33.537999       1.0000      1.0079
   10   1 O    8       0.480000  -10.900001   37.637999       6.0000     15.9994
   11   2 H    1      -0.040000  -10.630001   36.797999       1.0000      1.0079
   12   2 H    1       1.410000  -11.110001   37.307999       1.0000      1.0079
   13   1 O    8      -0.010000   15.670000   33.637999       6.0000     15.9994
   14   2 H    1      -0.010000   16.100002   32.807999       1.0000      1.0079
   15   2 H    1      -0.670000   16.010000   34.208000       1.0000      1.0079
   16   1 O    8      -6.860001   11.470001   35.727999       6.0000     15.9994
   17   2 H    1      -6.040000   11.010000   35.417998       1.0000      1.0079
   18   2 H    1      -6.560000   11.770000   36.577999       1.0000      1.0079
   19   1 O    8      -3.860000  -11.640000   38.577998       6.0000     15.9994
   20   2 H    1      -4.010000  -11.380000   37.628001       1.0000      1.0079
   21   2 H    1      -4.210001  -12.530001   38.797999       1.0000      1.0079
   22   1 O    8     -13.840000   33.410000   30.077999       6.0000     15.9994
   23   2 H    1     -13.020000   32.840000   30.037999       1.0000      1.0079
   24   2 H    1       2.580000   33.420002   29.177998       1.0000      1.0079
   25   1 O    8     -13.350000   19.940001   36.287999       6.0000     15.9994
   26   2 H    1     -12.440001   19.830000   36.678000       1.0000      1.0079
   27   2 H    1     -13.170000   19.920002   35.287999       1.0000      1.0079
   28   1 O    8     -20.240002   -1.750000   36.077998       6.0000     15.9994
   29   2 H    1     -20.600002   -1.680000   37.047999       1.0000      1.0079
   30   2 H    1     -20.360001   -2.680000   35.928000       1.0000      1.0079
   31   1 O    8      -9.640000    6.030001   30.508000       6.0000     15.9994
   32   2 H    1     -10.580001    6.050000   30.257996       1.0000      1.0079
   33   2 H    1      -9.270000    5.790000   29.647999       1.0000      1.0079
   34   1 O    8      12.020000   -8.450001   39.267998       6.0000     15.9994
   35   2 H    1      -5.440001   -8.640000   38.548001       1.0000      1.0079
   36   2 H    1      12.000000   -9.240000   39.928000       1.0000      1.0079
   37   1 O    8      17.510000   23.220001   36.487999       6.0000     15.9994
   38   2 H    1      18.380001   22.920000   36.927998       1.0000      1.0079
   39   2 H    1      17.810001   24.150002   36.247999       1.0000      1.0079
   40   1 O    8     -19.850002    8.590000   36.277998       6.0000     15.9994
   41   2 H    1     -19.420002    7.880001   35.688000       1.0000      1.0079
   42   2 H    1     -19.200001    9.390000   36.367998       1.0000      1.0079
   43   1 O    8     -23.910000   15.130001   32.147999       6.0000     15.9994
   44   2 H    1     -23.990002   14.490002   32.928000       1.0000      1.0079
   45   2 H    1     -23.150002   14.950001   31.557999       1.0000      1.0079
   46   1 O    8     -25.120001    7.790000   33.978001       6.0000     15.9994
   47   2 H    1     -32.650002   22.710001   33.637999       1.0000      1.0079
   48   2 H    1     -25.090000    8.150001   34.927998       1.0000      1.0079
   49   1 O    8      -5.230000    2.350000   30.037999       6.0000     15.9994
   50   2 H    1      -5.460000    2.510000   29.098000       1.0000      1.0079
   51   2 H    1      -5.660000    2.890000   30.727999       1.0000      1.0079
   52   1 O    8     -22.030001   11.440001   38.197998       6.0000     15.9994
   53   2 H    1     -21.020000   11.660000   38.188000       1.0000      1.0079
   54   2 H    1     -22.060001   10.870000   38.997998       1.0000      1.0079
   55   1 O    8      -2.300000    6.980000   34.267998       6.0000     15.9994
   56   2 H    1      -1.960000    7.520000   33.458000       1.0000      1.0079
   57   2 H    1      -1.470000    6.390000   34.638001       1.0000      1.0079
   58   1 O    8     -34.850002   17.190001   31.407997       6.0000     15.9994
   59   2 H    1     -35.210003   16.460001   30.977997       1.0000      1.0079
   60   2 H    1     -35.560001   17.830002   31.727999       1.0000      1.0079
   61   1 O    8     -18.970001  -14.890001   38.307999       6.0000     15.9994
   62   2 H    1     -18.120001  -14.370001   38.327999       1.0000      1.0079
   63   2 H    1     -19.370001  -14.490002   37.477999       1.0000      1.0079
   64   1 O    8      38.260002  -14.880000   33.637999       6.0000     15.9994
   65   2 H    1      39.060001  -15.200001   33.077999       1.0000      1.0079
   66   2 H    1      38.380005  -15.390000   34.527998       1.0000      1.0079
   67   1 O    8     -40.510002   -3.030000   37.117998       6.0000     15.9994
   68   2 H    1     -24.470001   -3.520000   37.338000       1.0000      1.0079
   69   2 H    1     -24.040001   -2.220000   36.778000       1.0000      1.0079
   70   1 O    8      -8.970000   18.810001   32.877999       6.0000     15.9994
   71   2 H    1      -9.540001   18.000000   32.787999       1.0000      1.0079
   72   2 H    1      -8.040000   18.550001   32.637999       1.0000      1.0079
   73   1 O    8      21.230001    2.720000   33.518000       6.0000     15.9994
   74   2 H    1      20.650002    2.990000   32.798001       1.0000      1.0079
   75   2 H    1      21.230001    1.750000   33.697998       1.0000      1.0079
   76   1 O    8       5.930000   -2.840000   38.267998       6.0000     15.9994
   77   2 H    1       6.490001   -3.290000   37.617998       1.0000      1.0079
   78   2 H    1       6.070001   -1.850000   38.258000       1.0000      1.0079
   79   1 O    8     -19.380001   34.580002   37.387999       6.0000     15.9994
   80   2 H    1     -19.460001   34.850002   38.367998       1.0000      1.0079
   81   2 H    1     -18.730001   33.800003   37.427998       1.0000      1.0079
   82   1 O    8       6.460000   13.400001   32.197998       6.0000     15.9994
   83   2 H    1       7.280001   12.990000   32.617998       1.0000      1.0079
   84   2 H    1       6.230001   12.720001   31.518000       1.0000      1.0079
   85   1 O    8     -15.500001   20.550001   29.197998       6.0000     15.9994
   86   2 H    1     -15.680000   21.490002   29.168000       1.0000      1.0079
   87   2 H    1     -14.780001   20.520000   29.918000       1.0000      1.0079
   88   1 O    8      -4.540000  -10.570001   35.928000       6.0000     15.9994
   89   2 H    1      -4.320000  -11.050000   35.098000       1.0000      1.0079
   90   2 H    1      -3.990000   -9.750000   35.928000       1.0000      1.0079
   91   1 O    8       2.890000   10.890001   34.817999       6.0000     15.9994
   92   2 H    1       3.740000   10.400001   34.897997       1.0000      1.0079
   93   2 H    1       2.370000   10.810001   35.617998       1.0000      1.0079
   94   1 O    8      -9.180000   13.620001   35.977997       6.0000     15.9994
   95   2 H    1     -10.130000   13.360001   35.997999       1.0000      1.0079
   96   2 H    1      -8.750001   12.890000   36.537999       1.0000      1.0079
   97   1 O    8       3.270000    0.530000   30.097996       6.0000     15.9994
   98   2 H    1       3.170000    0.580000   29.118000       1.0000      1.0079
   99   2 H    1       3.730000   -0.350000   30.418000       1.0000      1.0079
  100   1 O    8       0.040000   -3.100000   32.707999       6.0000     15.9994
  101   2 H    1      -7.950000   11.760000   31.887999       1.0000      1.0079
  102   2 H    1       0.680000   -3.020000   33.458000       1.0000      1.0079
  103   1 O    8      14.720001   -3.180000   30.057999       6.0000     15.9994
  104   2 H    1      14.120001   -3.100000   29.248001       1.0000      1.0079
  105   2 H    1      14.830000   -4.150000   30.157997       1.0000      1.0079
  106   1 O    8      17.470001    2.950000   29.087998       6.0000     15.9994
  107   2 H    1      17.020000    3.780000   29.587998       1.0000      1.0079
  108   2 H    1      16.910002    2.200000   29.287999       1.0000      1.0079
  109   1 O    8      -4.140000  -14.430000   35.087998       6.0000     15.9994
  110   2 H    1      -5.130000  -14.480001   35.107998       1.0000      1.0079
  111   2 H    1      -3.880000  -15.310000   34.807999       1.0000      1.0079
  112   1 O    8      26.610001    0.040000   29.967999       6.0000     15.9994
  113   2 H    1      27.050001    0.880000   30.157997       1.0000      1.0079
  114   2 H    1      25.640001    0.230000   29.787999       1.0000      1.0079
  115   1 O    8      -6.490001    3.670000   32.008000       6.0000     15.9994
  116   2 H    1      -7.230001    4.300000   32.287999       1.0000      1.0079
  117   2 H    1      -6.090000    3.260000   32.807999       1.0000      1.0079
  118   1 O    8       4.300000   19.760000   33.647997       6.0000     15.9994
  119   2 H    1       4.760000   18.930000   33.377999       1.0000      1.0079
  120   2 H    1       5.020000   20.470001   33.668000       1.0000      1.0079
  121   1 O    8      -8.320000   20.600002   34.797997       6.0000     15.9994
  122   2 H    1      -8.470000   19.910000   34.118000       1.0000      1.0079
  123   2 H    1      -7.730001   20.190001   35.517998       1.0000      1.0079
  124   1 O    8     -10.700001    7.290000   39.568001       6.0000     15.9994
  125   2 H    1     -11.690001    6.870000   39.568001       1.0000      1.0079
  126   2 H    1     -10.180000    6.410000   39.587998       1.0000      1.0079
  127   1 O    8     -21.550003   24.820002   38.447998       6.0000     15.9994
  128   2 H    1     -21.870001   24.560001   39.317999       1.0000      1.0079
  129   2 H    1     -22.070000   25.600002   38.117998       1.0000      1.0079
  130   1 O    8      -3.450000    1.700000   38.227999       6.0000     15.9994
  131   2 H    1      -4.150000    2.240000   37.737999       1.0000      1.0079
  132   2 H    1      -3.930000    0.850000   38.467999       1.0000      1.0079
  133   1 O    8       3.080000  -17.270000   32.338000       6.0000     15.9994
  134   2 H    1       3.670000  -16.560001   32.577999       1.0000      1.0079
  135   2 H    1       2.840000  -17.790001   33.177998       1.0000      1.0079
  136   1 O    8      -2.400000   26.310001   39.668000       6.0000     15.9994
  137   2 H    1      -3.130000   25.710001   39.447998       1.0000      1.0079
  138   2 H    1      -2.100000   26.049999   40.577999       1.0000      1.0079
  139   1 O    8     -34.210003   32.850002   37.687998       6.0000     15.9994
  140   2 H    1     -34.370003   32.080002   37.027998       1.0000      1.0079
  141   2 H    1     -34.040001   32.389999   38.537999       1.0000      1.0079
  142   1 O    8       3.070000   20.850000   31.137999       6.0000     15.9994
  143   2 H    1      11.460000    5.740000   31.918000       1.0000      1.0079
  144   2 H    1     -12.860001   20.730001   30.767998       1.0000      1.0079
  145   1 O    8      -3.390000  -12.000000   29.947998       6.0000     15.9994
  146   2 H    1      -3.020000  -12.340001   29.137997       1.0000      1.0079
  147   2 H    1      -4.070000  -12.740001   30.097996       1.0000      1.0079
  148   1 O    8       8.210000   -4.580000   29.957997       6.0000     15.9994
  149   2 H    1       9.130000   -4.300000   29.758000       1.0000      1.0079
  150   2 H    1       7.840000   -4.700000   29.048001       1.0000      1.0079
  151   1 O    8       2.890000   13.030001   29.057999       6.0000     15.9994
  152   2 H    1       2.160000   13.790001   29.418000       1.0000      1.0079
  153   2 H    1       3.750000   13.430000   29.258000       1.0000      1.0079
  154   1 O    8       8.640000    1.040000   39.067997       6.0000     15.9994
  155   2 H    1       8.370000    1.320000   40.008000       1.0000      1.0079
  156   2 H    1       8.630000    1.900000   38.567999       1.0000      1.0079
  157   1 O    8     -26.950001    4.630000   39.597998       6.0000     15.9994
  158   2 H    1     -26.320002    4.200000   38.978001       1.0000      1.0079
  159   2 H    1     -27.810001    4.100000   39.457999       1.0000      1.0079
  160   1 O    8       1.870000   -2.730000   30.707999       6.0000     15.9994
  161   2 H    1       1.260000   -2.210000   30.087998       1.0000      1.0079
  162   2 H    1       1.830000   -3.610000   30.298001       1.0000      1.0079
  163   1 O    8       1.600000   -0.560000   34.567997       6.0000     15.9994
  164   2 H    1       1.870000   -1.500000   34.778000       1.0000      1.0079
  165   2 H    1       0.750000   -0.640000   35.027998       1.0000      1.0079
  166   1 O    8      -8.080000   -2.210000   32.527998       6.0000     15.9994
  167   2 H    1      -7.090001   -2.180000   32.607998       1.0000      1.0079
  168   2 H    1      -8.420001   -1.430000   32.057999       1.0000      1.0079
  169   1 O    8       6.690001   30.700001   35.918000       6.0000     15.9994
  170   2 H    1      15.210000   17.050001   35.758000       1.0000      1.0079
  171   2 H    1       5.840001   30.450001   35.637999       1.0000      1.0079
  172   1 O    8       5.900001   17.080000   33.637999       6.0000     15.9994
  173   2 H    1       5.500000   16.180000   33.477997       1.0000      1.0079
  174   2 H    1       6.180000   16.910002   34.508000       1.0000      1.0079
  175   1 O    8      19.410002   45.870003   34.397999       6.0000     15.9994
  176   2 H    1      20.020000   45.130001   34.287999       1.0000      1.0079
  177   2 H    1      18.480000   45.570000   34.208000       1.0000      1.0079
  178   1 O    8      22.340002   35.440002   35.447998       6.0000     15.9994
  179   2 H    1      22.050001   36.080002   34.737999       1.0000      1.0079
  180   2 H    1      22.730000   36.100002   36.018000       1.0000      1.0079
  181   1 O    8      -7.010000    9.160001   30.138001       6.0000     15.9994
  182   2 H    1      -7.980001    9.060000   29.797997       1.0000      1.0079
  183   2 H    1       1.970000   -5.450000   29.278000       1.0000      1.0079
  184   1 O    8      -5.750000    8.460000   32.857998       6.0000     15.9994
  185   2 H    1      -6.160001    9.150001   32.247999       1.0000      1.0079
  186   2 H    1      -5.450000    7.780001   32.167998       1.0000      1.0079
  187   1 O    8     -16.049999    7.360001   30.797999       6.0000     15.9994
  188   2 H    1     -16.560001    8.190001   30.997999       1.0000      1.0079
  189   2 H    1     -15.330001    7.720000   30.287999       1.0000      1.0079
  190   1 O    8       7.900000   19.690001   30.197998       6.0000     15.9994
  191   2 H    1       8.450001   20.590000   30.327996       1.0000      1.0079
  192   2 H    1      16.150002    4.680000   31.118000       1.0000      1.0079
  193   1 O    8       5.300000   10.090000   35.547999       6.0000     15.9994
  194   2 H    1       5.900001    9.910001   34.787999       1.0000      1.0079
  195   2 H    1       5.690000    9.660000   36.337998       1.0000      1.0079
  196   1 O    8      16.120001   10.430001   36.647999       6.0000     15.9994
  197   2 H    1      16.390001    9.430000   36.737997       1.0000      1.0079
  198   2 H    1      16.049999   10.510000   35.647999       1.0000      1.0079
  199   1 O    8       2.460000   10.670000   30.117997       6.0000     15.9994
  200   2 H    1       2.860000   11.400002   29.647999       1.0000      1.0079
  201   2 H    1       2.750000   10.840001   31.028000       1.0000      1.0079
  202   1 O    8     -12.140001   -5.440001   30.177998       6.0000     15.9994
  203   2 H    1     -11.880001   -6.300001   29.827999       1.0000      1.0079
  204   2 H    1     -12.270001   -4.820000   29.458001       1.0000      1.0079
  205   1 O    8      -1.300000    1.520000   36.367998       6.0000     15.9994
  206   2 H    1      -2.160000    1.270000   36.838000       1.0000      1.0079
  207   2 H    1      -0.910000    0.680000   35.987999       1.0000      1.0079
  208   1 O    8       1.650000    3.200000   32.067997       6.0000     15.9994
  209   2 H    1       2.140000    3.600000   31.277998       1.0000      1.0079
  210   2 H    1       1.520000    2.170000   32.047999       1.0000      1.0079
  211   1 O    8      -6.490001   38.670002   39.768000       6.0000     15.9994
  212   2 H    1      -6.480000   37.900002   39.118000       1.0000      1.0079
  213   2 H    1      -6.800000   38.190002   40.557999       1.0000      1.0079
  214   1 O    8       2.360000    7.900000   33.987999       6.0000     15.9994
  215   2 H    1      -6.840000   21.860001   33.948000       1.0000      1.0079
  216   2 H    1       2.030000    8.780001   34.438000       1.0000      1.0079
  217   1 O    8       0.210000    8.100000   37.377999       6.0000     15.9994
  218   2 H    1      -8.420001   21.809999   37.047999       1.0000      1.0079
  219   2 H    1      -7.180000   22.880001   37.187998       1.0000      1.0079
  220   1 O    8      11.080000   23.040001   36.657999       6.0000     15.9994
  221   2 H    1      11.660000   22.220001   36.697998       1.0000      1.0079
  222   2 H    1      11.710000   23.690002   37.168000       1.0000      1.0079
  223   1 O    8     -29.420002   13.590001   38.647999       6.0000     15.9994
  224   2 H    1     -28.800001   13.110001   39.287999       1.0000      1.0079
  225   2 H    1     -30.380001   13.420000   38.807999       1.0000      1.0079
  226   1 O    8       8.230000   11.780001   38.127999       6.0000     15.9994
  227   2 H    1       7.420001   11.690001   38.747999       1.0000      1.0079
  228   2 H    1       8.920000   11.130000   38.407997       1.0000      1.0079
  229   1 O    8       7.130001    0.380000   29.797997       6.0000     15.9994
  230   2 H    1       6.950001    0.470000   28.818001       1.0000      1.0079
  231   2 H    1       6.890000   -0.600000   29.857998       1.0000      1.0079
  232   1 O    8     -13.920001    8.320000   29.137997       6.0000     15.9994
  233   2 H    1     -13.690001    9.330000   29.327999       1.0000      1.0079
  234   2 H    1     -13.310001    7.630000   29.607998       1.0000      1.0079
  235   1 O    8       6.560000  -20.910000   37.268000       6.0000     15.9994
  236   2 H    1       7.490000  -20.640001   37.357998       1.0000      1.0079
  237   2 H    1       6.270000  -21.130001   38.188000       1.0000      1.0079
  238   1 O    8       5.540000   -8.540000   29.957997       6.0000     15.9994
  239   2 H    1       6.370000   -9.100000   30.057999       1.0000      1.0079
  240   2 H    1       5.050000   -8.950001   29.188000       1.0000      1.0079
  241   1 O    8       0.050000   19.890001   33.098000       6.0000     15.9994
  242   2 H    1      -0.590000   20.060001   32.348000       1.0000      1.0079
  243   2 H    1       0.230000   20.810001   33.547997       1.0000      1.0079
  244   1 O    8      -9.870001   -3.670000   33.918000       6.0000     15.9994
  245   2 H    1      -9.180000   -3.020000   33.607998       1.0000      1.0079
  246   2 H    1     -10.750000   -3.200000   33.807999       1.0000      1.0079
  247   1 O    8      25.550001    3.370000   29.237999       6.0000     15.9994
  248   2 H    1      25.820000    4.290000   29.388001       1.0000      1.0079
  249   2 H    1      25.010002    3.040000   30.008000       1.0000      1.0079
  250   1 O    8      37.860001   -1.680000   31.307999       6.0000     15.9994
  251   2 H    1      37.070004   -2.130000   30.947998       1.0000      1.0079
  252   2 H    1      38.710003   -1.990000   30.827999       1.0000      1.0079
  253   1 O    8      -5.520000    7.870001   37.687998       6.0000     15.9994
  254   2 H    1      -4.790000    8.340000   37.157997       1.0000      1.0079
  255   2 H    1      -5.250000    6.910000   37.607998       1.0000      1.0079
  256   1 O    8      -4.840000    9.950001   34.967999       6.0000     15.9994
  257   2 H    1      -5.120000    9.310000   34.167998       1.0000      1.0079
  258   2 H    1      -4.150000    9.390000   35.407999       1.0000      1.0079
  259   1 O    8     -16.780001   13.950001   36.037999       6.0000     15.9994
  260   2 H    1     -16.560001   13.950001   35.077999       1.0000      1.0079
  261   2 H    1     -17.240002   14.800000   36.118000       1.0000      1.0079
  262   1 O    8       7.230001    4.040000   35.377999       6.0000     15.9994
  263   2 H    1      -0.740000   19.100000   34.567997       1.0000      1.0079
  264   2 H    1       6.630001    4.690000   35.758000       1.0000      1.0079
  265   1 O    8     -22.450001    3.050000   37.027998       6.0000     15.9994
  266   2 H    1     -22.510002    2.610000   36.107998       1.0000      1.0079
  267   2 H    1     -22.010002    3.890000   36.758000       1.0000      1.0079
  268   1 O    8      12.930001   -8.140000   30.357998       6.0000     15.9994
  269   2 H    1      12.910000   -7.880001   31.307999       1.0000      1.0079
  270   2 H    1      12.270001   -8.900001   30.317997       1.0000      1.0079
  271   1 O    8     -17.770000    0.740000   30.197998       6.0000     15.9994
  272   2 H    1     -17.610001    0.830000   31.188000       1.0000      1.0079
  273   2 H    1     -18.780001    0.590000   30.227997       1.0000      1.0079
  274   1 O    8      -8.560000   13.050001   29.267998       6.0000     15.9994
  275   2 H    1      -8.820001   13.890000   29.737999       1.0000      1.0079
  276   2 H    1      -9.290000   12.410001   29.388001       1.0000      1.0079
  277   1 O    8     -10.370001   26.850002   29.967999       6.0000     15.9994
  278   2 H    1      -9.580001   26.320002   30.017998       1.0000      1.0079
  279   2 H    1     -10.510000   26.600000   29.037999       1.0000      1.0079
  280   1 O    8      21.530001    7.480001   32.957997       6.0000     15.9994
  281   2 H    1      22.010002    8.300000   32.987997       1.0000      1.0079
  282   2 H    1      20.580002    7.520000   33.237999       1.0000      1.0079
  283   1 O    8       1.560000  -15.990001   39.527998       6.0000     15.9994
  284   2 H    1       1.280000  -15.110001   39.118000       1.0000      1.0079
  285   2 H    1       0.880000  -16.580002   39.227999       1.0000      1.0079
  286   1 O    8       4.660000   26.870001   33.688000       6.0000     15.9994
  287   2 H    1       4.150000   26.049999   33.907997       1.0000      1.0079
  288   2 H    1       4.370000   27.220001   32.838000       1.0000      1.0079
  289   1 O    8       6.890000   -5.930000   32.487999       6.0000     15.9994
  290   2 H    1     -10.480001   -5.910000   31.697998       1.0000      1.0079
  291   2 H    1       6.920000   -5.050000   32.917998       1.0000      1.0079
  292   1 O    8      -9.780001    8.710001   30.017998       6.0000     15.9994
  293   2 H    1     -10.020000    8.540000   29.077996       1.0000      1.0079
  294   2 H    1      -9.720000    7.800000   30.368000       1.0000      1.0079
  295   1 O    8      -3.530000    0.230000   29.827999       6.0000     15.9994
  296   2 H    1      -4.150000    1.020000   29.758000       1.0000      1.0079
  297   2 H    1      -3.060000    0.230000   28.967999       1.0000      1.0079
  298   3 Pt  78       1.880000    0.660000   26.857998      10.0000    195.0840
  299   3 Pt  78       4.600000    0.710000   26.818001      10.0000    195.0840
  300   3 Pt  78       7.360001    0.810000   26.748001      10.0000    195.0840
  301   3 Pt  78      10.150002    0.870000   26.877999      10.0000    195.0840
  302   3 Pt  78      13.010001    0.780000   26.877999      10.0000    195.0840
  303   3 Pt  78      15.760001    0.640000   26.818001      10.0000    195.0840
  304   3 Pt  78       3.140000    3.270000   26.807999      10.0000    195.0840
  305   3 Pt  78       5.890000    3.190000   26.818001      10.0000    195.0840
  306   3 Pt  78       8.730000    3.190000   26.737999      10.0000    195.0840
  307   3 Pt  78      11.640000    3.210000   26.867997      10.0000    195.0840
  308   3 Pt  78      14.510001    3.180000   26.787999      10.0000    195.0840
  309   3 Pt  78       0.360000    3.010000   26.867997      10.0000    195.0840
  310   3 Pt  78       4.500000    5.630000   26.857998      10.0000    195.0840
  311   3 Pt  78       7.400000    5.590000   26.897999      10.0000    195.0840
  312   3 Pt  78      10.180000    5.600000   26.848000      10.0000    195.0840
  313   3 Pt  78      13.020000    5.630000   26.857998      10.0000    195.0840
  314   3 Pt  78      -1.070000    5.650000   26.767998      10.0000    195.0840
  315   3 Pt  78       1.650000    5.670000   26.927998      10.0000    195.0840
  316   3 Pt  78       5.930000    8.020000   26.888001      10.0000    195.0840
  317   3 Pt  78       8.650001    8.030001   26.947998      10.0000    195.0840
  318   3 Pt  78      11.450001    7.990000   26.767998      10.0000    195.0840
  319   3 Pt  78      -2.440000    8.100000   26.818001      10.0000    195.0840
  320   3 Pt  78       0.330000    8.110001   26.877999      10.0000    195.0840
  321   3 Pt  78       3.030000    8.030001   26.958001      10.0000    195.0840
  322   3 Pt  78       7.280001   10.450001   26.897999      10.0000    195.0840
  323   3 Pt  78      10.150002   10.370001   26.927998      10.0000    195.0840
  324   3 Pt  78      -3.870000   10.220001   26.857998      10.0000    195.0840
  325   3 Pt  78      -1.120000   10.450001   26.927998      10.0000    195.0840
  326   3 Pt  78       1.710000   10.510000   26.688000      10.0000    195.0840
  327   3 Pt  78       4.540000   10.470000   26.857998      10.0000    195.0840
  328   3 Pt  78       8.760000   12.890000   27.007996      10.0000    195.0840
  329   3 Pt  78      -5.160000   12.710000   26.967999      10.0000    195.0840
  330   3 Pt  78      -2.430000   12.940001   26.837998      10.0000    195.0840
  331   3 Pt  78       0.310000   12.840000   26.987999      10.0000    195.0840
  332   3 Pt  78       3.100000   12.830001   27.007996      10.0000    195.0840
  333   3 Pt  78       5.850000   12.870001   26.857998      10.0000    195.0840
  334   3 Pt  78       0.350000    1.540000   24.517998      10.0000    195.0840
  335   3 Pt  78       3.140000    1.640000   24.548001      10.0000    195.0840
  336   3 Pt  78       5.950000    1.570000   24.467999      10.0000    195.0840
  337   3 Pt  78       8.760000    1.530000   24.357998      10.0000    195.0840
  338   3 Pt  78      11.580001    1.520000   24.497998      10.0000    195.0840
  339   3 Pt  78      14.370001    1.570000   24.507996      10.0000    195.0840
  340   3 Pt  78       1.690000    4.040000   24.587998      10.0000    195.0840
  341   3 Pt  78       4.490000    4.070000   24.447998      10.0000    195.0840
  342   3 Pt  78       7.370000    3.950000   24.418000      10.0000    195.0840
  343   3 Pt  78      10.130000    3.920000   24.507996      10.0000    195.0840
  344   3 Pt  78      12.930001    4.060000   24.528000      10.0000    195.0840
  345   3 Pt  78      -1.140000    3.980000   24.447998      10.0000    195.0840
  346   3 Pt  78       3.030000    6.470000   24.657997      10.0000    195.0840
  347   3 Pt  78       5.880000    6.460000   24.557999      10.0000    195.0840
  348   3 Pt  78       8.590000    6.380000   24.517998      10.0000    195.0840
  349   3 Pt  78      11.450001    6.370000   24.507996      10.0000    195.0840
  350   3 Pt  78      -2.520000    6.490001   24.447998      10.0000    195.0840
  351   3 Pt  78       0.270000    6.350000   24.437996      10.0000    195.0840
  352   3 Pt  78       4.470000    8.860001   24.487999      10.0000    195.0840
  353   3 Pt  78       7.190001    8.900001   24.548001      10.0000    195.0840
  354   3 Pt  78      10.070001    8.880001   24.567997      10.0000    195.0840
  355   3 Pt  78      -4.030000    8.850000   24.528000      10.0000    195.0840
  356   3 Pt  78      -1.020000    8.850000   24.437996      10.0000    195.0840
  357   3 Pt  78       1.630000    8.850000   24.517998      10.0000    195.0840
  358   3 Pt  78       5.970000   11.290001   24.478001      10.0000    195.0840
  359   3 Pt  78       8.750001   11.210001   24.618000      10.0000    195.0840
  360   3 Pt  78      -5.340000   11.420001   24.548001      10.0000    195.0840
  361   3 Pt  78      -2.590000   11.180000   24.507996      10.0000    195.0840
  362   3 Pt  78       0.210000   11.330000   24.507996      10.0000    195.0840
  363   3 Pt  78       2.980000   11.310000   24.487999      10.0000    195.0840
  364   3 Pt  78       7.360001   13.630000   24.557999      10.0000    195.0840
  365   3 Pt  78      -6.780000   13.630000   24.598000      10.0000    195.0840
  366   3 Pt  78      -3.920000   13.810000   24.557999      10.0000    195.0840
  367   3 Pt  78      -1.100000   13.630000   24.397999      10.0000    195.0840
  368   3 Pt  78       1.650000   13.730000   24.607998      10.0000    195.0840
  369   3 Pt  78       4.490000   13.710001   24.507996      10.0000    195.0840
  370   3 Pt  78      -8.240001   14.560001   22.278000      10.0000    195.0840
  371   3 Pt  78      -5.460000   14.520000   22.317997      10.0000    195.0840
  372   3 Pt  78      -2.580000   14.430000   22.227997      10.0000    195.0840
  373   3 Pt  78       0.130000   14.370001   22.157997      10.0000    195.0840
  374   3 Pt  78       2.970000   14.430000   22.187996      10.0000    195.0840
  375   3 Pt  78       5.800000   14.540001   22.068001      10.0000    195.0840
  376   3 Pt  78       1.620000    2.460000   22.247998      10.0000    195.0840
  377   3 Pt  78       4.420000    2.400000   22.187996      10.0000    195.0840
  378   3 Pt  78       7.240000    2.380000   22.138001      10.0000    195.0840
  379   3 Pt  78      10.010000    2.180000   22.138001      10.0000    195.0840
  380   3 Pt  78      12.890000    2.280000   22.127999      10.0000    195.0840
  381   3 Pt  78      -1.210000    2.370000   22.138001      10.0000    195.0840
  382   3 Pt  78       3.060000    4.830000   22.177998      10.0000    195.0840
  383   3 Pt  78       5.860000    4.860000   22.197998      10.0000    195.0840
  384   3 Pt  78       8.700001    4.820000   22.098000      10.0000    195.0840
  385   3 Pt  78      11.410000    4.750000   22.168000      10.0000    195.0840
  386   3 Pt  78      -2.620000    4.750000   22.217999      10.0000    195.0840
  387   3 Pt  78       0.170000    4.780000   22.227997      10.0000    195.0840
  388   3 Pt  78       4.360000    7.330000   22.217999      10.0000    195.0840
  389   3 Pt  78       7.200000    7.210000   22.197998      10.0000    195.0840
  390   3 Pt  78      10.010000    7.300000   22.168000      10.0000    195.0840
  391   3 Pt  78      -4.130000    7.230001   22.168000      10.0000    195.0840
  392   3 Pt  78      -1.120000    7.190001   22.098000      10.0000    195.0840
  393   3 Pt  78       1.630000    7.150001   22.208001      10.0000    195.0840
  394   3 Pt  78       5.820000    9.700001   22.168000      10.0000    195.0840
  395   3 Pt  78       8.630000    9.700001   22.317997      10.0000    195.0840
  396   3 Pt  78      -5.400000    9.650001   22.297997      10.0000    195.0840
  397   3 Pt  78      -2.610000    9.580001   22.307999      10.0000    195.0840
  398   3 Pt  78       0.340000    9.630001   22.127999      10.0000    195.0840
  399   3 Pt  78       3.050000    9.690001   22.107998      10.0000    195.0840
  400   3 Pt  78       7.210000   12.100000   22.117997      10.0000    195.0840
  401   3 Pt  78      -6.890000   12.140001   22.337998      10.0000    195.0840
  402   3 Pt  78      -4.010000   12.120000   22.237999      10.0000    195.0840
  403   3 Pt  78      -1.200000   12.020000   22.177998      10.0000    195.0840
  404   3 Pt  78       1.550000   12.080001   22.127999      10.0000    195.0840
  405   3 Pt  78       4.350000   12.100000   22.168000      10.0000    195.0840
  406   3 Pt  78       1.530000    0.750000   19.940000      10.0000    195.0840
  407   3 Pt  78       4.420000    0.590000   20.050000      10.0000    195.0840
  408   3 Pt  78       7.190001    0.650000   19.850000      10.0000    195.0840
  409   3 Pt  78       9.820001    0.610000   19.790000      10.0000    195.0840
  410   3 Pt  78      12.800001    0.660000   19.840000      10.0000    195.0840
  411   3 Pt  78      15.530001    0.710000   19.850000      10.0000    195.0840
  412   3 Pt  78       3.030000    3.140000   19.870000      10.0000    195.0840
  413   3 Pt  78       5.760000    3.160000   19.880000      10.0000    195.0840
  414   3 Pt  78       8.510000    3.190000   19.910000      10.0000    195.0840
  415   3 Pt  78      11.350001    3.050000   19.810000      10.0000    195.0840
  416   3 Pt  78      14.210001    3.080000   19.850000      10.0000    195.0840
  417   3 Pt  78       0.150000    3.120000   19.830000      10.0000    195.0840
  418   3 Pt  78       4.360000    5.610001   19.920000      10.0000    195.0840
  419   3 Pt  78       7.110000    5.700001   19.880000      10.0000    195.0840
  420   3 Pt  78       9.920000    5.660000   19.860000      10.0000    195.0840
  421   3 Pt  78      12.720001    5.500000   19.910000      10.0000    195.0840
  422   3 Pt  78      -1.240000    5.500000   19.940000      10.0000    195.0840
  423   3 Pt  78       1.540000    5.500000   19.920000      10.0000    195.0840
  424   3 Pt  78       5.790000    8.080000   19.860000      10.0000    195.0840
  425   3 Pt  78       8.610001    8.070001   19.800000      10.0000    195.0840
  426   3 Pt  78      11.430000    8.050001   19.860000      10.0000    195.0840
  427   3 Pt  78      -2.710000    7.890000   19.890000      10.0000    195.0840
  428   3 Pt  78       0.150000    7.870001   19.840000      10.0000    195.0840
  429   3 Pt  78       2.960000    8.060000   19.820000      10.0000    195.0840
  430   3 Pt  78       7.150001   10.500001   19.930000      10.0000    195.0840
  431   3 Pt  78       9.950001   10.420000   20.040000      10.0000    195.0840
  432   3 Pt  78      -4.000000   10.430001   19.980000      10.0000    195.0840
  433   3 Pt  78      -1.260000   10.310000   19.720000      10.0000    195.0840
  434   3 Pt  78       1.470000   10.430001   19.720000      10.0000    195.0840
  435   3 Pt  78       4.330000   10.430001   19.880000      10.0000    195.0840
  436   3 Pt  78       8.540000   12.940001   19.910000      10.0000    195.0840
  437   3 Pt  78      -5.560000   12.820001   20.080000      10.0000    195.0840
  438   3 Pt  78      -2.650000   12.800001   19.880000      10.0000    195.0840
  439   3 Pt  78       0.060000   12.780001   19.770000      10.0000    195.0840
  440   3 Pt  78       2.900000   12.850000   19.790000      10.0000    195.0840
  441   3 Pt  78       5.710001   12.940001   19.810000      10.0000    195.0840
  442   3 Pt  78       0.320000    1.450000   17.610000      10.0000    195.0840
  443   3 Pt  78       2.990000    1.380000   17.640000      10.0000    195.0840
  444   3 Pt  78       5.700001    1.460000   17.660000      10.0000    195.0840
  445   3 Pt  78       8.530001    1.530000   17.570000      10.0000    195.0840
  446   3 Pt  78      11.520000    1.510000   17.510000      10.0000    195.0840
  447   3 Pt  78      14.320001    1.470000   17.490000      10.0000    195.0840
  448   3 Pt  78       1.560000    3.920000   17.520000      10.0000    195.0840
  449   3 Pt  78       4.390000    3.920000   17.600000      10.0000    195.0840
  450   3 Pt  78       7.110000    4.020000   17.510000      10.0000    195.0840
  451   3 Pt  78       9.900001    3.960000   17.550000      10.0000    195.0840
  452   3 Pt  78      12.720001    3.920000   17.700000      10.0000    195.0840
  453   3 Pt  78      -1.250000    3.850000   17.590000      10.0000    195.0840
  454   3 Pt  78       2.950000    6.330000   17.600000      10.0000    195.0840
  455   3 Pt  78       5.640000    6.430000   17.600000      10.0000    195.0840
  456   3 Pt  78       8.530001    6.340000   17.540000      10.0000    195.0840
  457   3 Pt  78      11.390000    6.410000   17.530000      10.0000    195.0840
  458   3 Pt  78      -2.710000    6.290000   17.580000      10.0000    195.0840
  459   3 Pt  78       0.150000    6.290000   17.540000      10.0000    195.0840
  460   3 Pt  78       4.390000    8.880001   17.550000      10.0000    195.0840
  461   3 Pt  78       7.230001    8.730000   17.550000      10.0000    195.0840
  462   3 Pt  78      10.020000    8.750001   17.440000      10.0000    195.0840
  463   3 Pt  78      -4.060000    8.760000   17.420000      10.0000    195.0840
  464   3 Pt  78      -1.360000    8.770000   17.490000      10.0000    195.0840
  465   3 Pt  78       1.520000    8.830000   17.480000      10.0000    195.0840
  466   3 Pt  78       5.880000   11.060000   17.560000      10.0000    195.0840
  467   3 Pt  78       8.640000   11.090001   17.700000      10.0000    195.0840
  468   3 Pt  78      -5.470000   11.220001   17.720000      10.0000    195.0840
  469   3 Pt  78      -2.700000   11.240001   17.490000      10.0000    195.0840
  470   3 Pt  78       0.110000   11.270000   17.460000      10.0000    195.0840
  471   3 Pt  78       3.000000   11.230000   17.430000      10.0000    195.0840
  472   3 Pt  78       7.180000   13.600000   17.590000      10.0000    195.0840
  473   3 Pt  78      -6.920000   13.620001   17.650000      10.0000    195.0840
  474   3 Pt  78      -4.070000   13.610001   17.640000      10.0000    195.0840
  475   3 Pt  78      -1.240000   13.610001   17.500000      10.0000    195.0840
  476   3 Pt  78       1.520000   13.730000   17.420000      10.0000    195.0840
  477   3 Pt  78       4.460000   13.640001   17.450000      10.0000    195.0840
  478   3 Pt  78      -8.270000   14.440001   15.290000      10.0000    195.0840
  479   3 Pt  78      -5.440001   14.450001   15.370000      10.0000    195.0840
  480   3 Pt  78      -2.560000   14.410001   15.280000      10.0000    195.0840
  481   3 Pt  78       0.110000   14.590001   15.220000      10.0000    195.0840
  482   3 Pt  78       2.980000   14.460001   15.100000      10.0000    195.0840
  483   3 Pt  78       5.680000   14.380001   15.130000      10.0000    195.0840
  484   3 Pt  78       1.620000    2.200000   15.200000      10.0000    195.0840
  485   3 Pt  78       4.420000    2.200000   15.240000      10.0000    195.0840
  486   3 Pt  78       7.210000    2.360000   15.260000      10.0000    195.0840
  487   3 Pt  78       9.970000    2.320000   15.280000      10.0000    195.0840
  488   3 Pt  78      12.830001    2.290000   15.250000      10.0000    195.0840
  489   3 Pt  78      -1.180000    2.430000   15.240000      10.0000    195.0840
  490   3 Pt  78       2.980000    4.680000   15.180000      10.0000    195.0840
  491   3 Pt  78       5.880000    4.770000   15.150000      10.0000    195.0840
  492   3 Pt  78       8.600000    4.630000   15.080000      10.0000    195.0840
  493   3 Pt  78      11.440001    4.550000   15.260000      10.0000    195.0840
  494   3 Pt  78      -2.660000    4.840000   15.310000      10.0000    195.0840
  495   3 Pt  78       0.190000    4.760000   15.180000      10.0000    195.0840
  496   3 Pt  78       4.340000    7.070000   15.200000      10.0000    195.0840
  497   3 Pt  78       7.210000    7.100000   15.180000      10.0000    195.0840
  498   3 Pt  78       9.940001    6.980000   15.080000      10.0000    195.0840
  499   3 Pt  78      -4.190001    7.070000   15.150000      10.0000    195.0840
  500   3 Pt  78      -1.290000    7.310000   15.230000      10.0000    195.0840
  501   3 Pt  78       1.610000    7.020000   15.080000      10.0000    195.0840
  502   3 Pt  78       5.670000    9.630001   15.250000      10.0000    195.0840
  503   3 Pt  78       8.480000    9.610001   15.220000      10.0000    195.0840
  504   3 Pt  78      -5.550000    9.550000   15.000000      10.0000    195.0840
  505   3 Pt  78      -2.810000    9.430000   15.140000      10.0000    195.0840
[...]
 flops    13 x    13 x   120           5796510720       0.0%    100.0%      0.0%
 flops    13 x    32 x    13           5827801408       0.0%    100.0%      0.0%
 flops     5 x     5 x    96           6049689600       0.0%    100.0%      0.0%
 flops    13 x     5 x    96           7697264640       0.0%    100.0%      0.0%
 flops     5 x    13 x    96           7700459520       0.0%    100.0%      0.0%
 flops    20 x    13 x   120           8208844800       0.0%    100.0%      0.0%
 flops    13 x    20 x   120           8222822400       0.0%    100.0%      0.0%
 flops    13 x    32 x    20           8352764160       0.0%    100.0%      0.0%
 flops    20 x    32 x    13           8352764160       0.0%    100.0%      0.0%
 flops    20 x     5 x   120           8857344000       0.0%    100.0%      0.0%
 flops     5 x    20 x   120           8858112000       0.0%    100.0%      0.0%
 flops     5 x    32 x    20           9005356800       0.0%    100.0%      0.0%
 flops    20 x    32 x     5           9005356800       0.0%    100.0%      0.0%
 flops    13 x    13 x    96           9274417152       0.0%    100.0%      0.0%
 flops    20 x    13 x    96          13134151680       0.0%    100.0%      0.0%
 flops    13 x    20 x    96          13156515840       0.0%    100.0%      0.0%
 flops    20 x     5 x    96          14171750400       0.0%    100.0%      0.0%
 flops     5 x    20 x    96          14172979200       0.0%    100.0%      0.0%
 flops     5 x     5 x   128          52430643200       0.0%    100.0%      0.0%
 flops    13 x     5 x   128          66709626880       0.0%    100.0%      0.0%
 flops     5 x    13 x   128          66737315840       0.0%    100.0%      0.0%
 flops    20 x    20 x   120          71995392000       0.0%    100.0%      0.0%
 flops    20 x    32 x    20          72858009600       0.0%    100.0%      0.0%
 flops    13 x    13 x   128          80378281984       0.0%    100.0%      0.0%
 flops    20 x    13 x   128         113829314560       0.0%    100.0%      0.0%
 flops    13 x    20 x   128         114023137280       0.0%    100.0%      0.0%
 flops    20 x    20 x    96         115192627200       0.0%    100.0%      0.0%
 flops    20 x     5 x   128         122821836800       0.0%    100.0%      0.0%
 flops     5 x    20 x   128         122832486400       0.0%    100.0%      0.0%
 flops    20 x    20 x   128         998336102400       0.0%    100.0%      0.0%
 flops inhomo. stacks                           0       0.0%      0.0%      0.0%
 flops total                         2.192565E+12       0.0%    100.0%      0.0%
 flops max/rank                     19.742522E+09       0.0%    100.0%      0.0%
 matmuls inhomo. stacks                         0       0.0%      0.0%      0.0%
 matmuls total                           62403678       0.0%    100.0%      0.0%
 number of processed stacks                610219       0.0%    100.0%      0.0%
 average stack size                                     0.0     102.3       0.0
 marketing flops                     4.452052E+12
 -------------------------------------------------------------------------------
 # multiplications                             33
 max memory usage/rank               1.598083E+09
 # max total images/rank                        2
 # max 3D layers                                1
 # MPI messages exchanged                  122496
 MPI messages size (bytes):
  total size                        78.050918E+09
  min size                         272.640000E+03
  max size                           2.294728E+06
  average size                     637.171188E+03
 MPI breakdown and total messages size (bytes):
             size <=      128                   0                        0
       128 < size <=     8192                   0                        0
      8192 < size <=    32768                   0                        0
     32768 < size <=   131072                   0                        0
    131072 < size <=  4194304              122496              78050921976
   4194304 < size <= 16777216                   0                        0
  16777216 < size                               0                        0
 -------------------------------------------------------------------------------

 *** WARNING in dbcsr_mm.F:290 :: Using a non-square number of MPI ranks ***
 *** might lead to poor performance. Used ranks: 128 Suggested: 121 256  ***

 -------------------------------------------------------------------------------
 -                                                                             -
 -                      DBCSR MESSAGE PASSING PERFORMANCE                      -
 -                                                                             -
 -------------------------------------------------------------------------------
 ROUTINE             CALLS      AVE VOLUME [Bytes]
 MP_Bcast               46                     12.
 MP_Allreduce          334                     14.
 MP_Alltoall           917                 593754.
 MP_ISend             2112                 302933.
 MP_IRecv             2112                 296431.
 -------------------------------------------------------------------------------

 -------------------------------------------------------------------------------
 -                                                                             -
 -                                DBM STATISTICS                               -
 -                                                                             -
 -------------------------------------------------------------------------------
    M  x    N  x    K                                          COUNT     PERCENT
 -------------------------------------------------------------------------------

 -------------------------------------------------------------------------------
 -                                                                             -
 -                                GRID STATISTICS                              -
 -                                                                             -
 -------------------------------------------------------------------------------
 LP    KERNEL             BACKEND                              COUNT     PERCENT
 4     collocate general  REF                               12539438      22.22%
 4     integrate general  REF                               12414993      22.00%
 3     collocate general  REF                                8681643      15.38%
 3     integrate general  REF                                8623134      15.28%
 2     collocate general  REF                                6867864      12.17%
 2     integrate general  REF                                6646320      11.78%
 5     integrate general  REF                                 404498       0.72%
 0     collocate general  REF                                 131328       0.23%
 0     integrate general  REF                                  65664       0.12%
 1     integrate general  REF                                  65664       0.12%
 -------------------------------------------------------------------------------

 MEMORY| Estimated peak process memory [MiB]                                1777

 -------------------------------------------------------------------------------
 ----                             MULTIGRID INFO                            ----
 -------------------------------------------------------------------------------
 count for grid        1:        1095671          cutoff [a.u.]          200.00
 count for grid        2:        1090335          cutoff [a.u.]           66.67
 count for grid        3:         713635          cutoff [a.u.]           22.22
 count for grid        4:         551803          cutoff [a.u.]            7.41
 total gridlevel count  :        3451444

 -------------------------------------------------------------------------------
 -                                                                             -
 -                         MESSAGE PASSING PERFORMANCE                         -
 -                                                                             -
 -------------------------------------------------------------------------------

 ROUTINE             CALLS      AVE VOLUME [Bytes]
 MP_Group                4
 MP_Bcast             2181                 309222.
 MP_Allreduce         3220                  33508.
 MP_Sync                68
 MP_Alltoall          1882               17676758.
 MP_SendRecv           508                   5841.
 MP_ISendRecv        15748                  61740.
 MP_Wait             28030
 MP_comm_split          32
 MP_ISend            11580                 256518.
 MP_IRecv            11580                 256518.
 MP_Recv               122                1688832.
 MP_Write_All            3                1797408.
 -------------------------------------------------------------------------------


 -------------------------------------------------------------------------------
 -                                                                             -
 -                           R E F E R E N C E S                               -
 -                                                                             -
 -------------------------------------------------------------------------------
 
 CP2K version 2022.1, the CP2K developers group (2022).
 CP2K is freely available from https://www.cp2k.org/ .

 Kuehne,Thomas D.; Iannuzzi,Marcella; Del Ben,Mauro;
 Rybkin,Vladimir V.; Seewald,Patrick; Stein,Frederick; Laino,Teodoro;
 Khaliullin,Rustam Z.; Schuett,Ole; Schiffmann,Florian; Golze,Dorothea;
 Wilhelm,Jan; Chulkov,Sergey; Bani-Hashemian,Mohammad Hossein;
 Weber,Valery; Borstnik,Urban; Taillefumier,Mathieu;
 Jakobovits,Alice Shoshana; Lazzaro,Alfio; Pabst,Hans; Mueller,Tiziano;
 Schade,Robert; Guidon,Manuel; Andermatt,Samuel; Holmberg,Nico;
 Schenter,Gregory K.; Hehn,Anna; Bussy,Augustin; Belleflamme,Fabian;
 Tabacchi,Gloria; Gloess,Andreas; Lass,Michael; Bethune,Iain;
 Mundy,Christopher J.; Plessl,Christian; Watkins,Matt;
 VandeVondele,Joost; Krack,Matthias; Hutter,Juerg. 
 The Journal of Chemical Physics, 152 (19), (2020). 
 CP2K: An electronic structure and molecular dynamics software package -
 Quickstep: Efficient and accurate electronic structure calculations.
 https://doi.org/10.1063/5.0007045

 Goerigk, Lars; Hansen, Andreas; Bauer, Christoph; Ehrlich, Stephan;
 Najibi, Asim; Grimme, Stefan. , 19 (48), (2017). 
 A look at the density functional theory zoo with the advanced GMTKN55 database
 for general main group thermochemistry, kinetics and noncovalent interactions.
 https://doi.org/10.1039/C7CP04913G

 Bani-Hashemian, MH; Bruck, S; Luisier, M; VandeVondele, J. 
 JOURNAL OF CHEMICAL PHYSICS, 144 (4), 044113 (2016). 
 A generalized Poisson solver for first-principles device simulations.
 https://doi.org/10.1063/1.4940796

 Schuett, Ole; Messmer, Peter; Hutter, Juerg; VandeVondele, Joost. 
 Electronic Structure Calculations on Graphics Processing Units, John
 Wiley & Sons, Ltd, 173-190 (2016). 
 GPU-Accelerated Sparse Matrix-Matrix Multiplication for
 Linear Scaling Density Functional Theory.
 https://doi.org/10.1002/9781118670712.ch8

 Heinecke, A; Henry, G; Hutchinson, M; Pabst, H. 
 Proceedings of Intl. Supercomputing Conference, 981-991 (2016). 
 LIBXSMM: Accelerating Small Matrix Multiplications
 by Runtime Code Generation.
 https://doi.org/10.1109/SC.2016.83

 Borstnik, U; VandeVondele, J; Weber, V; Hutter, J. 
 PARALLEL COMPUTING, 40 (5-6), 47-58 (2014). 
 Sparse matrix multiplication: The distributed block-compressed sparse
 row library.
 https://doi.org/10.1016/j.parco.2014.03.012

 Hutter, J; Iannuzzi, M; Schiffmann, F; VandeVondele, J. 
 WIREs Comput Mol Sci., 4 (1), 15-25 (2014). 
 CP2K: atomistic simulations of condensed matter systems.
 https://doi.org/10.1002/wcms.1159

 Marek, A; Blum, V; Johanni, R; Havu, V; Lang, B; Auckenthaler, T;
 Heinecke, A; Bungartz, H; Lederer, H. 
 Journal of Physics: Condensed Matter, 26 (21), (2014). 
 The ELPA library: scalable parallel eigenvalue solutions for
 electronic structure
 theory and computational science.
 https://doi.org/10.1088/0953-8984/26/21/213201

 Grimme, S; Ehrlich, S; Goerigk, L. 
 JOURNAL OF COMPUTATIONAL CHEMISTRY, 32, 1456 (2011). 
 Effect of the damping function in dispersion corrected density functional theory.
 https://doi.org/10.1002/jcc.21759

 Grimme, S; Antony, J; Ehrlich, S; Krieg, H. 
 JOURNAL OF CHEMICAL PHYSICS, 132 (15), 154104 (2010). 
 A consistent and accurate ab initio parametrization of density
 functional dispersion correction (DFT-D) for the 94 elements H-Pu.
 https://doi.org/10.1063/1.3382344

 VandeVondele, J; Hutter, J. 
 JOURNAL OF CHEMICAL PHYSICS, 127 (11), 114105 (2007). 
 Gaussian basis sets for accurate calculations on molecular systems in
 gas and condensed phases.
 https://doi.org/10.1063/1.2770708

 Krack, M. 
 THEORETICAL CHEMISTRY ACCOUNTS, 114 (1-3), 145-152 (2005). 
 Pseudopotentials for H to Kr optimized for gradient-corrected
 exchange-correlation functionals.
 https://doi.org/10.1007/s00214-005-0655-y

 VandeVondele, J; Krack, M; Mohamed, F; Parrinello, M; Chassaing, T;
 Hutter, J. COMPUTER PHYSICS COMMUNICATIONS, 167 (2), 103-128 (2005). 
 QUICKSTEP: Fast and accurate density functional calculations using a
 mixed Gaussian and plane waves approach.
 https://doi.org/10.1016/j.cpc.2004.12.014

 Frigo, M; Johnson, SG. 
 PROCEEDINGS OF THE IEEE, 93 (2), 216-231 (2005). 
 The design and implementation of FFTW3.
 https://doi.org/10.1109/JPROC.2004.840301

 Hartwigsen, C; Goedecker, S; Hutter, J. 
 PHYSICAL REVIEW B, 58 (7), 3641-3662 (1998). 
 Relativistic separable dual-space Gaussian pseudopotentials from H to Rn.
 https://doi.org/10.1103/PhysRevB.58.3641

 Lippert, G; Hutter, J; Parrinello, M. 
 MOLECULAR PHYSICS, 92 (3), 477-487 (1997). 
 A hybrid Gaussian and plane wave density functional scheme.
 https://doi.org/10.1080/002689797170220

 Perdew, JP; Burke, K; Ernzerhof, M. 
 PHYSICAL REVIEW LETTERS, 77 (18), 3865-3868 (1996). 
 Generalized gradient approximation made simple.
 https://doi.org/10.1103/PhysRevLett.77.3865

 Goedecker, S; Teter, M; Hutter, J. 
 PHYSICAL REVIEW B, 54 (3), 1703-1710 (1996). 
 Separable dual-space Gaussian pseudopotentials.
 https://doi.org/10.1103/PhysRevB.54.1703


 -------------------------------------------------------------------------------
 -                                                                             -
 -                                T I M I N G                                  -
 -                                                                             -
 -------------------------------------------------------------------------------
 SUBROUTINE                       CALLS  ASD         SELF TIME        TOTAL TIME
                                MAXIMUM       AVERAGE  MAXIMUM  AVERAGE  MAXIMUM
 CP2K                                 1  1.0    0.033    0.046  220.437  220.438
 qs_forces                            1  2.0    0.002    0.005  220.029  220.031
 qs_energies                          1  3.0    0.000    0.001  213.895  213.906
 scf_env_do_scf                       1  4.0    0.000    0.000  204.731  204.875
 scf_env_do_scf_inner_loop           30  5.0    0.002    0.005  204.728  204.872
 rebuild_ks_matrix                   31  6.9    0.000    0.000  111.520  111.549
 qs_ks_build_kohn_sham_matrix        31  7.9    0.005    0.006  111.520  111.548
 qs_ks_update_qs_env                 30  6.0    0.000    0.000  107.509  107.537
 pw_transfer                       1616 12.2    0.117    0.146   70.610   71.903
 fft_wrap_pw1pw2                   1616 13.2    0.016    0.019   70.493   71.782
 fft_wrap_pw1pw2_200               1430 14.4    4.756    5.563   69.521   70.793
 pw_poisson_solve                    31  8.9    0.003    0.007   60.674   60.694
 qs_scf_new_mos                      30  6.0    0.001    0.005   58.958   59.061
 fft3d_ps                          1616 15.2   20.345   22.650   56.726   58.781
 implicit_poisson_solver_mixed_      31  9.9    1.282    1.559   57.369   57.414
 eigensolver                         30  7.0    0.002    0.003   55.596   55.767
 derive_fft                         186 12.1    0.012    0.015   40.249   40.361
 cp_fm_diag_elpa                     32  8.1    0.000    0.001   39.584   39.686
 cp_fm_redistribute_end              32  9.1    5.274   39.220    5.341   39.257
 cp_fm_diag_elpa_base                32  9.0   33.407   38.347   33.726   38.685
 mp_alltoall_z22v                  1616 17.2   30.423   37.421   30.423   37.421
 apply_P_operator                   155 11.1    0.829    0.914   34.377   34.497
 qs_rho_update_rho_low               31  6.0    0.000    0.000   34.281   34.290
 calculate_rho_elec                  31  7.0    0.060    0.078   34.281   34.290
 sum_up_and_integrate                31  8.9    0.168    0.209   33.759   33.792
 integrate_v_rspace                  31  9.9    0.001    0.002   33.590   33.671
 grid_collocate_task_list            31  8.0   22.433   26.826   22.433   26.826
 grid_integrate_task_list            31 10.9   20.928   24.422   20.928   24.422
 x_to_yz                            931 16.4    3.962    5.138   23.207   24.149
 cp_fm_triangular_multiply           90  8.0   17.538   17.709   17.538   17.709
 rs_pw_transfer                     252 10.4    0.003    0.003   15.179   17.576
 yz_to_x                            499 16.4    1.365    1.592   12.423   17.073
 qs_vxc_create                       31  8.9    0.001    0.001   15.246   15.456
 xc_vxc_pw_create                    31  9.9    0.265    0.330   15.245   15.456
 density_rs2pw                       31  8.0    0.002    0.002   11.101   13.572
 xc_pw_derive                       186 11.9    0.003    0.008   10.710   11.864
 apply_poisson_operator_fft          31 10.9    0.000    0.000    9.889   10.063
 apply_inv_laplace_operator_fft      95 11.6    0.237    0.267    9.269    9.599
 rs_pw_transfer_RS2PW_200            33  9.9    2.161    2.429    6.661    9.035
 mp_waitany                       11580 12.3    6.530    8.942    6.530    8.942
 potential_pw2rs                     31 10.9    0.009    0.010    8.836    8.909
 xc_pw_divergence                    31 10.9    0.001    0.002    7.236    8.118
 xc_rho_set_and_dset_create          31 10.9    0.154    0.184    7.447    7.902
 ps_implicit_compute_error_fft       62 10.9    0.390    0.511    6.856    7.362
 mp_alltoall_d11v                   456 10.3    4.784    7.140    4.784    7.140
 ps_implicit_compute_veps            31 10.9    0.181    0.215    6.884    6.994
 pw_scatter_p                      1024 15.3    5.731    6.666    5.731    6.666
 rs_gather_matrices                  31 10.9    0.037    0.046    3.813    6.128
 scf_post_calculation_gpw             1  4.0    0.000    0.001    5.741    5.747
 write_available_results              1  5.0    0.000    0.000    5.741    5.746
 rs_pw_transfer_PW2RS_200            33 12.6    2.488    2.619    5.213    5.360
 pw_derive                          744 13.0    4.714    5.031    4.714    5.031
 gspace_mixing                       29  6.0    0.056    0.071    4.885    4.890
 -------------------------------------------------------------------------------

 The number of warnings for this run is : 1
 
 -------------------------------------------------------------------------------
  **** **** ******  **  PROGRAM ENDED AT                 2023-12-02 14:28:38.971
 ***** ** ***  *** **   PROGRAM RAN ON                                     cu098
 **    ****   ******    PROGRAM RAN BY                                     jxzhu
 ***** **    ** ** **   PROGRAM PROCESS ID                                 17100
  **** **  *******  **  PROGRAM STOPPED IN /public/home/jxzhu/tmp_calc/b95cabd09
                                           9d10657bfd0ad47b39e85f2cdef7839/calc/
                                           001600.000/search_hi.000002
