 DBCSR| CPU Multiplication driver                                           XSMM
 DBCSR| Multrec recursion limit                                              512
 DBCSR| Multiplication stack size                                           1000
 DBCSR| Maximum elements for images                                    UNLIMITED
 DBCSR| Multiplicative factor virtual images                                   1
 DBCSR| Use multiplication densification                                       T
 DBCSR| Multiplication size stacks                                             3
 DBCSR| Use memory pool for CPU allocation                                     F
 DBCSR| Number of 3D layers                                               SINGLE
 DBCSR| Use MPI memory allocation                                              F
 DBCSR| Use RMA algorithm                                                      F
 DBCSR| Use Communication thread                                               T
 DBCSR| Communication thread load                                             87
 DBCSR| MPI: My node id                                                        0
 DBCSR| MPI: Number of nodes                                                  64
 DBCSR| OMP: Current number of threads                                         1
 DBCSR| OMP: Max number of threads                                             1
 DBCSR| Split modifier for TAS multiplication algorithm                  1.0E+00


  **** **** ******  **  PROGRAM STARTED AT               2023-11-26 18:10:48.472
 ***** ** ***  *** **   PROGRAM STARTED ON                                 cu054
 **    ****   ******    PROGRAM STARTED BY                                 jxzhu
 ***** **    ** ** **   PROGRAM PROCESS ID                                 52743
  **** **  *******  **  PROGRAM STARTED IN /public/home/jxzhu/tmp_calc/af2075565
                                           805657d94fa4669dad6f4b174b0a4fb/calc/
                                           003200.000/pbc

 CP2K| version string:                                       CP2K version 2022.1
 CP2K| source code revision number:                                  git:2caeb6f
 CP2K| cp2kflags: omp libint fftw3 libxc elpa parallel mpi3 scalapack cosma xsmm
 CP2K|             plumed2 spglib mkl sirius libvori libbqb
 CP2K| is freely available from                            https://www.cp2k.org/
 CP2K| Program compiled at                           Mon Jul 3 17:37:06 CST 2023
 CP2K| Program compiled on                                                 mu003
 CP2K| Program compiled for                                                local
 CP2K| Data directory path                             /public/home/jxzhu/basis/
 CP2K| Input file name                                                 input.inp
 
 GLOBAL| Force Environment number                                              1
 GLOBAL| Basis set file name                                        BASIS_MOLOPT
 GLOBAL| Potential file name                                      GTH_POTENTIALS
 GLOBAL| MM Potential file name                                     MM_POTENTIAL
 GLOBAL| Coordinate file name                                          coord.xyz
 GLOBAL| Method name                                                        CP2K
 GLOBAL| Project name                                                       cp2k
 GLOBAL| Run type                                                   ENERGY_FORCE
 GLOBAL| FFT library                                                       FFTW3
 GLOBAL| Diagonalization library                                            ELPA
 GLOBAL| Minimum number of eigenvectors for ELPA usage                        16
 GLOBAL| Orthonormality check for eigenvectors                          DISABLED
 GLOBAL| Matrix multiplication library                                     COSMA
 GLOBAL| All-to-all communication in single precision                          F
 GLOBAL| FFTs using library dependent lengths                                  F
 GLOBAL| Grid backend                                                       AUTO
 GLOBAL| Global print level                                               MEDIUM
 GLOBAL| MPI I/O enabled                                                       T
 GLOBAL| Total number of message passing processes                            64
 GLOBAL| Number of threads for this process                                    1
 GLOBAL| This output is from process                                           0
 GLOBAL| Stack size for threads created by OpenMP (OMP_STACKSIZE)        default
 GLOBAL| CPU model name                 Intel(R) Xeon(R) Gold 6338 CPU @ 2.00GHz
 GLOBAL| CPUID                                                              1003

 MEMORY| system memory details [Kb]
 MEMORY|                        rank 0           min           max       average
 MEMORY| MemTotal            263619172     263619172     263619172     263619172
 MEMORY| MemFree             209523528     209523528     209524768     209523925
 MEMORY| Buffers                  3320          3320          3320          3320
 MEMORY| Cached                5106092       5106092       5106092       5106092
 MEMORY| Slab                  1920340       1920340       1920340       1920340
 MEMORY| SReclaimable           248064        248064        248064        248064
 MEMORY| MemLikelyFree       214881004     214881004     214882244     214881401


 *** Fundamental physical constants (SI units) ***

 *** Literature: B. J. Mohr and B. N. Taylor,
 ***             CODATA recommended values of the fundamental physical
 ***             constants: 2006, Web Version 5.1
 ***             http://physics.nist.gov/constants

 Speed of light in vacuum [m/s]                             2.99792458000000E+08
 Magnetic constant or permeability of vacuum [N/A**2]       1.25663706143592E-06
 Electric constant or permittivity of vacuum [F/m]          8.85418781762039E-12
 Planck constant (h) [J*s]                                  6.62606896000000E-34
 Planck constant (h-bar) [J*s]                              1.05457162825177E-34
 Elementary charge [C]                                      1.60217648700000E-19
 Electron mass [kg]                                         9.10938215000000E-31
 Electron g factor [ ]                                     -2.00231930436220E+00
 Proton mass [kg]                                           1.67262163700000E-27
 Fine-structure constant                                    7.29735253760000E-03
 Rydberg constant [1/m]                                     1.09737315685270E+07
 Avogadro constant [1/mol]                                  6.02214179000000E+23
 Boltzmann constant [J/K]                                   1.38065040000000E-23
 Atomic mass unit [kg]                                      1.66053878200000E-27
 Bohr radius [m]                                            5.29177208590000E-11

 *** Conversion factors ***

 [u] -> [a.u.]                                              1.82288848426455E+03
 [Angstrom] -> [Bohr] = [a.u.]                              1.88972613288564E+00
 [a.u.] = [Bohr] -> [Angstrom]                              5.29177208590000E-01
 [a.u.] -> [s]                                              2.41888432650478E-17
 [a.u.] -> [fs]                                             2.41888432650478E-02
 [a.u.] -> [J]                                              4.35974393937059E-18
 [a.u.] -> [N]                                              8.23872205491840E-08
 [a.u.] -> [K]                                              3.15774647902944E+05
 [a.u.] -> [kJ/mol]                                         2.62549961709828E+03
 [a.u.] -> [kcal/mol]                                       6.27509468713739E+02
 [a.u.] -> [Pa]                                             2.94210107994716E+13
 [a.u.] -> [bar]                                            2.94210107994716E+08
 [a.u.] -> [atm]                                            2.90362800883016E+08
 [a.u.] -> [eV]                                             2.72113838565563E+01
 [a.u.] -> [Hz]                                             6.57968392072181E+15
 [a.u.] -> [1/cm] (wave numbers)                            2.19474631370540E+05
 [a.u./Bohr**2] -> [1/cm]                                   5.14048714338585E+03
 

 CELL_TOP| Volume [angstrom^3]:                                     10221.806009
 CELL_TOP| Vector a [angstrom    16.869     0.000     0.000   |a| =    16.869000
 CELL_TOP| Vector b [angstrom    -8.434    14.609     0.000   |b| =    16.869015
 CELL_TOP| Vector c [angstrom     0.000     0.000    41.478   |c| =    41.478000
 CELL_TOP| Angle (b,c), alpha [degree]:                                90.000000
 CELL_TOP| Angle (a,c), beta  [degree]:                                90.000000
 CELL_TOP| Angle (a,b), gamma [degree]:                               119.999970
 CELL_TOP| Numerically orthorhombic:                                          NO
 
 GENERATE|  Preliminary Number of Bonds generated:                             0
 GENERATE|  Achieved consistency in connectivity generation.

 CELL| Volume [angstrom^3]:                                         10221.806009
 CELL| Vector a [angstrom]:      16.869     0.000     0.000   |a| =    16.869000
 CELL| Vector b [angstrom]:      -8.434    14.609     0.000   |b| =    16.869015
 CELL| Vector c [angstrom]:       0.000     0.000    41.478   |c| =    41.478000
 CELL| Angle (b,c), alpha [degree]:                                    90.000000
 CELL| Angle (a,c), beta  [degree]:                                    90.000000
 CELL| Angle (a,b), gamma [degree]:                                   119.999970
 CELL| Numerically orthorhombic:                                              NO

 CELL_REF| Volume [angstrom^3]:                                     10221.806009
 CELL_REF| Vector a [angstrom    16.869     0.000     0.000   |a| =    16.869000
 CELL_REF| Vector b [angstrom    -8.434    14.609     0.000   |b| =    16.869015
 CELL_REF| Vector c [angstrom     0.000     0.000    41.478   |c| =    41.478000
 CELL_REF| Angle (b,c), alpha [degree]:                                90.000000
 CELL_REF| Angle (a,c), beta  [degree]:                                90.000000
 CELL_REF| Angle (a,b), gamma [degree]:                               119.999970
 CELL_REF| Numerically orthorhombic:                                          NO

 *******************************************************************************
 *******************************************************************************
 **                                                                           **
 **     #####                         ##              ##                      **
 **    ##   ##            ##          ##              ##                      **
 **   ##     ##                       ##            ######                    **
 **   ##     ##  ##   ##  ##   #####  ##  ##   ####   ##    #####    #####    **
 **   ##     ##  ##   ##  ##  ##      ## ##   ##      ##   ##   ##  ##   ##   **
 **   ##  ## ##  ##   ##  ##  ##      ####     ###    ##   ######   ######    **
 **    ##  ###   ##   ##  ##  ##      ## ##      ##   ##   ##       ##        **
 **     #######   #####   ##   #####  ##  ##  ####    ##    #####   ##        **
 **           ##                                                    ##        **
 **                                                                           **
 **                                                ... make the atoms dance   **
 **                                                                           **
 **            Copyright (C) by CP2K developers group (2000-2022)             **
 **                      J. Chem. Phys. 152, 194103 (2020)                    **
 **                                                                           **
 *******************************************************************************

 DFT| Spin restricted Kohn-Sham (RKS) calculation                            RKS
 DFT| Multiplicity                                                             1
 DFT| Number of spin states                                                    1
 DFT| Charge                                                                   0
 DFT| Self-interaction correction (SIC)                                       NO
 DFT| Cutoffs: density                                              1.000000E-10
 DFT|          gradient                                             1.000000E-10
 DFT|          tau                                                  1.000000E-10
 DFT|          cutoff_smoothing_range                               0.000000E+00
 DFT| XC density smoothing                                                  NONE
 DFT| XC derivatives                                                          PW

 FUNCTIONAL| PBE:
 FUNCTIONAL| J.P.Perdew, K.Burke, M.Ernzerhof, Phys. Rev. Letter, vol. 77, n 18,
 FUNCTIONAL|  pp. 3865-3868, (1996){spin unpolarized}                           

 vdW POTENTIAL|                                                   Pair Potential
 vdW POTENTIAL|          DFT-D3 (Version 3.1)
 vdW POTENTIAL|          Potential Form: S. Grimme et al, JCP 132: 154104 (2010)
 vdW POTENTIAL|          Zero Damping
 vdW POTENTIAL|          Cutoff Radius [Bohr]:                             20.00
 vdW POTENTIAL|          s6 Scaling Factor:                               1.0000
 vdW POTENTIAL|          sr6 Scaling Factor:                              1.2170
 vdW POTENTIAL|          s8 Scaling Factor:                               0.7220
 vdW POTENTIAL|          Cutoff for CN calculation:                   0.1000E-05

 QS| Method:                                                                 GPW
 QS| Density plane wave grid type                        NON-SPHERICAL FULLSPACE
 QS| Number of grid levels:                                                    4
 QS| Density cutoff [a.u.]:                                                200.0
 QS| Multi grid cutoff [a.u.]: 1) grid level                               200.0
 QS|                           2) grid level                                66.7
 QS|                           3) grid level                                22.2
 QS|                           4) grid level                                 7.4
 QS| Grid level progression factor:                                          3.0
 QS| Relative density cutoff [a.u.]:                                        20.0
 QS| Interaction thresholds: eps_pgf_orb:                                3.2E-07
 QS|                         eps_filter_matrix:                          0.0E+00
 QS|                         eps_core_charge:                            1.0E-15
 QS|                         eps_rho_gspace:                             1.0E-13
 QS|                         eps_rho_rspace:                             1.0E-13
 QS|                         eps_gvg_rspace:                             3.2E-07
 QS|                         eps_ppl:                                    1.0E-02
 QS|                         eps_ppnl:                                   3.2E-09


 ATOMIC KIND INFORMATION

  1. Atomic kind: O                                     Number of atoms:     230

     Orbital Basis Set                                        DZVP-MOLOPT-SR-GTH

       Number of orbital shell sets:                                           1
       Number of orbital shells:                                               5
       Number of primitive Cartesian functions:                                5
       Number of Cartesian basis functions:                                   14
       Number of spherical basis functions:                                   13
       Norm type:                                                              2

       Normalised Cartesian orbitals:

                        Set   Shell   Orbital            Exponent    Coefficient

                          1       1    2s               10.389228       0.396646
                                                         3.849621       0.208811
                                                         1.388401      -0.301641
                                                         0.496955      -0.274061
                                                         0.162492      -0.033677

                          1       2    3s               10.389228       0.303673
                                                         3.849621       0.240943
                                                         1.388401      -0.313066
                                                         0.496955      -0.043055
                                                         0.162492       0.213991

                          1       3    3px              10.389228      -1.530415
                                                         3.849621      -1.371928
                                                         1.388401      -0.761951
                                                         0.496955      -0.253695
                                                         0.162492      -0.035541
                          1       3    3py              10.389228      -1.530415
                                                         3.849621      -1.371928
                                                         1.388401      -0.761951
                                                         0.496955      -0.253695
                                                         0.162492      -0.035541
                          1       3    3pz              10.389228      -1.530415
                                                         3.849621      -1.371928
                                                         1.388401      -0.761951
                                                         0.496955      -0.253695
                                                         0.162492      -0.035541

                          1       4    4px              10.389228      -0.565392
                                                         3.849621      -0.038231
                                                         1.388401      -0.382373
                                                         0.496955       0.179070
                                                         0.162492       0.122714
                          1       4    4py              10.389228      -0.565392
                                                         3.849621      -0.038231
                                                         1.388401      -0.382373
                                                         0.496955       0.179070
                                                         0.162492       0.122714
                          1       4    4pz              10.389228      -0.565392
                                                         3.849621      -0.038231
                                                         1.388401      -0.382373
                                                         0.496955       0.179070
                                                         0.162492       0.122714

                          1       5    4dx2             10.389228       1.867377
                                                         3.849621       0.670994
                                                         1.388401       1.353441
                                                         0.496955       0.273538
                                                         0.162492       0.006620
                          1       5    4dxy             10.389228       3.234392
                                                         3.849621       1.162195
                                                         1.388401       2.344229
                                                         0.496955       0.473781
                                                         0.162492       0.011466
                          1       5    4dxz             10.389228       3.234392
                                                         3.849621       1.162195
                                                         1.388401       2.344229
                                                         0.496955       0.473781
                                                         0.162492       0.011466
                          1       5    4dy2             10.389228       1.867377
                                                         3.849621       0.670994
                                                         1.388401       1.353441
                                                         0.496955       0.273538
                                                         0.162492       0.006620
                          1       5    4dyz             10.389228       3.234392
                                                         3.849621       1.162195
                                                         1.388401       2.344229
                                                         0.496955       0.473781
                                                         0.162492       0.011466
                          1       5    4dz2             10.389228       1.867377
                                                         3.849621       0.670994
                                                         1.388401       1.353441
                                                         0.496955       0.273538
                                                         0.162492       0.006620

       Atomic covalent radius [Angstrom]:                                  0.730

       Atomic van der Waals radius [Angstrom]:                             1.520

     GTH Potential information for                                    GTH-PBE-q6

       Description:                       Goedecker-Teter-Hutter pseudopotential
                                           Goedecker et al., PRB 54, 1703 (1996)
                                          Hartwigsen et al., PRB 58, 3641 (1998)
                                                      Krack, TCA 114, 145 (2005)

       Gaussian exponent of the core charge distribution:               8.360253
       Electronic configuration (s p d ...):                               2   4

       Parameters of the local part of the GTH pseudopotential:

                          rloc        C1          C2          C3          C4
                        0.244554  -16.667215    2.487311

       Parameters of the non-local part of the GTH pseudopotential:

                   l      r(l)      h(i,j,l)

                   0    0.220956   18.337458
                   1    0.211332

  2. Atomic kind: H                                     Number of atoms:     460

     Orbital Basis Set                                        DZVP-MOLOPT-SR-GTH

       Number of orbital shell sets:                                           1
       Number of orbital shells:                                               3
       Number of primitive Cartesian functions:                                5
       Number of Cartesian basis functions:                                    5
       Number of spherical basis functions:                                    5
       Norm type:                                                              2

       Normalised Cartesian orbitals:

                        Set   Shell   Orbital            Exponent    Coefficient

                          1       1    2s               10.068468      -0.133023
                                                         2.680223      -0.177618
                                                         0.791502      -0.258419
                                                         0.239116      -0.107525
                                                         0.082193      -0.014019

                          1       2    3s               10.068468       0.344673
                                                         2.680223       1.819821
                                                         0.791502      -0.999069
                                                         0.239116       0.017430
                                                         0.082193       0.082660

                          1       3    3px              10.068468       0.155326
                                                         2.680223       0.367157
                                                         0.791502       0.311480
                                                         0.239116       0.080105
                                                         0.082193       0.033440
                          1       3    3py              10.068468       0.155326
                                                         2.680223       0.367157
                                                         0.791502       0.311480
                                                         0.239116       0.080105
                                                         0.082193       0.033440
                          1       3    3pz              10.068468       0.155326
                                                         2.680223       0.367157
                                                         0.791502       0.311480
                                                         0.239116       0.080105
                                                         0.082193       0.033440

       Atomic covalent radius [Angstrom]:                                  0.320

       Atomic van der Waals radius [Angstrom]:                             1.090

     GTH Potential information for                                    GTH-PBE-q1

       Description:                       Goedecker-Teter-Hutter pseudopotential
                                           Goedecker et al., PRB 54, 1703 (1996)
                                          Hartwigsen et al., PRB 58, 3641 (1998)
                                                      Krack, TCA 114, 145 (2005)

       Gaussian exponent of the core charge distribution:              12.500000
       Electronic configuration (s p d ...):                                   1

       Parameters of the local part of the GTH pseudopotential:

                          rloc        C1          C2          C3          C4
                        0.200000   -4.178900    0.724463

  3. Atomic kind: Pt                                    Number of atoms:     216

     Orbital Basis Set                      DZVP-A5-Q10-323-MOL-T1-DERIVED_SET-1

       Number of orbital shell sets:                                           1
       Number of orbital shells:                                               6
       Number of primitive Cartesian functions:                                5
       Number of Cartesian basis functions:                                   23
       Number of spherical basis functions:                                   20
       Norm type:                                                              2

       Normalised Cartesian orbitals:

                        Set   Shell   Orbital            Exponent    Coefficient

                          1       1    2s                2.521825       0.177473
                                                         1.453920      -0.063399
                                                         0.614053      -0.407089
                                                         0.232656       0.262254
                                                         0.074788       0.047371

                          1       2    3s                2.521825      -0.049056
                                                         1.453920       0.044904
                                                         0.614053      -0.009756
                                                         0.232656      -0.144709
                                                         0.074788       0.144085

                          1       3    3px               2.521825      -0.317572
                                                         1.453920       0.534826
                                                         0.614053      -0.489458
                                                         0.232656       0.245631
                                                         0.074788       0.018221
                          1       3    3py               2.521825      -0.317572
                                                         1.453920       0.534826
                                                         0.614053      -0.489458
                                                         0.232656       0.245631
                                                         0.074788       0.018221
                          1       3    3pz               2.521825      -0.317572
                                                         1.453920       0.534826
                                                         0.614053      -0.489458
                                                         0.232656       0.245631
                                                         0.074788       0.018221

                          1       4    4dx2              2.521825       3.008522
                                                         1.453920      -1.224251
                                                         0.614053       0.225691
                                                         0.232656       0.125144
                                                         0.074788      -0.015348
                          1       4    4dxy              2.521825       5.210912
                                                         1.453920      -2.120465
                                                         0.614053       0.390909
                                                         0.232656       0.216756
                                                         0.074788      -0.026584
                          1       4    4dxz              2.521825       5.210912
                                                         1.453920      -2.120465
                                                         0.614053       0.390909
                                                         0.232656       0.216756
                                                         0.074788      -0.026584
                          1       4    4dy2              2.521825       3.008522
                                                         1.453920      -1.224251
                                                         0.614053       0.225691
                                                         0.232656       0.125144
                                                         0.074788      -0.015348
                          1       4    4dyz              2.521825       5.210912
                                                         1.453920      -2.120465
                                                         0.614053       0.390909
                                                         0.232656       0.216756
                                                         0.074788      -0.026584
                          1       4    4dz2              2.521825       3.008522
                                                         1.453920      -1.224251
                                                         0.614053       0.225691
                                                         0.232656       0.125144
                                                         0.074788      -0.015348

                          1       5    5dx2              2.521825       0.698026
                                                         1.453920      -1.511486
                                                         0.614053      -0.335394
                                                         0.232656      -0.025564
                                                         0.074788      -0.002699
                          1       5    5dxy              2.521825       1.209017
                                                         1.453920      -2.617970
                                                         0.614053      -0.580920
                                                         0.232656      -0.044277
                                                         0.074788      -0.004674
                          1       5    5dxz              2.521825       1.209017
                                                         1.453920      -2.617970
                                                         0.614053      -0.580920
                                                         0.232656      -0.044277
                                                         0.074788      -0.004674
                          1       5    5dy2              2.521825       0.698026
                                                         1.453920      -1.511486
                                                         0.614053      -0.335394
                                                         0.232656      -0.025564
                                                         0.074788      -0.002699
                          1       5    5dyz              2.521825       1.209017
                                                         1.453920      -2.617970
                                                         0.614053      -0.580920
                                                         0.232656      -0.044277
                                                         0.074788      -0.004674
                          1       5    5dz2              2.521825       0.698026
                                                         1.453920      -1.511486
                                                         0.614053      -0.335394
                                                         0.232656      -0.025564
                                                         0.074788      -0.002699

                          1       6    6dx2              2.521825       0.831079
                                                         1.453920      -0.709226
                                                         0.614053      -0.137351
                                                         0.232656       0.068642
                                                         0.074788       0.011745
                          1       6    6dxy              2.521825       1.439472
                                                         1.453920      -1.228415
                                                         0.614053      -0.237899
                                                         0.232656       0.118891
                                                         0.074788       0.020343
                          1       6    6dxz              2.521825       1.439472
                                                         1.453920      -1.228415
                                                         0.614053      -0.237899
                                                         0.232656       0.118891
                                                         0.074788       0.020343
                          1       6    6dy2              2.521825       0.831079
                                                         1.453920      -0.709226
                                                         0.614053      -0.137351
                                                         0.232656       0.068642
                                                         0.074788       0.011745
                          1       6    6dyz              2.521825       1.439472
                                                         1.453920      -1.228415
                                                         0.614053      -0.237899
                                                         0.232656       0.118891
                                                         0.074788       0.020343
                          1       6    6dz2              2.521825       0.831079
                                                         1.453920      -0.709226
                                                         0.614053      -0.137351
                                                         0.232656       0.068642
                                                         0.074788       0.011745

       Atomic covalent radius [Angstrom]:                                  1.300

       Atomic van der Waals radius [Angstrom]:                             1.750

     GTH Potential information for                                   GTH-PBE-q10

       Description:                       Goedecker-Teter-Hutter pseudopotential
                                           Goedecker et al., PRB 54, 1703 (1996)
                                          Hartwigsen et al., PRB 58, 3641 (1998)
                                                      Krack, TCA 114, 145 (2005)

       Gaussian exponent of the core charge distribution:               1.317676
       Electronic configuration (s p d ...):                           1   0   9

       Parameters of the local part of the GTH pseudopotential:

                          rloc        C1          C2          C3          C4
                        0.616000   11.313635

       Parameters of the non-local part of the GTH pseudopotential:

                   l      r(l)      h(i,j,l)

                   0    0.550904    4.733491   -1.784594
                                   -1.784594    2.303901
                   1    0.674138    2.534798   -1.778066
                                   -1.778066    2.103836
                   2    0.457392   -7.264011    2.558665
                                    2.558665   -2.901253


 MOLECULE KIND INFORMATION


 All atoms are their own molecule, skipping detailed information


 TOTAL NUMBERS AND MAXIMUM NUMBERS

  Total number of            - Atomic kinds:                                   3
                             - Atoms:                                        906
                             - Shell sets:                                   906
                             - Shells:                                      3826
                             - Primitive Cartesian functions:               4530
                             - Cartesian basis functions:                  10488
                             - Spherical basis functions:                   9610

  Maximum angular momentum of- Orbital basis functions:                        2
                             - Local part of the GTH pseudopotential:          2
                             - Non-local part of the GTH pseudopotential:      4


 MODULE QUICKSTEP:  ATOMIC COORDINATES IN angstrom

 Atom  Kind  Element       X           Y           Z          Z(eff)       Mass
    1   1 O    8       4.260000    1.280000   21.880001       6.0000     15.9994
    2   2 H    1       4.890000    1.910000   21.410000       1.0000      1.0079
    3   2 H    1       3.800000    1.810000   22.600000       1.0000      1.0079
    4   1 O    8      11.540001    5.010000   17.780001       6.0000     15.9994
    5   2 H    1      11.930000    4.480000   17.080000       1.0000      1.0079
    6   2 H    1      12.210001    5.710001   18.010002       1.0000      1.0079
    7   1 O    8      -7.170000  -27.390001    8.830000       6.0000     15.9994
    8   2 H    1      -6.910000  -27.850000    7.930000       1.0000      1.0079
    9   2 H    1      -6.760001  -26.490002    8.810000       1.0000      1.0079
   10   1 O    8      14.350000   -1.410000   17.880001       6.0000     15.9994
   11   2 H    1      15.220001   -1.510000   17.450001       1.0000      1.0079
   12   2 H    1      14.070001   -2.250000   18.210001       1.0000      1.0079
   13   1 O    8       5.630000  -32.780003   29.840002       6.0000     15.9994
   14   2 H    1       6.090000  -32.710003   28.960001       1.0000      1.0079
   15   2 H    1       4.700000  -32.400002   29.660000       1.0000      1.0079
   16   1 O    8       5.480001   25.540001   18.150002       6.0000     15.9994
   17   2 H    1       6.230001   24.870003   18.090002       1.0000      1.0079
   18   2 H    1       4.860000   25.340002   17.450001       1.0000      1.0079
   19   1 O    8      -5.560000    4.530000   31.760002       6.0000     15.9994
   20   2 H    1      -6.380000    4.970000   31.890001       1.0000      1.0079
   21   2 H    1      -4.900000    5.260000   32.010002       1.0000      1.0079
   22   1 O    8      18.330000   23.680000    8.870000       6.0000     15.9994
   23   2 H    1      19.139999   24.310001    8.960000       1.0000      1.0079
   24   2 H    1      26.790001    8.940001    7.830000       1.0000      1.0079
   25   1 O    8     -45.610004  -28.530003   17.550001       6.0000     15.9994
   26   2 H    1     -44.799999  -28.130001   17.840000       1.0000      1.0079
   27   2 H    1     -45.450001  -29.340002   16.990002       1.0000      1.0079
   28   1 O    8      15.930000   16.320002   18.690001       6.0000     15.9994
   29   2 H    1      16.650002   15.730000   19.060001       1.0000      1.0079
   30   2 H    1      16.340000   17.080000   18.130001       1.0000      1.0079
   31   1 O    8      17.010000   18.410000   17.150000       6.0000     15.9994
   32   2 H    1      16.750000   19.100000   17.790001       1.0000      1.0079
   33   2 H    1      17.950001   18.620001   16.890001       1.0000      1.0079
   34   1 O    8      -0.470000  -62.200005   14.470000       6.0000     15.9994
   35   2 H    1      -1.140000  -61.760002   13.860001       1.0000      1.0079
   36   2 H    1      -0.920000  -62.820000   15.070001       1.0000      1.0079
   37   1 O    8     -13.580000  -19.760000   24.400002       6.0000     15.9994
   38   2 H    1     -12.700001  -19.490002   24.500000       1.0000      1.0079
   39   2 H    1     -13.840000  -19.910000   23.490002       1.0000      1.0079
   40   1 O    8      39.570004   32.110001   20.680000       6.0000     15.9994
   41   2 H    1      40.210003   31.790001   20.010002       1.0000      1.0079
   42   2 H    1      39.820000   33.080002   20.900002       1.0000      1.0079
   43   1 O    8     -12.880001  -23.430002   32.440002       6.0000     15.9994
   44   2 H    1     -12.390001  -22.900002   33.100002       1.0000      1.0079
   45   2 H    1     -12.510000  -23.330002   31.510002       1.0000      1.0079
   46   1 O    8       3.620000   13.010001   32.570004       6.0000     15.9994
   47   2 H    1       3.740000   12.040001   32.740002       1.0000      1.0079
   48   2 H    1       3.970000   13.300000   33.500000       1.0000      1.0079
   49   1 O    8     -30.160000   16.120001   19.300001       6.0000     15.9994
   50   2 H    1     -29.310001   15.690001   19.660000       1.0000      1.0079
   51   2 H    1     -30.940001   15.820000   19.840000       1.0000      1.0079
   52   1 O    8     -24.090002   29.030001   25.750000       6.0000     15.9994
   53   2 H    1     -23.650000   28.200001   26.070002       1.0000      1.0079
   54   2 H    1     -23.970001   29.770002   26.430000       1.0000      1.0079
   55   1 O    8     -16.540001   -3.420000   29.630001       6.0000     15.9994
   56   2 H    1     -16.520000   -3.440000   30.590002       1.0000      1.0079
   57   2 H    1     -16.830002   -4.320000   29.280003       1.0000      1.0079
   58   1 O    8      24.100000   -1.570000   17.760002       6.0000     15.9994
   59   2 H    1      23.890001   -0.920000   17.100000       1.0000      1.0079
   60   2 H    1      23.450001   -2.310000   17.630001       1.0000      1.0079
   61   1 O    8     -22.280003   46.550003   26.410000       6.0000     15.9994
   62   2 H    1     -21.900002   45.670006   26.720001       1.0000      1.0079
   63   2 H    1      -6.380000   46.290001   26.410000       1.0000      1.0079
   64   1 O    8      25.260000  -24.600000    8.200001       6.0000     15.9994
   65   2 H    1      26.210001  -24.620001    8.510000       1.0000      1.0079
   66   2 H    1      41.980003  -23.490002    8.430000       1.0000      1.0079
   67   1 O    8      14.020000   -0.860000   22.299999       6.0000     15.9994
   68   2 H    1       5.720000   14.290000   21.460001       1.0000      1.0079
   69   2 H    1      14.720001   -0.690000   22.970001       1.0000      1.0079
   70   1 O    8       6.190000   -0.020000   32.029999       6.0000     15.9994
   71   2 H    1       6.370000    0.450000   31.150002       1.0000      1.0079
   72   2 H    1       6.520000    0.650000   32.650002       1.0000      1.0079
   73   1 O    8     -23.290001   -7.890000   30.030003       6.0000     15.9994
   74   2 H    1     -23.810001   -7.350000   29.370001       1.0000      1.0079
   75   2 H    1     -23.980000   -8.550000   30.370003       1.0000      1.0079
   76   1 O    8      -7.850000    4.210001   22.870003       6.0000     15.9994
   77   2 H    1      -6.920000    4.460000   23.000002       1.0000      1.0079
   78   2 H    1      -7.900000    3.210000   22.800003       1.0000      1.0079
   79   1 O    8      -8.720000  -45.690002   16.610001       6.0000     15.9994
   80   2 H    1      -8.950001  -46.340004   15.930000       1.0000      1.0079
   81   2 H    1      -7.830000  -46.100002   17.090000       1.0000      1.0079
   82   1 O    8      16.870001  -28.310001   20.070002       6.0000     15.9994
   83   2 H    1      17.220001  -28.240002   20.980000       1.0000      1.0079
   84   2 H    1      17.650002  -28.650002   19.550001       1.0000      1.0079
   85   1 O    8     -12.350000   13.740001   29.910002       6.0000     15.9994
   86   2 H    1     -12.840000   13.070001   30.410002       1.0000      1.0079
   87   2 H    1     -11.450001   13.290001   29.660000       1.0000      1.0079
   88   1 O    8       4.620000  -10.810001   10.910001       6.0000     15.9994
   89   2 H    1     -12.980001  -10.790000   10.280000       1.0000      1.0079
   90   2 H    1       4.310000  -10.250001   11.680001       1.0000      1.0079
   91   1 O    8      -9.740001   -9.180000   14.550000       6.0000     15.9994
   92   2 H    1      -9.390000  -10.110001   14.820002       1.0000      1.0079
   93   2 H    1      -9.220000   -8.530001   15.100001       1.0000      1.0079
   94   1 O    8      16.120001   54.400002    9.500000       6.0000     15.9994
   95   2 H    1      16.530001   53.890003   10.300001       1.0000      1.0079
   96   2 H    1      15.870001   55.300003    9.750000       1.0000      1.0079
   97   1 O    8     -11.450001   -7.270000   16.360001       6.0000     15.9994
   98   2 H    1     -12.400000   -7.130001   16.350000       1.0000      1.0079
   99   2 H    1     -11.320001   -8.200001   16.330002       1.0000      1.0079
  100   1 O    8      -1.100000   -8.960000   18.650002       6.0000     15.9994
  101   2 H    1      -2.040000   -8.970000   18.320002       1.0000      1.0079
  102   2 H    1      -1.150000   -8.950001   19.680000       1.0000      1.0079
  103   1 O    8      40.490002   20.140001   10.040001       6.0000     15.9994
  104   2 H    1      39.750000   19.540001   10.280000       1.0000      1.0079
  105   2 H    1      24.200001   20.120001   10.840001       1.0000      1.0079
  106   1 O    8      -9.810000   13.270000    9.030001       6.0000     15.9994
  107   2 H    1      -9.340000   13.040000    8.170000       1.0000      1.0079
  108   2 H    1      -9.960001   14.220000    9.030001       1.0000      1.0079
  109   1 O    8      39.590000    7.370000   15.100001       6.0000     15.9994
  110   2 H    1      40.120003    6.500000   15.240001       1.0000      1.0079
  111   2 H    1      38.660004    7.300000   15.420000       1.0000      1.0079
  112   1 O    8     -40.820004   -2.430000   20.630001       6.0000     15.9994
  113   2 H    1     -39.889999   -2.380000   20.910000       1.0000      1.0079
  114   2 H    1     -40.779999   -2.750000   19.680000       1.0000      1.0079
  115   1 O    8      27.060001   25.580002   10.070001       6.0000     15.9994
  116   2 H    1      26.310001   24.990002    9.910001       1.0000      1.0079
  117   2 H    1      27.140003   25.580002   11.030001       1.0000      1.0079
  118   1 O    8     -30.950001   22.740002   16.140001       6.0000     15.9994
  119   2 H    1     -31.710003   22.720001   16.740000       1.0000      1.0079
  120   2 H    1     -30.680000   23.660002   16.140001       1.0000      1.0079
  121   1 O    8      -2.820000    4.630000   19.940001       6.0000     15.9994
  122   2 H    1      -3.750000    4.440001   20.220001       1.0000      1.0079
  123   2 H    1      -2.240000    4.390000   20.730001       1.0000      1.0079
  124   1 O    8     -25.770000   17.580002   15.110001       6.0000     15.9994
  125   2 H    1     -33.360001   32.210003   15.720000       1.0000      1.0079
  126   2 H    1     -25.740002   16.920000   14.380001       1.0000      1.0079
  127   1 O    8      -5.870000   -8.830000   13.790001       6.0000     15.9994
  128   2 H    1      -5.230000   -9.530001   13.760000       1.0000      1.0079
  129   2 H    1     -14.030001    6.400001   13.070001       1.0000      1.0079
  130   1 O    8     -16.170002   22.570002   18.030001       6.0000     15.9994
  131   2 H    1     -16.540001   21.740000   18.470001       1.0000      1.0079
  132   2 H    1     -15.920001   23.310001   18.710001       1.0000      1.0079
  133   1 O    8      -2.390000   14.050001   12.330000       6.0000     15.9994
  134   2 H    1      -2.720000   14.710001   12.980001       1.0000      1.0079
  135   2 H    1      -1.460000   14.080001   12.540001       1.0000      1.0079
  136   1 O    8     -40.440002    8.660001   32.370003       6.0000     15.9994
  137   2 H    1     -39.780003    8.600000   31.580002       1.0000      1.0079
  138   2 H    1     -39.930004    9.010000   33.139999       1.0000      1.0079
  139   1 O    8     -13.190001   -3.800000   16.010000       6.0000     15.9994
  140   2 H    1     -13.400001   -3.440000   15.070001       1.0000      1.0079
  141   2 H    1     -13.860001   -3.380000   16.530001       1.0000      1.0079
  142   1 O    8       7.270000    5.180000   15.060000       6.0000     15.9994
  143   2 H    1       7.650001    4.600000   15.830001       1.0000      1.0079
  144   2 H    1       8.120001    5.580000   14.730001       1.0000      1.0079
  145   1 O    8     -25.040001   39.400002   26.460001       6.0000     15.9994
  146   2 H    1      -8.770000   39.750000   25.780001       1.0000      1.0079
  147   2 H    1     -25.670002   39.010002   27.100000       1.0000      1.0079
  148   1 O    8     -41.110001   -1.790000   29.790001       6.0000     15.9994
  149   2 H    1     -40.540005   -0.970000   29.680002       1.0000      1.0079
  150   2 H    1     -41.320000   -1.750000   30.750000       1.0000      1.0079
  151   1 O    8     -17.250000    8.260000   25.330002       6.0000     15.9994
  152   2 H    1     -17.930000    7.560000   25.520000       1.0000      1.0079
  153   2 H    1     -16.730001    8.390000   26.160002       1.0000      1.0079
  154   1 O    8     -23.880001   -7.800000    8.620001       6.0000     15.9994
  155   2 H    1     -24.330002   -6.980000    8.920000       1.0000      1.0079
  156   2 H    1     -22.889999   -7.740001    8.550000       1.0000      1.0079
  157   1 O    8      25.280001   -5.980001   12.370001       6.0000     15.9994
  158   2 H    1      26.030003   -6.580000   12.500000       1.0000      1.0079
  159   2 H    1      24.630001   -6.150000   13.140000       1.0000      1.0079
  160   1 O    8      -2.650000   -9.820001    9.080001       6.0000     15.9994
  161   2 H    1      -3.270000  -10.540000    9.120001       1.0000      1.0079
  162   2 H    1      -1.950000  -10.070001    8.450001       1.0000      1.0079
  163   1 O    8      54.400002   -4.070000    9.340000       6.0000     15.9994
  164   2 H    1      54.250000   -3.160000    9.110001       1.0000      1.0079
  165   2 H    1      54.110001   -4.150000   10.300001       1.0000      1.0079
  166   1 O    8       7.200000  -10.910001   22.070000       6.0000     15.9994
  167   2 H    1       7.780001  -10.120001   22.100000       1.0000      1.0079
  168   2 H    1       6.660000  -10.790000   22.959999       1.0000      1.0079
  169   1 O    8     -49.620003  -13.300000   32.330002       6.0000     15.9994
  170   2 H    1     -33.560001  -12.790001   32.570004       1.0000      1.0079
  171   2 H    1     -33.100002  -14.230001   32.459999       1.0000      1.0079
  172   1 O    8      19.470001  -10.390000    9.160001       6.0000     15.9994
  173   2 H    1      19.730000  -10.520000    8.210000       1.0000      1.0079
  174   2 H    1      19.530001   -9.370001    9.330000       1.0000      1.0079
  175   1 O    8      21.540001  -35.740002   12.320002       6.0000     15.9994
  176   2 H    1      20.720001  -35.190002   12.100000       1.0000      1.0079
  177   2 H    1      21.310001  -36.670002   12.540001       1.0000      1.0079
  178   1 O    8     -13.560000   19.950001   28.410000       6.0000     15.9994
  179   2 H    1     -13.730000   20.150002   27.450001       1.0000      1.0079
  180   2 H    1     -14.410001   20.180000   28.810001       1.0000      1.0079
  181   1 O    8      37.010002   19.640001   23.040001       6.0000     15.9994
  182   2 H    1      36.970001   20.610001   22.950001       1.0000      1.0079
  183   2 H    1      37.029999   19.320000   22.080002       1.0000      1.0079
  184   1 O    8      23.460003  -17.080000   12.510000       6.0000     15.9994
  185   2 H    1      22.820000  -17.889999   12.480001       1.0000      1.0079
  186   2 H    1      22.840002  -16.380001   12.930001       1.0000      1.0079
  187   1 O    8     -23.340000   43.540001    9.300001       6.0000     15.9994
  188   2 H    1     -23.470001   43.279999   10.240001       1.0000      1.0079
  189   2 H    1     -23.600002   44.500004    9.120001       1.0000      1.0079
  190   1 O    8      28.520002   19.120001   10.790000       6.0000     15.9994
  191   2 H    1      29.080002   18.310001   11.130000       1.0000      1.0079
  192   2 H    1      27.820000   18.630001   10.350000       1.0000      1.0079
  193   1 O    8       4.910000  -13.750001   31.930000       6.0000     15.9994
  194   2 H    1       4.500000  -13.300000   32.670002       1.0000      1.0079
  195   2 H    1       4.560000  -14.650001   31.960001       1.0000      1.0079
  196   1 O    8     -32.459999   -0.260000   28.290003       6.0000     15.9994
  197   2 H    1     -33.320004   -0.600000   28.440001       1.0000      1.0079
  198   2 H    1     -31.850002   -0.970000   28.540001       1.0000      1.0079
  199   1 O    8     -36.300003   26.890001   26.390001       6.0000     15.9994
  200   2 H    1     -37.250000   27.140003   26.620003       1.0000      1.0079
  201   2 H    1     -35.900002   27.450001   25.690001       1.0000      1.0079
  202   1 O    8      25.360001    9.220000   12.040001       6.0000     15.9994
  203   2 H    1      25.010002    9.380000   12.900001       1.0000      1.0079
  204   2 H    1      25.820000    8.360001   12.100000       1.0000      1.0079
  205   1 O    8      18.070000   15.100001   19.960001       6.0000     15.9994
  206   2 H    1       9.850000   28.730001   20.110001       1.0000      1.0079
  207   2 H    1      17.820000   15.450001   20.889999       1.0000      1.0079
  208   1 O    8     -21.110001    2.110000    8.250000       6.0000     15.9994
  209   2 H    1     -21.520002    1.140000    8.380001       1.0000      1.0079
  210   2 H    1     -20.120001    2.050000    8.440001       1.0000      1.0079
  211   1 O    8      13.910000  -13.370000   24.840002       6.0000     15.9994
  212   2 H    1      14.560001  -13.910000   24.350002       1.0000      1.0079
  213   2 H    1      13.150001  -13.400001   24.160002       1.0000      1.0079
  214   1 O    8      21.250000    0.640000   27.150002       6.0000     15.9994
  215   2 H    1      21.880001    0.880000   26.370001       1.0000      1.0079
  216   2 H    1      20.830002   -0.260000   26.960001       1.0000      1.0079
  217   1 O    8     -57.580002   31.100002   11.730001       6.0000     15.9994
  218   2 H    1     -57.680000   31.080000   10.760001       1.0000      1.0079
  219   2 H    1     -56.620003   31.020002   11.990000       1.0000      1.0079
  220   1 O    8      33.990002    3.290000   33.550003       6.0000     15.9994
  221   2 H    1      34.440002    2.530000   33.020000       1.0000      1.0079
  222   2 H    1      34.420002    4.180000   33.320004       1.0000      1.0079
  223   1 O    8       0.260000    7.400000   16.250002       6.0000     15.9994
  224   2 H    1      18.110001    7.360001   16.190001       1.0000      1.0079
  225   2 H    1       0.190000    6.880000   17.090000       1.0000      1.0079
  226   1 O    8      18.330000   55.720001    8.130000       6.0000     15.9994
  227   2 H    1      18.080002   56.630001    8.390000       1.0000      1.0079
  228   2 H    1      34.400002   55.190002    8.420001       1.0000      1.0079
  229   1 O    8     -22.560001   41.090004   32.120003       6.0000     15.9994
  230   2 H    1     -22.369999   41.950001   32.560001       1.0000      1.0079
  231   2 H    1     -23.400002   40.800003   32.570004       1.0000      1.0079
  232   1 O    8       9.340000   -1.290000   32.350002       6.0000     15.9994
  233   2 H    1      10.340000   -1.180000   32.430004       1.0000      1.0079
  234   2 H    1       9.190001   -2.160000   32.800003       1.0000      1.0079
  235   1 O    8      -9.020000   28.790001   27.910002       6.0000     15.9994
  236   2 H    1      -9.580001   29.430000   28.340000       1.0000      1.0079
  237   2 H    1      -8.470000   28.380001   28.580000       1.0000      1.0079
  238   1 O    8      10.020000   17.470001   16.940001       6.0000     15.9994
  239   2 H    1       2.570000   32.330002   16.750000       1.0000      1.0079
  240   2 H    1       9.620001   17.750000   17.800001       1.0000      1.0079
  241   1 O    8       1.300000   -0.300000   25.400002       6.0000     15.9994
  242   2 H    1       1.260000   -0.380000   26.410000       1.0000      1.0079
  243   2 H    1       1.680000   -1.130000   25.080002       1.0000      1.0079
  244   1 O    8       6.910000    2.160000    8.090000       6.0000     15.9994
  245   2 H    1       6.730001    1.200000    8.500000       1.0000      1.0079
  246   2 H    1       7.860000    2.480000    8.180000       1.0000      1.0079
  247   1 O    8      16.639999    7.660000   32.340004       6.0000     15.9994
  248   2 H    1      16.840002    8.500000   32.890003       1.0000      1.0079
  249   2 H    1      16.049999    7.120000   32.990002       1.0000      1.0079
  250   1 O    8      22.520000  -14.600000   13.780001       6.0000     15.9994
  251   2 H    1      21.790001  -14.170000   13.300000       1.0000      1.0079
  252   2 H    1      21.980001  -14.850000   14.580001       1.0000      1.0079
  253   1 O    8     -13.210001   -6.180000   30.620001       6.0000     15.9994
  254   2 H    1     -12.710000   -6.690001   31.250002       1.0000      1.0079
  255   2 H    1     -12.890000   -5.230000   30.560001       1.0000      1.0079
  256   1 O    8      17.180000  -15.250001   11.910001       6.0000     15.9994
  257   2 H    1      17.510000  -15.470000   11.030001       1.0000      1.0079
  258   2 H    1      17.560001  -14.320001   12.040001       1.0000      1.0079
  259   1 O    8     -20.900002   24.080002   20.559999       6.0000     15.9994
  260   2 H    1     -20.580002   23.450001   21.260002       1.0000      1.0079
  261   2 H    1     -21.790001   23.760002   20.320000       1.0000      1.0079
  262   1 O    8       3.530000   11.050000   14.230001       6.0000     15.9994
  263   2 H    1       2.710000   11.060000   13.710001       1.0000      1.0079
  264   2 H    1       3.260000   10.750000   15.100001       1.0000      1.0079
  265   1 O    8      28.530003    0.220000   23.310001       6.0000     15.9994
  266   2 H    1      28.190002   -0.300000   24.060001       1.0000      1.0079
  267   2 H    1      37.930000   14.530001   23.260002       1.0000      1.0079
  268   1 O    8       4.280000    3.170000   16.300001       6.0000     15.9994
  269   2 H    1       4.430000    2.210000   16.490000       1.0000      1.0079
  270   2 H    1       4.280000    3.350000   15.300001       1.0000      1.0079
  271   1 O    8       1.200000   -7.870001   11.990000       6.0000     15.9994
  272   2 H    1       1.940000   -7.830000   11.420001       1.0000      1.0079
  273   2 H    1       0.440000   -8.280001   11.530000       1.0000      1.0079
  274   1 O    8     -14.170000   -8.720000   25.700001       6.0000     15.9994
  275   2 H    1     -14.290000   -9.610001   25.200003       1.0000      1.0079
  276   2 H    1     -15.120001   -8.470000   25.510002       1.0000      1.0079
  277   1 O    8       3.520000   14.210001    9.190001       6.0000     15.9994
  278   2 H    1     -12.860001   13.350000    9.210001       1.0000      1.0079
  279   2 H    1       2.540000   13.980001    9.140000       1.0000      1.0079
  280   1 O    8      30.700001  -24.740002   24.380001       6.0000     15.9994
  281   2 H    1      30.330002  -25.560001   24.730000       1.0000      1.0079
  282   2 H    1      29.940002  -24.440001   23.780001       1.0000      1.0079
  283   1 O    8       0.810000  -13.010001   22.310001       6.0000     15.9994
  284   2 H    1      -6.750000    1.310000   22.680000       1.0000      1.0079
  285   2 H    1       0.050000  -13.590001   22.760000       1.0000      1.0079
  286   1 O    8     -22.560001   48.180004   28.590002       6.0000     15.9994
  287   2 H    1      -5.460000   47.710003   27.750000       1.0000      1.0079
  288   2 H    1     -22.880001   47.510002   29.200001       1.0000      1.0079
  289   1 O    8      -7.730001   18.210001   19.230001       6.0000     15.9994
  290   2 H    1      -8.210000   17.430000   19.450001       1.0000      1.0079
  291   2 H    1      -6.800000   17.960001   19.500000       1.0000      1.0079
  292   1 O    8      23.650000   -5.990000   30.290001       6.0000     15.9994
  293   2 H    1      24.139999   -6.380000   31.120003       1.0000      1.0079
  294   2 H    1      23.450001   -5.020000   30.360003       1.0000      1.0079
  295   1 O    8       2.590000    9.120001   31.280003       6.0000     15.9994
  296   2 H    1       2.450000    8.150001   31.040001       1.0000      1.0079
  297   2 H    1       1.720000    9.480001   31.260002       1.0000      1.0079
  298   1 O    8       4.580000    5.710001   29.920002       6.0000     15.9994
  299   2 H    1       4.890000    6.570000   29.470001       1.0000      1.0079
  300   2 H    1       3.870000    5.390000   29.310001       1.0000      1.0079
  301   1 O    8     -16.760002    4.630000    8.060000       6.0000     15.9994
  302   2 H    1     -16.210001    5.430000    8.240001       1.0000      1.0079
  303   2 H    1     -17.640001    4.800000    8.550000       1.0000      1.0079
  304   1 O    8      13.950001   11.250000   13.810000       6.0000     15.9994
  305   2 H    1      14.430000   10.410000   13.950001       1.0000      1.0079
  306   2 H    1      14.420000   11.650001   13.070001       1.0000      1.0079
  307   1 O    8     -12.610001    6.870000    8.170000       6.0000     15.9994
  308   2 H    1     -12.080001    6.050000    8.460000       1.0000      1.0079
  309   2 H    1     -12.100000    7.680000    8.430000       1.0000      1.0079
  310   1 O    8     -12.430000   10.450001   33.190002       6.0000     15.9994
  311   2 H    1     -13.070001    9.730001   33.110001       1.0000      1.0079
  312   2 H    1     -11.530000   10.120001   32.690002       1.0000      1.0079
  313   1 O    8     -24.610003   13.220000   11.740000       6.0000     15.9994
  314   2 H    1     -24.940002   13.960000   12.330000       1.0000      1.0079
  315   2 H    1     -25.430002   12.730000   11.620001       1.0000      1.0079
  316   1 O    8       6.550000   -9.650001   32.640003       6.0000     15.9994
  317   2 H    1       6.450000  -10.360001   33.270000       1.0000      1.0079
  318   2 H    1       7.240000   -9.910001   31.940002       1.0000      1.0079
  319   1 O    8       2.850000   -4.830000   11.830001       6.0000     15.9994
  320   2 H    1       1.910000   -5.080000   11.920000       1.0000      1.0079
  321   2 H    1       3.000000   -4.300000   12.680000       1.0000      1.0079
  322   1 O    8      32.980000  -19.870001   17.980001       6.0000     15.9994
  323   2 H    1      33.630001  -19.090000   18.040001       1.0000      1.0079
  324   2 H    1      33.209999  -20.320000   17.090000       1.0000      1.0079
  325   1 O    8     -32.930000    1.590000   22.959999       6.0000     15.9994
  326   2 H    1     -33.080002    0.850000   23.540001       1.0000      1.0079
  327   2 H    1     -33.780003    2.220000   23.000002       1.0000      1.0079
  328   1 O    8      -0.610000   -5.700001   28.880003       6.0000     15.9994
  329   2 H    1      -0.050000   -6.450000   28.790001       1.0000      1.0079
  330   2 H    1      -1.570000   -6.060000   28.640001       1.0000      1.0079
  331   1 O    8     -25.090000   46.150002   26.090002       6.0000     15.9994
  332   2 H    1     -25.600002   46.180000   26.890001       1.0000      1.0079
  333   2 H    1     -25.270002   47.029999   25.610001       1.0000      1.0079
  334   1 O    8     -30.560001   -6.970000   22.850000       6.0000     15.9994
  335   2 H    1     -30.270002   -6.600000   23.730001       1.0000      1.0079
  336   2 H    1     -31.590002   -6.750000   22.889999       1.0000      1.0079
  337   1 O    8       7.100000   14.030001   24.500000       6.0000     15.9994
  338   2 H    1      16.500000   -0.550000   24.770002       1.0000      1.0079
  339   2 H    1     -10.250001   14.670001   25.080002       1.0000      1.0079
  340   1 O    8      29.650002   13.250000    8.740000       6.0000     15.9994
  341   2 H    1      28.860001   13.830000    8.950001       1.0000      1.0079
  342   2 H    1      29.670002   13.220000    7.760000       1.0000      1.0079
  343   1 O    8      14.930000    8.750001   14.160000       6.0000     15.9994
  344   2 H    1      14.700001    8.300000   14.990001       1.0000      1.0079
  345   2 H    1      14.140000    8.410000   13.610001       1.0000      1.0079
  346   1 O    8       0.240000  -23.240002   22.510002       6.0000     15.9994
  347   2 H    1       0.190000  -23.580000   23.490002       1.0000      1.0079
  348   2 H    1      -0.410000  -22.570002   22.270000       1.0000      1.0079
  349   1 O    8      -5.520000   10.340000   25.500002       6.0000     15.9994
  350   2 H    1      -4.960000    9.520000   25.510002       1.0000      1.0079
  351   2 H    1      -6.310000   10.290001   26.049999       1.0000      1.0079
  352   1 O    8       0.170000   10.270000   32.810001       6.0000     15.9994
  353   2 H    1       0.620000   10.480001   33.620003       1.0000      1.0079
  354   2 H    1      -0.690000   10.810001   32.720001       1.0000      1.0079
  355   1 O    8      12.430000    1.260000   11.650001       6.0000     15.9994
  356   2 H    1      12.940001    2.110000   11.390000       1.0000      1.0079
  357   2 H    1      12.460001    0.710000   10.850000       1.0000      1.0079
  358   1 O    8      20.080002    7.030000   16.160000       6.0000     15.9994
  359   2 H    1      20.389999    6.370000   16.890001       1.0000      1.0079
  360   2 H    1      19.790001    6.600000   15.330001       1.0000      1.0079
  361   1 O    8     -36.310001    9.450001    8.040000       6.0000     15.9994
  362   2 H    1     -36.420002    8.420001    8.190001       1.0000      1.0079
  363   2 H    1     -37.200005    9.870001    8.350000       1.0000      1.0079
  364   1 O    8     -10.140000   63.800003   21.330002       6.0000     15.9994
  365   2 H    1      -9.380000   63.540001   21.900002       1.0000      1.0079
  366   2 H    1     -10.850000   64.210007   21.890001       1.0000      1.0079
  367   1 O    8       4.300000   11.170001    9.510000       6.0000     15.9994
  368   2 H    1       4.480000   10.850000   10.440001       1.0000      1.0079
  369   2 H    1       3.310000   10.950001    9.460000       1.0000      1.0079
  370   1 O    8     -24.710003   -6.320000   28.170002       6.0000     15.9994
  371   2 H    1     -25.410002   -6.320000   28.860001       1.0000      1.0079
  372   2 H    1     -24.340000   -5.370000   28.340000       1.0000      1.0079
  373   1 O    8     -15.760001    2.480000   29.610003       6.0000     15.9994
  374   2 H    1     -15.570001    1.750000   28.950003       1.0000      1.0079
  375   2 H    1     -15.430001    2.080000   30.510002       1.0000      1.0079
  376   1 O    8     -17.470001   21.490002    9.030001       6.0000     15.9994
  377   2 H    1     -16.800001   22.230000    8.950001       1.0000      1.0079
  378   2 H    1     -17.570002   21.200001    9.960001       1.0000      1.0079
  379   1 O    8       5.490000  -19.780001    8.230000       6.0000     15.9994
  380   2 H    1       4.920000  -18.910000    8.730000       1.0000      1.0079
  381   2 H    1       6.400001  -19.550001    8.520000       1.0000      1.0079
  382   1 O    8       2.980000  -12.080001   33.360001       6.0000     15.9994
  383   2 H    1       2.130000  -12.580000   33.220001       1.0000      1.0079
  384   2 H    1       2.910000  -11.200000   32.850002       1.0000      1.0079
  385   1 O    8     -11.670000   37.170002   28.470001       6.0000     15.9994
  386   2 H    1     -11.960001   37.960003   29.040001       1.0000      1.0079
  387   2 H    1     -12.040001   37.260002   27.510002       1.0000      1.0079
  388   1 O    8       5.330000   10.470000   18.230001       6.0000     15.9994
  389   2 H    1       5.940001   10.030001   17.700001       1.0000      1.0079
  390   2 H    1       5.170000    9.990001   19.120001       1.0000      1.0079
  391   1 O    8       0.130000   25.300003   22.100000       6.0000     15.9994
  392   2 H    1      -0.840000   25.590000   22.110003       1.0000      1.0079
  393   2 H    1       0.650000   25.960003   22.680000       1.0000      1.0079
  394   1 O    8      12.360001   38.460003   20.690001       6.0000     15.9994
  395   2 H    1      20.520000   23.260002   21.470001       1.0000      1.0079
  396   2 H    1      12.780001   37.720001   20.170002       1.0000      1.0079
  397   1 O    8      16.830002    0.420000   13.520001       6.0000     15.9994
  398   2 H    1      15.930000    0.180000   13.930000       1.0000      1.0079
  399   2 H    1      17.430000    0.420000   14.370001       1.0000      1.0079
  400   1 O    8      29.790001   19.820002   17.880001       6.0000     15.9994
  401   2 H    1      29.320002   19.540001   18.710001       1.0000      1.0079
  402   2 H    1      29.720001   19.010002   17.320002       1.0000      1.0079
  403   1 O    8      21.290001   50.360001   32.470001       6.0000     15.9994
  404   2 H    1      21.010000   50.680004   33.330002       1.0000      1.0079
  405   2 H    1      22.160000   49.950005   32.650002       1.0000      1.0079
  406   1 O    8       6.600000   -0.330000    9.120001       6.0000     15.9994
  407   2 H    1       6.680000   -0.430000   10.110001       1.0000      1.0079
  408   2 H    1       5.680000   -0.710000    8.860001       1.0000      1.0079
  409   1 O    8       6.840000  -12.710000   28.250000       6.0000     15.9994
  410   2 H    1       7.210000  -13.310001   28.900002       1.0000      1.0079
  411   2 H    1       6.090000  -12.330000   28.770000       1.0000      1.0079
  412   1 O    8     -40.550003   -8.650001   26.680002       6.0000     15.9994
  413   2 H    1     -40.919998   -7.790000   27.080002       1.0000      1.0079
  414   2 H    1     -40.280003   -9.120001   27.490002       1.0000      1.0079
  415   1 O    8     -22.150002    3.890000   20.450001       6.0000     15.9994
  416   2 H    1     -21.910002    3.010000   20.040001       1.0000      1.0079
  417   2 H    1     -22.590000    4.350000   19.680000       1.0000      1.0079
  418   1 O    8      24.870003   23.440001    9.480001       6.0000     15.9994
  419   2 H    1      24.170000   24.010000    9.000000       1.0000      1.0079
  420   2 H    1      24.680002   23.320000   10.440001       1.0000      1.0079
  421   1 O    8      35.240002    2.730000    9.310000       6.0000     15.9994
  422   2 H    1      34.630001    2.580000   10.150002       1.0000      1.0079
  423   2 H    1      34.670002    3.250000    8.700001       1.0000      1.0079
  424   1 O    8     -32.450001    0.560000   15.880001       6.0000     15.9994
  425   2 H    1     -32.720001   -0.230000   16.370001       1.0000      1.0079
  426   2 H    1     -23.820002  -13.220000   16.450001       1.0000      1.0079
  427   1 O    8     -22.520000   -9.230001   22.160000       6.0000     15.9994
  428   2 H    1     -22.460001  -10.110001   22.620001       1.0000      1.0079
  429   2 H    1     -23.520000   -8.980000   22.139999       1.0000      1.0079
  430   1 O    8     -27.470001   20.820000   26.170002       6.0000     15.9994
  431   2 H    1     -27.950001   20.030001   25.720001       1.0000      1.0079
  432   2 H    1     -27.630003   20.889999   27.170002       1.0000      1.0079
  433   1 O    8      10.510000  -17.550001   13.650000       6.0000     15.9994
  434   2 H    1       9.690001  -17.940001   13.990001       1.0000      1.0079
  435   2 H    1      10.200001  -17.130001   12.840000       1.0000      1.0079
  436   1 O    8      14.320001   24.700001   24.960001       6.0000     15.9994
  437   2 H    1      14.170000   25.530003   25.520000       1.0000      1.0079
  438   2 H    1      22.930002   10.440001   23.990002       1.0000      1.0079
  439   1 O    8      12.610001   17.070002    8.910000       6.0000     15.9994
  440   2 H    1      11.650001   17.210001    8.750001       1.0000      1.0079
  441   2 H    1      12.950001   16.600000    8.200001       1.0000      1.0079
  442   1 O    8      -1.880000   12.030001   32.140003       6.0000     15.9994
  443   2 H    1      -2.150000   12.960000   32.160000       1.0000      1.0079
  444   2 H    1      -2.150000   11.650001   31.240002       1.0000      1.0079
  445   1 O    8     -21.030003    3.570000   15.990001       6.0000     15.9994
  446   2 H    1     -21.330002    2.570000   16.180000       1.0000      1.0079
  447   2 H    1     -20.010002    3.520000   15.820000       1.0000      1.0079
  448   1 O    8       0.090000   -7.630000   25.450001       6.0000     15.9994
  449   2 H    1      -0.030000   -6.810000   25.940001       1.0000      1.0079
  450   2 H    1      16.040001   -8.000000   25.300003       1.0000      1.0079
  451   1 O    8      20.600002   13.590001   27.140003       6.0000     15.9994
  452   2 H    1      20.820000   13.800001   28.070002       1.0000      1.0079
  453   2 H    1      20.930002   14.350000   26.639999       1.0000      1.0079
  454   1 O    8      -9.560000   -6.700000   21.170002       6.0000     15.9994
  455   2 H    1     -10.220001   -6.720000   20.400002       1.0000      1.0079
  456   2 H    1      -8.760000   -6.160001   20.930002       1.0000      1.0079
  457   1 O    8      14.280001    0.320000   19.980001       6.0000     15.9994
  458   2 H    1      15.240001    0.650000   19.960001       1.0000      1.0079
  459   2 H    1      14.280001   -0.240000   19.110001       1.0000      1.0079
  460   1 O    8      13.740001    1.010000   25.910000       6.0000     15.9994
  461   2 H    1      14.270000    1.270000   26.670000       1.0000      1.0079
  462   2 H    1      -3.730000    1.740000   25.610001       1.0000      1.0079
  463   1 O    8      -7.540000  -30.260002    9.230001       6.0000     15.9994
  464   2 H    1      -7.350000  -31.200001    9.330000       1.0000      1.0079
  465   2 H    1      -8.370000  -29.910002    8.790001       1.0000      1.0079
  466   1 O    8      22.840002    7.540000   12.530001       6.0000     15.9994
  467   2 H    1      22.730000    7.480001   13.570002       1.0000      1.0079
  468   2 H    1      23.590002    6.950001   12.310000       1.0000      1.0079
  469   1 O    8      -3.560000   -7.470000   22.190001       6.0000     15.9994
  470   2 H    1      -3.330000   -7.270000   23.160002       1.0000      1.0079
  471   2 H    1      -4.340000   -8.050001   22.280003       1.0000      1.0079
  472   1 O    8     -11.090001  -18.020000   22.260000       6.0000     15.9994
  473   2 H    1     -11.580001  -18.510000   21.580000       1.0000      1.0079
  474   2 H    1     -11.220001  -17.050001   22.090000       1.0000      1.0079
  475   1 O    8      20.200001    7.260000   11.640000       6.0000     15.9994
  476   2 H    1      20.000000    6.470000   11.100000       1.0000      1.0079
  477   2 H    1      21.150000    7.330000   11.900001       1.0000      1.0079
  478   1 O    8     -43.930000   32.940002   24.640003       6.0000     15.9994
  479   2 H    1     -44.470001   32.090000   24.620001       1.0000      1.0079
  480   2 H    1     -43.240005   32.960003   23.930000       1.0000      1.0079
  481   1 O    8       6.600000    9.580001   31.830002       6.0000     15.9994
  482   2 H    1       7.220001   10.330000   32.060001       1.0000      1.0079
  483   2 H    1       6.720000    8.640000   32.200005       1.0000      1.0079
  484   1 O    8      -0.660000   43.860001   23.690002       6.0000     15.9994
  485   2 H    1      -0.790000   43.029999   23.170002       1.0000      1.0079
  486   2 H    1      -0.030000   43.600002   24.480001       1.0000      1.0079
  487   1 O    8      13.850001   43.010002   15.340000       6.0000     15.9994
  488   2 H    1      12.860001   43.160000   14.960001       1.0000      1.0079
  489   2 H    1      14.250001   42.320004   14.730001       1.0000      1.0079
  490   1 O    8      24.020002   38.390003   16.580002       6.0000     15.9994
  491   2 H    1      23.660002   37.780003   15.920001       1.0000      1.0079
  492   2 H    1      24.560001   37.850002   17.170002       1.0000      1.0079
  493   1 O    8      -0.340000    4.860000   30.200003       6.0000     15.9994
  494   2 H    1      -9.370001   19.730000   29.440002       1.0000      1.0079
  495   2 H    1       0.030000    3.990000   29.960001       1.0000      1.0079
  496   1 O    8      27.650002   29.960001   29.760000       6.0000     15.9994
  497   2 H    1      20.140001   44.990002   29.650002       1.0000      1.0079
  498   2 H    1      18.940001   44.750004   30.700001       1.0000      1.0079
  499   1 O    8      16.150002   12.580000   22.250002       6.0000     15.9994
  500   2 H    1      15.300001   12.320002   21.760002       1.0000      1.0079
  501   2 H    1      16.820000   12.420001   21.530001       1.0000      1.0079
  502   1 O    8       3.210000    3.850000   20.030001       6.0000     15.9994
  503   2 H    1       3.910000    3.240000   20.350000       1.0000      1.0079
  504   2 H    1       2.980000    4.500000   20.770000       1.0000      1.0079
  505   1 O    8      14.450001   -8.420001   24.890001       6.0000     15.9994
[...]
    899      3      Pt         -0.00133411     0.00242440     0.01202672
    900      3      Pt         -0.00943613     0.01597570    -0.00461671
    901      3      Pt          0.00122010    -0.00062246     0.00578973
    902      3      Pt          0.01416828     0.00096850    -0.00518299
    903      3      Pt          0.00284483    -0.02164265    -0.00143345
    904      3      Pt         -0.00037029     0.00389095     0.00179936
    905      3      Pt          0.01535176     0.00552981     0.00896736
    906      3      Pt         -0.01495329     0.00570103    -0.00536198
 SUM OF ATOMIC FORCES          -0.02898312    -0.01061948    -0.00655240     0.03155517

 STRESS| Analytical stress tensor [GPa]
 STRESS|                        x                   y                   z
 STRESS|      x       -2.50445935423E+00  -2.60814031793E-01  -5.88922720182E-02
 STRESS|      y       -2.60814031793E-01  -2.61218922967E+00   3.45212196723E-01
 STRESS|      z       -5.88922720182E-02   3.45212196723E-01  -5.47839772767E-01
 STRESS| 1/3 Trace                                            -1.88816278556E+00
 STRESS| Determinant                                          -3.22864345751E+00

 STRESS| Eigenvectors and eigenvalues of the analytical stress tensor [GPa]
 STRESS|                        1                   2                   3
 STRESS| Eigenvalues  -2.84904564050E+00  -2.32883079210E+00  -4.86611924070E-01
 STRESS|      x           0.588673416073      0.806809949315     -0.050212696546
 STRESS|      y           0.801500305112     -0.574461550968      0.166105952228
 STRESS|      z          -0.105170671362      0.138027649930      0.984828664154

 -------------------------------------------------------------------------------
 -                                                                             -
 -                                DBCSR STATISTICS                             -
 -                                                                             -
 -------------------------------------------------------------------------------
 COUNTER                                    TOTAL       BLAS       SMM       ACC
 flops     5 x     5 x   288          81818438400       0.0%    100.0%      0.0%
 flops     5 x     5 x   292          82954805600       0.0%    100.0%      0.0%
 flops    13 x     5 x   288          92340218880       0.0%    100.0%      0.0%
 flops     5 x    13 x   288          92471109120       0.0%    100.0%      0.0%
 flops    13 x     5 x   292          93622721920       0.0%    100.0%      0.0%
 flops     5 x    13 x   292          93755430080       0.0%    100.0%      0.0%
 flops    20 x    13 x   288          95105986560       0.0%    100.0%      0.0%
 flops    13 x    20 x   288          95424675840       0.0%    100.0%      0.0%
 flops    20 x    13 x   292          96426903040       0.0%    100.0%      0.0%
 flops    13 x    20 x   292          96750018560       0.0%    100.0%      0.0%
 flops    13 x    13 x   288          98728231680       0.0%    100.0%      0.0%
 flops    13 x    13 x   292         100099457120       0.0%    100.0%      0.0%
 flops     5 x    20 x   288         103998643200       0.0%    100.0%      0.0%
 flops    20 x     5 x   288         104103705600       0.0%    100.0%      0.0%
 flops     5 x    20 x   292         105443068800       0.0%    100.0%      0.0%
 flops    20 x     5 x   292         105549590400       0.0%    100.0%      0.0%
 flops    20 x    20 x   288         410373734400       0.0%    100.0%      0.0%
 flops    20 x    20 x   292         416073369600       0.0%    100.0%      0.0%
 flops     5 x     5 x   320         545456256000       0.0%    100.0%      0.0%
 flops    13 x     5 x   320         615601459200       0.0%    100.0%      0.0%
 flops     5 x    13 x   320         616474060800       0.0%    100.0%      0.0%
 flops    20 x    13 x   320         634039910400       0.0%    100.0%      0.0%
 flops    13 x    20 x   320         636164505600       0.0%    100.0%      0.0%
 flops    13 x    13 x   320         658188211200       0.0%    100.0%      0.0%
 flops     5 x    20 x   320         693324288000       0.0%    100.0%      0.0%
 flops    20 x     5 x   320         694024704000       0.0%    100.0%      0.0%
 flops    20 x    20 x   320        2735824896000       0.0%    100.0%      0.0%
 flops inhomo. stacks                           0       0.0%      0.0%      0.0%
 flops total                        10.194138E+12       0.0%    100.0%      0.0%
 flops max/rank                    167.033180E+09       0.0%    100.0%      0.0%
 matmuls inhomo. stacks                         0       0.0%      0.0%      0.0%
 matmuls total                          146388160       0.0%    100.0%      0.0%
 number of processed stacks                389120       0.0%    100.0%      0.0%
 average stack size                                     0.0     376.2       0.0
 marketing flops                    28.924485E+12
 -------------------------------------------------------------------------------
 # multiplications                             76
 max memory usage/rank               1.876226E+09
 # max total images/rank                        1
 # max 3D layers                                1
 # MPI messages exchanged                   68096
 MPI messages size (bytes):
  total size                       204.500730E+09
  min size                           2.762496E+06
  max size                           3.077120E+06
  average size                       3.003124E+06
 MPI breakdown and total messages size (bytes):
             size <=      128                   0                        0
       128 < size <=     8192                   0                        0
      8192 < size <=    32768                   0                        0
     32768 < size <=   131072                   0                        0
    131072 < size <=  4194304               68096             204500800000
   4194304 < size <= 16777216                   0                        0
  16777216 < size                               0                        0
 -------------------------------------------------------------------------------
 -                                                                             -
 -                      DBCSR MESSAGE PASSING PERFORMANCE                      -
 -                                                                             -
 -------------------------------------------------------------------------------
 ROUTINE             CALLS      AVE VOLUME [Bytes]
 MP_Bcast               28                     12.
 MP_Allreduce          606                     10.
 MP_Alltoall          2128                1960074.
 MP_ISend             2432                1329597.
 MP_IRecv             2432                1310413.
 -------------------------------------------------------------------------------

 -------------------------------------------------------------------------------
 -                                                                             -
 -                                DBM STATISTICS                               -
 -                                                                             -
 -------------------------------------------------------------------------------
    M  x    N  x    K                                          COUNT     PERCENT
 -------------------------------------------------------------------------------

 -------------------------------------------------------------------------------
 -                                                                             -
 -                                GRID STATISTICS                              -
 -                                                                             -
 -------------------------------------------------------------------------------
 LP    KERNEL             BACKEND                              COUNT     PERCENT
 3     collocate general  REF                               52939548      18.94%
 3     integrate general  REF                               52300959      18.71%
 2     collocate general  REF                               49452288      17.69%
 2     integrate general  REF                               48801600      17.46%
 4     collocate general  REF                               37229056      13.32%
 4     integrate general  REF                               36739200      13.15%
 6     integrate general  REF                                 696573       0.25%
 5     integrate general  REF                                 650688       0.23%
 7     integrate general  REF                                 489856       0.18%
 0     collocate general  REF                                 115968       0.04%
 0     integrate general  REF                                  57984       0.02%
 -------------------------------------------------------------------------------

 MEMORY| Estimated peak process memory [MiB]                                2108

 -------------------------------------------------------------------------------
 ----                             MULTIGRID INFO                            ----
 -------------------------------------------------------------------------------
 count for grid        1:         731147          cutoff [a.u.]          200.00
 count for grid        2:         807253          cutoff [a.u.]           66.67
 count for grid        3:         741667          cutoff [a.u.]           22.22
 count for grid        4:         830226          cutoff [a.u.]            7.41
 total gridlevel count  :        3110293

 -------------------------------------------------------------------------------
 -                                                                             -
 -                         MESSAGE PASSING PERFORMANCE                         -
 -                                                                             -
 -------------------------------------------------------------------------------

 ROUTINE             CALLS      AVE VOLUME [Bytes]
 MP_Group                4
 MP_Bcast              252                2342720.
 MP_Allreduce         1310                   1910.
 MP_Sync                79
 MP_Alltoall          1688               13788018.
 MP_SendRecv           252                  13668.
 MP_ISendRecv        19152                 113680.
 MP_Wait             42868
 MP_ISend            22176                 340212.
 MP_IRecv            22176                 340212.
 MP_Recv               308                2460160.
 MP_Write_All            3                1540656.
 -------------------------------------------------------------------------------


 -------------------------------------------------------------------------------
 -                                                                             -
 -                           R E F E R E N C E S                               -
 -                                                                             -
 -------------------------------------------------------------------------------
 
 CP2K version 2022.1, the CP2K developers group (2022).
 CP2K is freely available from https://www.cp2k.org/ .

 Kuehne,Thomas D.; Iannuzzi,Marcella; Del Ben,Mauro;
 Rybkin,Vladimir V.; Seewald,Patrick; Stein,Frederick; Laino,Teodoro;
 Khaliullin,Rustam Z.; Schuett,Ole; Schiffmann,Florian; Golze,Dorothea;
 Wilhelm,Jan; Chulkov,Sergey; Bani-Hashemian,Mohammad Hossein;
 Weber,Valery; Borstnik,Urban; Taillefumier,Mathieu;
 Jakobovits,Alice Shoshana; Lazzaro,Alfio; Pabst,Hans; Mueller,Tiziano;
 Schade,Robert; Guidon,Manuel; Andermatt,Samuel; Holmberg,Nico;
 Schenter,Gregory K.; Hehn,Anna; Bussy,Augustin; Belleflamme,Fabian;
 Tabacchi,Gloria; Gloess,Andreas; Lass,Michael; Bethune,Iain;
 Mundy,Christopher J.; Plessl,Christian; Watkins,Matt;
 VandeVondele,Joost; Krack,Matthias; Hutter,Juerg. 
 The Journal of Chemical Physics, 152 (19), (2020). 
 CP2K: An electronic structure and molecular dynamics software package -
 Quickstep: Efficient and accurate electronic structure calculations.
 https://doi.org/10.1063/5.0007045

 Goerigk, Lars; Hansen, Andreas; Bauer, Christoph; Ehrlich, Stephan;
 Najibi, Asim; Grimme, Stefan. , 19 (48), (2017). 
 A look at the density functional theory zoo with the advanced GMTKN55 database
 for general main group thermochemistry, kinetics and noncovalent interactions.
 https://doi.org/10.1039/C7CP04913G

 Schuett, Ole; Messmer, Peter; Hutter, Juerg; VandeVondele, Joost. 
 Electronic Structure Calculations on Graphics Processing Units, John
 Wiley & Sons, Ltd, 173-190 (2016). 
 GPU-Accelerated Sparse Matrix-Matrix Multiplication for
 Linear Scaling Density Functional Theory.
 https://doi.org/10.1002/9781118670712.ch8

 Heinecke, A; Henry, G; Hutchinson, M; Pabst, H. 
 Proceedings of Intl. Supercomputing Conference, 981-991 (2016). 
 LIBXSMM: Accelerating Small Matrix Multiplications
 by Runtime Code Generation.
 https://doi.org/10.1109/SC.2016.83

 Borstnik, U; VandeVondele, J; Weber, V; Hutter, J. 
 PARALLEL COMPUTING, 40 (5-6), 47-58 (2014). 
 Sparse matrix multiplication: The distributed block-compressed sparse
 row library.
 https://doi.org/10.1016/j.parco.2014.03.012

 Hutter, J; Iannuzzi, M; Schiffmann, F; VandeVondele, J. 
 WIREs Comput Mol Sci., 4 (1), 15-25 (2014). 
 CP2K: atomistic simulations of condensed matter systems.
 https://doi.org/10.1002/wcms.1159

 Marek, A; Blum, V; Johanni, R; Havu, V; Lang, B; Auckenthaler, T;
 Heinecke, A; Bungartz, H; Lederer, H. 
 Journal of Physics: Condensed Matter, 26 (21), (2014). 
 The ELPA library: scalable parallel eigenvalue solutions for
 electronic structure
 theory and computational science.
 https://doi.org/10.1088/0953-8984/26/21/213201

 Grimme, S; Ehrlich, S; Goerigk, L. 
 JOURNAL OF COMPUTATIONAL CHEMISTRY, 32, 1456 (2011). 
 Effect of the damping function in dispersion corrected density functional theory.
 https://doi.org/10.1002/jcc.21759

 Grimme, S; Antony, J; Ehrlich, S; Krieg, H. 
 JOURNAL OF CHEMICAL PHYSICS, 132 (15), 154104 (2010). 
 A consistent and accurate ab initio parametrization of density
 functional dispersion correction (DFT-D) for the 94 elements H-Pu.
 https://doi.org/10.1063/1.3382344

 VandeVondele, J; Hutter, J. 
 JOURNAL OF CHEMICAL PHYSICS, 127 (11), 114105 (2007). 
 Gaussian basis sets for accurate calculations on molecular systems in
 gas and condensed phases.
 https://doi.org/10.1063/1.2770708

 Krack, M. 
 THEORETICAL CHEMISTRY ACCOUNTS, 114 (1-3), 145-152 (2005). 
 Pseudopotentials for H to Kr optimized for gradient-corrected
 exchange-correlation functionals.
 https://doi.org/10.1007/s00214-005-0655-y

 VandeVondele, J; Krack, M; Mohamed, F; Parrinello, M; Chassaing, T;
 Hutter, J. COMPUTER PHYSICS COMMUNICATIONS, 167 (2), 103-128 (2005). 
 QUICKSTEP: Fast and accurate density functional calculations using a
 mixed Gaussian and plane waves approach.
 https://doi.org/10.1016/j.cpc.2004.12.014

 Frigo, M; Johnson, SG. 
 PROCEEDINGS OF THE IEEE, 93 (2), 216-231 (2005). 
 The design and implementation of FFTW3.
 https://doi.org/10.1109/JPROC.2004.840301

 Hartwigsen, C; Goedecker, S; Hutter, J. 
 PHYSICAL REVIEW B, 58 (7), 3641-3662 (1998). 
 Relativistic separable dual-space Gaussian pseudopotentials from H to Rn.
 https://doi.org/10.1103/PhysRevB.58.3641

 Lippert, G; Hutter, J; Parrinello, M. 
 MOLECULAR PHYSICS, 92 (3), 477-487 (1997). 
 A hybrid Gaussian and plane wave density functional scheme.
 https://doi.org/10.1080/002689797170220

 Perdew, JP; Burke, K; Ernzerhof, M. 
 PHYSICAL REVIEW LETTERS, 77 (18), 3865-3868 (1996). 
 Generalized gradient approximation made simple.
 https://doi.org/10.1103/PhysRevLett.77.3865

 Goedecker, S; Teter, M; Hutter, J. 
 PHYSICAL REVIEW B, 54 (3), 1703-1710 (1996). 
 Separable dual-space Gaussian pseudopotentials.
 https://doi.org/10.1103/PhysRevB.54.1703


 -------------------------------------------------------------------------------
 -                                                                             -
 -                                T I M I N G                                  -
 -                                                                             -
 -------------------------------------------------------------------------------
 SUBROUTINE                       CALLS  ASD         SELF TIME        TOTAL TIME
                                MAXIMUM       AVERAGE  MAXIMUM  AVERAGE  MAXIMUM
 CP2K                                 1  1.0    0.027    0.039  900.492  900.494
 qs_forces                            1  2.0    0.002    0.002  900.098  900.101
 qs_energies                          1  3.0    0.000    0.000  887.624  887.632
 scf_env_do_scf                       1  4.0    0.000    0.000  879.295  879.534
 scf_env_do_scf_inner_loop           75  5.0    0.004    0.013  879.295  879.534
 qs_scf_new_mos                      75  6.0    0.005    0.012  358.400  358.902
 eigensolver                         75  7.0    0.007    0.010  333.110  333.566
 rebuild_ks_matrix                   76  7.0    0.000    0.000  278.223  278.263
 qs_ks_build_kohn_sham_matrix        76  8.0    0.012    0.013  278.223  278.262
 qs_ks_update_qs_env                 75  6.0    0.001    0.001  270.243  270.282
 qs_rho_update_rho_low               76  6.0    0.001    0.001  237.519  237.546
 calculate_rho_elec                  76  7.0    0.178    0.211  237.518  237.545
 sum_up_and_integrate                76  9.0    0.321    0.397  233.526  233.572
 integrate_v_rspace                  76 10.0    0.003    0.007  233.205  233.284
 grid_collocate_task_list            76  8.0  208.736  214.550  208.736  214.550
 grid_integrate_task_list            76 11.0  203.631  209.134  203.631  209.134
 cp_fm_diag_elpa                     75  8.0    0.001    0.001  195.644  196.143
 cp_fm_diag_elpa_base                75  9.0  192.659  193.370  195.325  195.422
 cp_fm_triangular_multiply          225  8.0  134.703  136.575  134.703  136.575
 pw_transfer                       1520 10.9    0.108    0.138   41.982   42.799
 fft_wrap_pw1pw2                   1368 12.0    0.013    0.016   41.502   42.288
 rs_pw_transfer                     612 10.5    0.007    0.008   37.111   42.116
 fft_wrap_pw1pw2_200                912 13.3    3.757    4.029   40.010   40.859
 qs_vxc_create                       76  9.0    0.002    0.003   39.404   39.626
 xc_vxc_pw_create                    76 10.0    0.698    0.733   39.401   39.624
 fft3d_ps                          1368 14.0   15.102   16.987   30.597   31.644
 density_rs2pw                       76  8.0    0.005    0.006   26.410   31.642
 xc_pw_derive                       456 12.0    0.008    0.009   25.094   26.328
 xc_rho_set_and_dset_create          76 11.0    0.370    0.395   21.253   22.651
 potential_pw2rs                     76 11.0    0.028    0.034   21.911   21.977
 mp_waitany                       22176 12.4   16.056   21.753   16.056   21.753
 rs_pw_transfer_RS2PW_200            78 10.0    4.938    5.494   14.866   19.871
 calculate_dm_sparse                 75  7.0    0.023    0.029   18.409   19.031
 cp_dbcsr_plus_fm_fm_t_native        76  8.0    0.004    0.008   18.358   19.031
 -------------------------------------------------------------------------------

 The number of warnings for this run is : 1
 
 -------------------------------------------------------------------------------
  **** **** ******  **  PROGRAM ENDED AT                 2023-11-26 18:25:52.145
 ***** ** ***  *** **   PROGRAM RAN ON                                     cu054
 **    ****   ******    PROGRAM RAN BY                                     jxzhu
 ***** **    ** ** **   PROGRAM PROCESS ID                                 52743
  **** **  *******  **  PROGRAM STOPPED IN /public/home/jxzhu/tmp_calc/af2075565
                                           805657d94fa4669dad6f4b174b0a4fb/calc/
                                           003200.000/pbc
