 DBCSR| CPU Multiplication driver                                           XSMM
 DBCSR| Multrec recursion limit                                              512
 DBCSR| Multiplication stack size                                           1000
 DBCSR| Maximum elements for images                                    UNLIMITED
 DBCSR| Multiplicative factor virtual images                                   1
 DBCSR| Use multiplication densification                                       T
 DBCSR| Multiplication size stacks                                             3
 DBCSR| Use memory pool for CPU allocation                                     F
 DBCSR| Number of 3D layers                                               SINGLE
 DBCSR| Use MPI memory allocation                                              F
 DBCSR| Use RMA algorithm                                                      F
 DBCSR| Use Communication thread                                               T
 DBCSR| Communication thread load                                             87
 DBCSR| MPI: My node id                                                        0
 DBCSR| MPI: Number of nodes                                                  32
 DBCSR| OMP: Current number of threads                                         1
 DBCSR| OMP: Max number of threads                                             1
 DBCSR| Split modifier for TAS multiplication algorithm                  1.0E+00


  **** **** ******  **  PROGRAM STARTED AT               2023-12-03 02:33:45.757
 ***** ** ***  *** **   PROGRAM STARTED ON                                 cu042
 **    ****   ******    PROGRAM STARTED BY                                 jxzhu
 ***** **    ** ** **   PROGRAM PROCESS ID                                  7777
  **** **  *******  **  PROGRAM STARTED IN /public/home/jxzhu/tmp_calc/04c0855f9
                                           8753fac23fde4df51ba20f3741a9e9a/calc/
                                           task.001.000025

 CP2K| version string:                                       CP2K version 2022.1
 CP2K| source code revision number:                                  git:2caeb6f
 CP2K| cp2kflags: omp libint fftw3 libxc elpa parallel mpi3 scalapack cosma xsmm
 CP2K|             plumed2 spglib mkl sirius libvori libbqb
 CP2K| is freely available from                            https://www.cp2k.org/
 CP2K| Program compiled at                           Mon Jul 3 17:37:06 CST 2023
 CP2K| Program compiled on                                                 mu003
 CP2K| Program compiled for                                                local
 CP2K| Data directory path                             /public/home/jxzhu/basis/
 CP2K| Input file name                                                 input.inp
 
 GLOBAL| Force Environment number                                              1
 GLOBAL| Basis set file name                                        BASIS_MOLOPT
 GLOBAL| Potential file name                                      GTH_POTENTIALS
 GLOBAL| MM Potential file name                                     MM_POTENTIAL
 GLOBAL| Coordinate file name                                          coord.xyz
 GLOBAL| Method name                                                        CP2K
 GLOBAL| Project name                                                       cp2k
 GLOBAL| Run type                                                   ENERGY_FORCE
 GLOBAL| FFT library                                                       FFTW3
 GLOBAL| Diagonalization library                                            ELPA
 GLOBAL| Minimum number of eigenvectors for ELPA usage                        16
 GLOBAL| Orthonormality check for eigenvectors                          DISABLED
 GLOBAL| Matrix multiplication library                                     COSMA
 GLOBAL| All-to-all communication in single precision                          F
 GLOBAL| FFTs using library dependent lengths                                  T
 GLOBAL| Grid backend                                                       AUTO
 GLOBAL| Global print level                                               MEDIUM
 GLOBAL| MPI I/O enabled                                                       T
 GLOBAL| Total number of message passing processes                            32
 GLOBAL| Number of threads for this process                                    1
 GLOBAL| This output is from process                                           0
 GLOBAL| Stack size for threads created by OpenMP (OMP_STACKSIZE)        default
 GLOBAL| CPU model name                 Intel(R) Xeon(R) Gold 6338 CPU @ 2.00GHz
 GLOBAL| CPUID                                                              1003

 MEMORY| system memory details [Kb]
 MEMORY|                        rank 0           min           max       average
 MEMORY| MemTotal            263619172     263619172     263619172     263619172
 MEMORY| MemFree             178605384     178605384     178605384     178605384
 MEMORY| Buffers                  3320          3320          3320          3320
 MEMORY| Cached                7687960       7687960       7687960       7687960
 MEMORY| Slab                  1945188       1945188       1945188       1945188
 MEMORY| SReclaimable           246836        246836        246836        246836
 MEMORY| MemLikelyFree       186543500     186543500     186543500     186543500


 *** Fundamental physical constants (SI units) ***

 *** Literature: B. J. Mohr and B. N. Taylor,
 ***             CODATA recommended values of the fundamental physical
 ***             constants: 2006, Web Version 5.1
 ***             http://physics.nist.gov/constants

 Speed of light in vacuum [m/s]                             2.99792458000000E+08
 Magnetic constant or permeability of vacuum [N/A**2]       1.25663706143592E-06
 Electric constant or permittivity of vacuum [F/m]          8.85418781762039E-12
 Planck constant (h) [J*s]                                  6.62606896000000E-34
 Planck constant (h-bar) [J*s]                              1.05457162825177E-34
 Elementary charge [C]                                      1.60217648700000E-19
 Electron mass [kg]                                         9.10938215000000E-31
 Electron g factor [ ]                                     -2.00231930436220E+00
 Proton mass [kg]                                           1.67262163700000E-27
 Fine-structure constant                                    7.29735253760000E-03
 Rydberg constant [1/m]                                     1.09737315685270E+07
 Avogadro constant [1/mol]                                  6.02214179000000E+23
 Boltzmann constant [J/K]                                   1.38065040000000E-23
 Atomic mass unit [kg]                                      1.66053878200000E-27
 Bohr radius [m]                                            5.29177208590000E-11

 *** Conversion factors ***

 [u] -> [a.u.]                                              1.82288848426455E+03
 [Angstrom] -> [Bohr] = [a.u.]                              1.88972613288564E+00
 [a.u.] = [Bohr] -> [Angstrom]                              5.29177208590000E-01
 [a.u.] -> [s]                                              2.41888432650478E-17
 [a.u.] -> [fs]                                             2.41888432650478E-02
 [a.u.] -> [J]                                              4.35974393937059E-18
 [a.u.] -> [N]                                              8.23872205491840E-08
 [a.u.] -> [K]                                              3.15774647902944E+05
 [a.u.] -> [kJ/mol]                                         2.62549961709828E+03
 [a.u.] -> [kcal/mol]                                       6.27509468713739E+02
 [a.u.] -> [Pa]                                             2.94210107994716E+13
 [a.u.] -> [bar]                                            2.94210107994716E+08
 [a.u.] -> [atm]                                            2.90362800883016E+08
 [a.u.] -> [eV]                                             2.72113838565563E+01
 [a.u.] -> [Hz]                                             6.57968392072181E+15
 [a.u.] -> [1/cm] (wave numbers)                            2.19474631370540E+05
 [a.u./Bohr**2] -> [1/cm]                                   5.14048714338585E+03
 

 CELL_TOP| Volume [angstrom^3]:                                     12686.086737
 CELL_TOP| Vector a [angstrom    16.869     0.000     0.000   |a| =    16.869000
 CELL_TOP| Vector b [angstrom    -8.434    14.609     0.000   |b| =    16.868929
 CELL_TOP| Vector c [angstrom     0.000     0.000    51.478   |c| =    51.477900
 CELL_TOP| Angle (b,c), alpha [degree]:                                90.000000
 CELL_TOP| Angle (a,c), beta  [degree]:                                90.000000
 CELL_TOP| Angle (a,b), gamma [degree]:                               120.000140
 CELL_TOP| Numerically orthorhombic:                                          NO
 
 GENERATE|  Preliminary Number of Bonds generated:                             0
 GENERATE|  Achieved consistency in connectivity generation.

 CELL| Volume [angstrom^3]:                                         12686.086737
 CELL| Vector a [angstrom]:      16.869     0.000     0.000   |a| =    16.869000
 CELL| Vector b [angstrom]:      -8.434    14.609     0.000   |b| =    16.868929
 CELL| Vector c [angstrom]:       0.000     0.000    51.478   |c| =    51.477900
 CELL| Angle (b,c), alpha [degree]:                                    90.000000
 CELL| Angle (a,c), beta  [degree]:                                    90.000000
 CELL| Angle (a,b), gamma [degree]:                                   120.000140
 CELL| Numerically orthorhombic:                                              NO

 CELL_REF| Volume [angstrom^3]:                                     12686.086737
 CELL_REF| Vector a [angstrom    16.869     0.000     0.000   |a| =    16.869000
 CELL_REF| Vector b [angstrom    -8.434    14.609     0.000   |b| =    16.868929
 CELL_REF| Vector c [angstrom     0.000     0.000    51.478   |c| =    51.477900
 CELL_REF| Angle (b,c), alpha [degree]:                                90.000000
 CELL_REF| Angle (a,c), beta  [degree]:                                90.000000
 CELL_REF| Angle (a,b), gamma [degree]:                               120.000140
 CELL_REF| Numerically orthorhombic:                                          NO

 *******************************************************************************
 *******************************************************************************
 **                                                                           **
 **     #####                         ##              ##                      **
 **    ##   ##            ##          ##              ##                      **
 **   ##     ##                       ##            ######                    **
 **   ##     ##  ##   ##  ##   #####  ##  ##   ####   ##    #####    #####    **
 **   ##     ##  ##   ##  ##  ##      ## ##   ##      ##   ##   ##  ##   ##   **
 **   ##  ## ##  ##   ##  ##  ##      ####     ###    ##   ######   ######    **
 **    ##  ###   ##   ##  ##  ##      ## ##      ##   ##   ##       ##        **
 **     #######   #####   ##   #####  ##  ##  ####    ##    #####   ##        **
 **           ##                                                    ##        **
 **                                                                           **
 **                                                ... make the atoms dance   **
 **                                                                           **
 **            Copyright (C) by CP2K developers group (2000-2022)             **
 **                      J. Chem. Phys. 152, 194103 (2020)                    **
 **                                                                           **
 *******************************************************************************

 DFT| Spin restricted Kohn-Sham (RKS) calculation                            RKS
 DFT| Multiplicity                                                             1
 DFT| Number of spin states                                                    1
 DFT| Charge                                                                   0
 DFT| Self-interaction correction (SIC)                                       NO
 DFT| Cutoffs: density                                              1.000000E-10
 DFT|          gradient                                             1.000000E-10
 DFT|          tau                                                  1.000000E-10
 DFT|          cutoff_smoothing_range                               0.000000E+00
 DFT| XC density smoothing                                                  NONE
 DFT| XC derivatives                                                          PW

 FUNCTIONAL| PBE:
 FUNCTIONAL| J.P.Perdew, K.Burke, M.Ernzerhof, Phys. Rev. Letter, vol. 77, n 18,
 FUNCTIONAL|  pp. 3865-3868, (1996){spin unpolarized}                           

 vdW POTENTIAL|                                                   Pair Potential
 vdW POTENTIAL|          DFT-D3 (Version 3.1)
 vdW POTENTIAL|          Potential Form: S. Grimme et al, JCP 132: 154104 (2010)
 vdW POTENTIAL|          Zero Damping
 vdW POTENTIAL|          Cutoff Radius [Bohr]:                             20.00
 vdW POTENTIAL|          s6 Scaling Factor:                               1.0000
 vdW POTENTIAL|          sr6 Scaling Factor:                              1.2170
 vdW POTENTIAL|          s8 Scaling Factor:                               0.7220
 vdW POTENTIAL|          Cutoff for CN calculation:                   0.1000E-05

 QS| Method:                                                                 GPW
 QS| Density plane wave grid type                        NON-SPHERICAL FULLSPACE
 QS| Number of grid levels:                                                    4
 QS| Density cutoff [a.u.]:                                                200.0
 QS| Multi grid cutoff [a.u.]: 1) grid level                               200.0
 QS|                           2) grid level                                66.7
 QS|                           3) grid level                                22.2
 QS|                           4) grid level                                 7.4
 QS| Grid level progression factor:                                          3.0
 QS| Relative density cutoff [a.u.]:                                        20.0
 QS| Interaction thresholds: eps_pgf_orb:                                3.2E-07
 QS|                         eps_filter_matrix:                          0.0E+00
 QS|                         eps_core_charge:                            1.0E-15
 QS|                         eps_rho_gspace:                             1.0E-13
 QS|                         eps_rho_rspace:                             1.0E-13
 QS|                         eps_gvg_rspace:                             3.2E-07
 QS|                         eps_ppl:                                    1.0E-02
 QS|                         eps_ppnl:                                   3.2E-09


 ATOMIC KIND INFORMATION

  1. Atomic kind: Pt                                    Number of atoms:     216

     Orbital Basis Set                      DZVP-A5-Q10-323-MOL-T1-DERIVED_SET-1

       Number of orbital shell sets:                                           1
       Number of orbital shells:                                               6
       Number of primitive Cartesian functions:                                5
       Number of Cartesian basis functions:                                   23
       Number of spherical basis functions:                                   20
       Norm type:                                                              2

       Normalised Cartesian orbitals:

                        Set   Shell   Orbital            Exponent    Coefficient

                          1       1    2s                2.521825       0.177473
                                                         1.453920      -0.063399
                                                         0.614053      -0.407089
                                                         0.232656       0.262254
                                                         0.074788       0.047371

                          1       2    3s                2.521825      -0.049056
                                                         1.453920       0.044904
                                                         0.614053      -0.009756
                                                         0.232656      -0.144709
                                                         0.074788       0.144085

                          1       3    3px               2.521825      -0.317572
                                                         1.453920       0.534826
                                                         0.614053      -0.489458
                                                         0.232656       0.245631
                                                         0.074788       0.018221
                          1       3    3py               2.521825      -0.317572
                                                         1.453920       0.534826
                                                         0.614053      -0.489458
                                                         0.232656       0.245631
                                                         0.074788       0.018221
                          1       3    3pz               2.521825      -0.317572
                                                         1.453920       0.534826
                                                         0.614053      -0.489458
                                                         0.232656       0.245631
                                                         0.074788       0.018221

                          1       4    4dx2              2.521825       3.008522
                                                         1.453920      -1.224251
                                                         0.614053       0.225691
                                                         0.232656       0.125144
                                                         0.074788      -0.015348
                          1       4    4dxy              2.521825       5.210912
                                                         1.453920      -2.120465
                                                         0.614053       0.390909
                                                         0.232656       0.216756
                                                         0.074788      -0.026584
                          1       4    4dxz              2.521825       5.210912
                                                         1.453920      -2.120465
                                                         0.614053       0.390909
                                                         0.232656       0.216756
                                                         0.074788      -0.026584
                          1       4    4dy2              2.521825       3.008522
                                                         1.453920      -1.224251
                                                         0.614053       0.225691
                                                         0.232656       0.125144
                                                         0.074788      -0.015348
                          1       4    4dyz              2.521825       5.210912
                                                         1.453920      -2.120465
                                                         0.614053       0.390909
                                                         0.232656       0.216756
                                                         0.074788      -0.026584
                          1       4    4dz2              2.521825       3.008522
                                                         1.453920      -1.224251
                                                         0.614053       0.225691
                                                         0.232656       0.125144
                                                         0.074788      -0.015348

                          1       5    5dx2              2.521825       0.698026
                                                         1.453920      -1.511486
                                                         0.614053      -0.335394
                                                         0.232656      -0.025564
                                                         0.074788      -0.002699
                          1       5    5dxy              2.521825       1.209017
                                                         1.453920      -2.617970
                                                         0.614053      -0.580920
                                                         0.232656      -0.044277
                                                         0.074788      -0.004674
                          1       5    5dxz              2.521825       1.209017
                                                         1.453920      -2.617970
                                                         0.614053      -0.580920
                                                         0.232656      -0.044277
                                                         0.074788      -0.004674
                          1       5    5dy2              2.521825       0.698026
                                                         1.453920      -1.511486
                                                         0.614053      -0.335394
                                                         0.232656      -0.025564
                                                         0.074788      -0.002699
                          1       5    5dyz              2.521825       1.209017
                                                         1.453920      -2.617970
                                                         0.614053      -0.580920
                                                         0.232656      -0.044277
                                                         0.074788      -0.004674
                          1       5    5dz2              2.521825       0.698026
                                                         1.453920      -1.511486
                                                         0.614053      -0.335394
                                                         0.232656      -0.025564
                                                         0.074788      -0.002699

                          1       6    6dx2              2.521825       0.831079
                                                         1.453920      -0.709226
                                                         0.614053      -0.137351
                                                         0.232656       0.068642
                                                         0.074788       0.011745
                          1       6    6dxy              2.521825       1.439472
                                                         1.453920      -1.228415
                                                         0.614053      -0.237899
                                                         0.232656       0.118891
                                                         0.074788       0.020343
                          1       6    6dxz              2.521825       1.439472
                                                         1.453920      -1.228415
                                                         0.614053      -0.237899
                                                         0.232656       0.118891
                                                         0.074788       0.020343
                          1       6    6dy2              2.521825       0.831079
                                                         1.453920      -0.709226
                                                         0.614053      -0.137351
                                                         0.232656       0.068642
                                                         0.074788       0.011745
                          1       6    6dyz              2.521825       1.439472
                                                         1.453920      -1.228415
                                                         0.614053      -0.237899
                                                         0.232656       0.118891
                                                         0.074788       0.020343
                          1       6    6dz2              2.521825       0.831079
                                                         1.453920      -0.709226
                                                         0.614053      -0.137351
                                                         0.232656       0.068642
                                                         0.074788       0.011745

       Atomic covalent radius [Angstrom]:                                  1.300

       Atomic van der Waals radius [Angstrom]:                             1.750

     GTH Potential information for                                   GTH-PBE-q10

       Description:                       Goedecker-Teter-Hutter pseudopotential
                                           Goedecker et al., PRB 54, 1703 (1996)
                                          Hartwigsen et al., PRB 58, 3641 (1998)
                                                      Krack, TCA 114, 145 (2005)

       Gaussian exponent of the core charge distribution:               1.317676
       Electronic configuration (s p d ...):                           1   0   9

       Parameters of the local part of the GTH pseudopotential:

                          rloc        C1          C2          C3          C4
                        0.616000   11.313635

       Parameters of the non-local part of the GTH pseudopotential:

                   l      r(l)      h(i,j,l)

                   0    0.550904    4.733491   -1.784594
                                   -1.784594    2.303901
                   1    0.674138    2.534798   -1.778066
                                   -1.778066    2.103836
                   2    0.457392   -7.264011    2.558665
                                    2.558665   -2.901253


 MOLECULE KIND INFORMATION


 All atoms are their own molecule, skipping detailed information


 TOTAL NUMBERS AND MAXIMUM NUMBERS

  Total number of            - Atomic kinds:                                   1
                             - Atoms:                                        216
                             - Shell sets:                                   216
                             - Shells:                                      1296
                             - Primitive Cartesian functions:               1080
                             - Cartesian basis functions:                   4968
                             - Spherical basis functions:                   4320

  Maximum angular momentum of- Orbital basis functions:                        2
                             - Local part of the GTH pseudopotential:          0
                             - Non-local part of the GTH pseudopotential:      4


 MODULE QUICKSTEP:  ATOMIC COORDINATES IN angstrom

 Atom  Kind  Element       X           Y           Z          Z(eff)       Mass
    1   1 Pt  78       2.168370    0.714470   19.834935      10.0000    195.0840
    2   1 Pt  78       5.028370    0.794470   19.844937      10.0000    195.0840
    3   1 Pt  78       7.758370    0.664470   20.064934      10.0000    195.0840
    4   1 Pt  78      10.628370    0.604470   19.914937      10.0000    195.0840
    5   1 Pt  78      13.458370    0.584470   19.774937      10.0000    195.0840
    6   1 Pt  78      16.238372    0.614470   19.994935      10.0000    195.0840
    7   1 Pt  78       3.448370    3.024470   19.774937      10.0000    195.0840
    8   1 Pt  78       6.588370    3.014470   19.824933      10.0000    195.0840
    9   1 Pt  78       9.298370    3.034469   19.994935      10.0000    195.0840
   10   1 Pt  78      12.088370    2.964470   19.784936      10.0000    195.0840
   11   1 Pt  78      14.818371    3.124470   19.944935      10.0000    195.0840
   12   1 Pt  78       0.678370    3.074470   19.914937      10.0000    195.0840
   13   1 Pt  78       5.058371    5.364470   19.914937      10.0000    195.0840
   14   1 Pt  78       7.898370    5.474470   20.054936      10.0000    195.0840
   15   1 Pt  78      10.688371    5.504470   19.754933      10.0000    195.0840
   16   1 Pt  78      13.498371    5.474470   19.904935      10.0000    195.0840
   17   1 Pt  78      -0.641630    5.434470   19.984936      10.0000    195.0840
   18   1 Pt  78       2.148370    5.394470   19.914937      10.0000    195.0840
   19   1 Pt  78       6.358370    7.964470   19.804932      10.0000    195.0840
   20   1 Pt  78       9.138370    7.954470   19.894932      10.0000    195.0840
   21   1 Pt  78      11.958370    7.874470   19.984936      10.0000    195.0840
   22   1 Pt  78      -2.161630    7.984470   19.924935      10.0000    195.0840
   23   1 Pt  78       0.738370    8.004470   20.004937      10.0000    195.0840
   24   1 Pt  78       3.528370    7.794470   19.834935      10.0000    195.0840
   25   1 Pt  78       7.718371   10.334471   19.834935      10.0000    195.0840
   26   1 Pt  78      10.428370   10.364470   19.784936      10.0000    195.0840
   27   1 Pt  78      -3.471630   10.504470   19.814934      10.0000    195.0840
   28   1 Pt  78      -0.681630   10.314470   19.804932      10.0000    195.0840
   29   1 Pt  78       2.198370   10.334471   20.124936      10.0000    195.0840
   30   1 Pt  78       4.938371   10.414471   19.874936      10.0000    195.0840
   31   1 Pt  78       9.138370   12.814470   19.724934      10.0000    195.0840
   32   1 Pt  78      -4.851630   12.934470   19.804932      10.0000    195.0840
   33   1 Pt  78      -2.091630   12.814470   19.864934      10.0000    195.0840
   34   1 Pt  78       0.688370   12.814470   19.964932      10.0000    195.0840
   35   1 Pt  78       3.678370   12.854470   20.004937      10.0000    195.0840
   36   1 Pt  78       6.378370   12.754471   19.974934      10.0000    195.0840
   37   1 Pt  78       0.698370    1.334470   22.244935      10.0000    195.0840
   38   1 Pt  78       3.468370    1.334470   22.144936      10.0000    195.0840
   39   1 Pt  78       6.338371    1.294470   22.334935      10.0000    195.0840
   40   1 Pt  78       9.138370    1.204470   22.304932      10.0000    195.0840
   41   1 Pt  78      11.948371    1.284470   22.204934      10.0000    195.0840
   42   1 Pt  78      14.698371    1.324470   22.324933      10.0000    195.0840
   43   1 Pt  78       2.078370    3.684470   22.294934      10.0000    195.0840
   44   1 Pt  78       4.908370    3.774470   22.214936      10.0000    195.0840
   45   1 Pt  78       7.648371    3.674470   22.224934      10.0000    195.0840
   46   1 Pt  78      10.558371    3.664470   22.374936      10.0000    195.0840
   47   1 Pt  78      13.348371    3.804470   22.324933      10.0000    195.0840
   48   1 Pt  78      -0.681630    3.764470   22.344937      10.0000    195.0840
   49   1 Pt  78       3.538370    6.144470   22.354935      10.0000    195.0840
   50   1 Pt  78       6.308371    6.194470   22.264935      10.0000    195.0840
   51   1 Pt  78       9.118371    6.054470   22.304932      10.0000    195.0840
   52   1 Pt  78      12.118371    6.154470   22.294934      10.0000    195.0840
   53   1 Pt  78      -1.921630    6.294470   22.344937      10.0000    195.0840
   54   1 Pt  78       0.838370    6.144470   22.314934      10.0000    195.0840
   55   1 Pt  78       4.978370    8.604470   22.214936      10.0000    195.0840
   56   1 Pt  78       7.708370    8.574469   22.244935      10.0000    195.0840
   57   1 Pt  78      10.578370    8.644470   22.214936      10.0000    195.0840
   58   1 Pt  78      -3.461630    8.634470   22.234933      10.0000    195.0840
   59   1 Pt  78      -0.631630    8.624470   22.324933      10.0000    195.0840
   60   1 Pt  78       2.158370    8.524470   22.284936      10.0000    195.0840
   61   1 Pt  78       6.258370   11.004470   22.324933      10.0000    195.0840
   62   1 Pt  78       9.098371   11.024470   22.104935      10.0000    195.0840
   63   1 Pt  78      -4.981630   11.104471   22.034936      10.0000    195.0840
   64   1 Pt  78      -2.141630   10.964470   22.174935      10.0000    195.0840
   65   1 Pt  78       0.638370   11.044470   22.334935      10.0000    195.0840
   66   1 Pt  78       3.508370   11.064470   22.404935      10.0000    195.0840
   67   1 Pt  78       7.678370   13.444470   22.314934      10.0000    195.0840
   68   1 Pt  78      -6.331630   13.554471   22.094933      10.0000    195.0840
   69   1 Pt  78      -3.461630   13.534469   22.144936      10.0000    195.0840
   70   1 Pt  78      -0.761630   13.384470   22.294934      10.0000    195.0840
   71   1 Pt  78       2.108370   13.474470   22.294934      10.0000    195.0840
   72   1 Pt  78       4.828371   13.564470   22.374936      10.0000    195.0840
   73   1 Pt  78      -7.771630   14.264471   24.544934      10.0000    195.0840
   74   1 Pt  78      -4.961630   14.184470   24.404935      10.0000    195.0840
   75   1 Pt  78      -2.081630   14.134470   24.534936      10.0000    195.0840
   76   1 Pt  78       0.668370   14.074470   24.644932      10.0000    195.0840
   77   1 Pt  78       3.468370   14.194471   24.654935      10.0000    195.0840
   78   1 Pt  78       6.328370   14.204470   24.674935      10.0000    195.0840
   79   1 Pt  78       2.098370    2.164470   24.574933      10.0000    195.0840
   80   1 Pt  78       4.868370    2.084470   24.574933      10.0000    195.0840
   81   1 Pt  78       7.738370    2.064470   24.754933      10.0000    195.0840
   82   1 Pt  78      10.508370    1.874470   24.614934      10.0000    195.0840
   83   1 Pt  78      13.398371    2.034470   24.724938      10.0000    195.0840
   84   1 Pt  78      -0.681630    2.074470   24.584935      10.0000    195.0840
   85   1 Pt  78       3.578371    4.474470   24.544934      10.0000    195.0840
   86   1 Pt  78       6.298370    4.494470   24.604935      10.0000    195.0840
   87   1 Pt  78       9.168370    4.494470   24.644932      10.0000    195.0840
   88   1 Pt  78      11.888370    4.504470   24.644932      10.0000    195.0840
   89   1 Pt  78      -2.131630    4.474470   24.604935      10.0000    195.0840
   90   1 Pt  78       0.728370    4.484470   24.604935      10.0000    195.0840
   91   1 Pt  78       4.968370    6.974470   24.624936      10.0000    195.0840
   92   1 Pt  78       7.718371    6.864470   24.594937      10.0000    195.0840
   93   1 Pt  78      10.508370    7.024470   24.464936      10.0000    195.0840
   94   1 Pt  78      -3.621630    6.894470   24.644932      10.0000    195.0840
   95   1 Pt  78      -0.671630    6.894470   24.684933      10.0000    195.0840
   96   1 Pt  78       2.148370    6.794470   24.554936      10.0000    195.0840
   97   1 Pt  78       6.338371    9.414471   24.604935      10.0000    195.0840
   98   1 Pt  78       9.108371    9.364469   24.494935      10.0000    195.0840
   99   1 Pt  78      -4.901630    9.394470   24.444935      10.0000    195.0840
  100   1 Pt  78      -2.101630    9.294470   24.464936      10.0000    195.0840
  101   1 Pt  78       0.788370    9.314470   24.634934      10.0000    195.0840
  102   1 Pt  78       3.548370    9.344470   24.644932      10.0000    195.0840
  103   1 Pt  78       7.708370   11.824469   24.644932      10.0000    195.0840
  104   1 Pt  78      -6.391630   11.824469   24.454934      10.0000    195.0840
  105   1 Pt  78      -3.481630   11.774469   24.524937      10.0000    195.0840
  106   1 Pt  78      -0.711630   11.664471   24.524937      10.0000    195.0840
  107   1 Pt  78       2.068370   11.764471   24.744935      10.0000    195.0840
  108   1 Pt  78       4.878370   11.854470   24.614934      10.0000    195.0840
  109   1 Pt  78       2.068370    0.434470   26.742933      10.0000    195.0840
  110   1 Pt  78       4.948370    0.374470   26.742933      10.0000    195.0840
  111   1 Pt  78       7.718371    0.404470   26.892933      10.0000    195.0840
  112   1 Pt  78      10.398371    0.364470   26.992933      10.0000    195.0840
  113   1 Pt  78      13.278371    0.344470   26.962933      10.0000    195.0840
  114   1 Pt  78      16.078371    0.374470   26.912933      10.0000    195.0840
  115   1 Pt  78       3.508370    2.714470   26.852933      10.0000    195.0840
  116   1 Pt  78       6.248371    2.894470   26.942933      10.0000    195.0840
  117   1 Pt  78       9.038370    2.884470   26.972933      10.0000    195.0840
  118   1 Pt  78      11.818371    2.794470   26.992933      10.0000    195.0840
  119   1 Pt  78      14.708371    2.804469   27.012933      10.0000    195.0840
  120   1 Pt  78       0.698370    2.744470   26.982933      10.0000    195.0840
  121   1 Pt  78       4.898370    5.264470   26.912933      10.0000    195.0840
  122   1 Pt  78       7.648371    5.414470   26.932933      10.0000    195.0840
  123   1 Pt  78      10.428370    5.314470   26.892933      10.0000    195.0840
  124   1 Pt  78      13.208370    5.124470   26.862933      10.0000    195.0840
  125   1 Pt  78      -0.751630    5.174470   26.882933      10.0000    195.0840
  126   1 Pt  78       2.188370    5.184470   26.842933      10.0000    195.0840
  127   1 Pt  78       6.298370    7.744470   26.912933      10.0000    195.0840
  128   1 Pt  78       9.108371    7.774470   26.892933      10.0000    195.0840
  129   1 Pt  78      11.868371    7.664470   26.892933      10.0000    195.0840
  130   1 Pt  78      -2.201630    7.644470   26.922933      10.0000    195.0840
  131   1 Pt  78       0.648370    7.584470   26.952933      10.0000    195.0840
  132   1 Pt  78       3.538370    7.734470   26.892933      10.0000    195.0840
  133   1 Pt  78       7.698370   10.264469   26.852933      10.0000    195.0840
  134   1 Pt  78      10.448371   10.154470   26.752933      10.0000    195.0840
  135   1 Pt  78      -3.541630    9.994470   26.782933      10.0000    195.0840
  136   1 Pt  78      -0.741630   10.024470   26.932933      10.0000    195.0840
  137   1 Pt  78       1.988370   10.154470   27.002933      10.0000    195.0840
  138   1 Pt  78       4.808371   10.114469   26.862933      10.0000    195.0840
  139   1 Pt  78       9.088370   12.594470   26.872933      10.0000    195.0840
  140   1 Pt  78      -5.021630   12.514470   26.632933      10.0000    195.0840
  141   1 Pt  78      -2.161630   12.534470   26.872933      10.0000    195.0840
  142   1 Pt  78       0.568370   12.474470   26.952933      10.0000    195.0840
  143   1 Pt  78       3.378370   12.584471   27.032933      10.0000    195.0840
  144   1 Pt  78       6.138370   12.624470   26.962933      10.0000    195.0840
  145   1 Pt  78       0.568370    1.134470   29.242933      10.0000    195.0840
  146   1 Pt  78       3.388370    1.114470   29.092933      10.0000    195.0840
  147   1 Pt  78       6.178370    1.134470   29.132933      10.0000    195.0840
  148   1 Pt  78       8.998370    1.194470   29.302933      10.0000    195.0840
  149   1 Pt  78      11.768371    1.144470   29.402933      10.0000    195.0840
  150   1 Pt  78      14.578371    1.194470   29.312933      10.0000    195.0840
  151   1 Pt  78       2.058370    3.634470   29.232933      10.0000    195.0840
  152   1 Pt  78       4.818370    3.604470   29.222933      10.0000    195.0840
  153   1 Pt  78       7.598371    3.574470   29.232933      10.0000    195.0840
  154   1 Pt  78      10.348371    3.724470   29.212933      10.0000    195.0840
  155   1 Pt  78      13.168371    3.584470   29.212933      10.0000    195.0840
  156   1 Pt  78      -0.771630    3.514470   29.262933      10.0000    195.0840
  157   1 Pt  78       3.458370    6.014470   29.212933      10.0000    195.0840
  158   1 Pt  78       6.178370    5.904469   29.272933      10.0000    195.0840
  159   1 Pt  78       8.988371    6.124470   29.242933      10.0000    195.0840
  160   1 Pt  78      11.818371    6.024470   29.282933      10.0000    195.0840
  161   1 Pt  78      -2.211630    5.924470   29.132933      10.0000    195.0840
  162   1 Pt  78       0.638370    6.024470   29.242933      10.0000    195.0840
  163   1 Pt  78       4.808371    8.504470   29.192933      10.0000    195.0840
  164   1 Pt  78       7.638370    8.394470   29.182933      10.0000    195.0840
  165   1 Pt  78      10.518371    8.484470   29.192933      10.0000    195.0840
  166   1 Pt  78      -3.571630    8.324470   29.272933      10.0000    195.0840
  167   1 Pt  78      -0.901630    8.404470   29.192933      10.0000    195.0840
  168   1 Pt  78       1.918370    8.384470   29.242933      10.0000    195.0840
  169   1 Pt  78       6.228370   10.954470   29.232933      10.0000    195.0840
  170   1 Pt  78       9.058371   10.874471   29.172933      10.0000    195.0840
  171   1 Pt  78      -5.071631   10.834470   29.202933      10.0000    195.0840
  172   1 Pt  78      -2.251630   10.904469   29.182933      10.0000    195.0840
  173   1 Pt  78       0.508370   10.934470   29.312933      10.0000    195.0840
  174   1 Pt  78       3.378370   10.974470   29.252933      10.0000    195.0840
  175   1 Pt  78       7.728371   13.264470   29.202933      10.0000    195.0840
  176   1 Pt  78      -6.381630   13.244470   28.962933      10.0000    195.0840
  177   1 Pt  78      -3.541630   13.254470   29.082933      10.0000    195.0840
  178   1 Pt  78      -0.851630   13.344471   29.332933      10.0000    195.0840
  179   1 Pt  78       1.838370   13.374471   29.322933      10.0000    195.0840
  180   1 Pt  78       4.878370   13.314470   29.352933      10.0000    195.0840
  181   1 Pt  78      -7.701631   13.984470   31.522933      10.0000    195.0840
  182   1 Pt  78      -4.991630   14.094470   31.292933      10.0000    195.0840
  183   1 Pt  78      -2.301630   14.164471   31.592933      10.0000    195.0840
  184   1 Pt  78       0.498370   14.094470   31.632934      10.0000    195.0840
  185   1 Pt  78       3.358370   14.184470   31.652933      10.0000    195.0840
  186   1 Pt  78       6.308371   14.094470   31.522933      10.0000    195.0840
  187   1 Pt  78       1.928370    1.914470   31.562933      10.0000    195.0840
  188   1 Pt  78       4.718370    1.924470   31.402933      10.0000    195.0840
  189   1 Pt  78       7.588371    1.964470   31.662933      10.0000    195.0840
  190   1 Pt  78      10.328370    1.944470   31.532933      10.0000    195.0840
  191   1 Pt  78      13.298371    2.034470   31.552933      10.0000    195.0840
  192   1 Pt  78      -0.881630    2.014470   31.722933      10.0000    195.0840
  193   1 Pt  78       3.368370    4.334470   31.522933      10.0000    195.0840
  194   1 Pt  78       6.118371    4.264470   31.552933      10.0000    195.0840
  195   1 Pt  78       9.018371    4.394470   31.622933      10.0000    195.0840
  196   1 Pt  78      11.748370    4.354470   31.612933      10.0000    195.0840
  197   1 Pt  78      -2.241630    4.434470   31.602933      10.0000    195.0840
  198   1 Pt  78       0.518370    4.374470   31.532933      10.0000    195.0840
  199   1 Pt  78       4.588370    6.854470   31.582933      10.0000    195.0840
  200   1 Pt  78       7.388370    6.824469   31.502933      10.0000    195.0840
  201   1 Pt  78      10.258370    6.814470   31.582933      10.0000    195.0840
  202   1 Pt  78      -3.691630    6.874470   31.602933      10.0000    195.0840
  203   1 Pt  78      -0.901630    6.894470   31.502933      10.0000    195.0840
  204   1 Pt  78       1.868370    6.864470   31.592933      10.0000    195.0840
  205   1 Pt  78       6.118371    9.244470   31.662933      10.0000    195.0840
  206   1 Pt  78       8.908370    9.354470   31.662933      10.0000    195.0840
  207   1 Pt  78      -5.121630    9.234470   31.602933      10.0000    195.0840
  208   1 Pt  78      -2.351630    9.354470   31.612933      10.0000    195.0840
  209   1 Pt  78       0.358370    9.324470   31.592933      10.0000    195.0840
  210   1 Pt  78       3.248370    9.204470   31.412933      10.0000    195.0840
  211   1 Pt  78       7.548370   11.684470   31.552933      10.0000    195.0840
  212   1 Pt  78      -6.471630   11.624470   31.532933      10.0000    195.0840
  213   1 Pt  78      -3.811630   11.694469   31.752933      10.0000    195.0840
  214   1 Pt  78      -1.111630   11.684470   31.562933      10.0000    195.0840
  215   1 Pt  78       1.868370   11.684470   31.632934      10.0000    195.0840
  216   1 Pt  78       4.868370   11.644470   31.642933      10.0000    195.0840




 SCF PARAMETERS         Density guess:                                   RESTART
                        --------------------------------------------------------
                        max_scf:                                             500
                        max_scf_history:                                       0
                        max_diis:                                              4
                        --------------------------------------------------------
                        eps_scf:                                        1.00E-06
                        eps_scf_history:                                0.00E+00
                        eps_diis:                                       1.00E-01
                        eps_eigval:                                     1.00E-05
                        --------------------------------------------------------
                        level_shift [a.u.]:                             0.000000
                        added MOs                                       500    0
                        --------------------------------------------------------
                        Mixing method:                            BROYDEN_MIXING
                                                charge density mixing in g-space
                        --------------------------------------------------------
                        Smear method:                                FERMI_DIRAC
                        Electronic temperature [K]:                        300.0
                        Electronic temperature [a.u.]:                  9.50E-04
                        Accuracy threshold:                             1.00E-10
                        --------------------------------------------------------
                        No outer SCF

 PW_GRID| Information for grid number                                          1
 PW_GRID| Grid distributed over                                    32 processors
 PW_GRID| Real space group dimensions                                    32    1
 PW_GRID| the grid is blocked:                                                NO
 PW_GRID| Cutoff [a.u.]                                                    200.0
 PW_GRID| spherical cutoff:                                                   NO
 PW_GRID|   Bounds   1           -105     104                Points:         210
 PW_GRID|   Bounds   2           -105     104                Points:         210
 PW_GRID|   Bounds   3           -315     314                Points:         630
 PW_GRID| Volume element (a.u.^3)  0.3081E-02     Volume (a.u.^3)     85609.9578
 PW_GRID| Grid span                                                    FULLSPACE
 PW_GRID|   Distribution                         Average         Max         Min
 PW_GRID|   G-Vectors                           868218.8      868350      868140
 PW_GRID|   G-Rays                                4134.4        4135        4134
 PW_GRID|   Real Space Points                   868218.8      926100      793800

 PW_GRID| Information for grid number                                          2
 PW_GRID| Number of the reference grid                                         1
 PW_GRID| Grid distributed over                                    32 processors
 PW_GRID| Real space group dimensions                                    32    1
 PW_GRID| the grid is blocked:                                                NO
 PW_GRID| Cutoff [a.u.]                                                     66.7
 PW_GRID| spherical cutoff:                                                   NO
 PW_GRID|   Bounds   1            -60      59                Points:         120
 PW_GRID|   Bounds   2            -60      59                Points:         120
 PW_GRID|   Bounds   3           -180     179                Points:         360
 PW_GRID| Volume element (a.u.^3)  0.1651E-01     Volume (a.u.^3)     85609.9578
 PW_GRID| Grid span                                                    FULLSPACE
 PW_GRID|   Distribution                         Average         Max         Min
 PW_GRID|   G-Vectors                           162000.0      162840      161280
 PW_GRID|   G-Rays                                1350.0        1357        1344
 PW_GRID|   Real Space Points                   162000.0      172800      129600

 PW_GRID| Information for grid number                                          3
 PW_GRID| Number of the reference grid                                         1
 PW_GRID| Grid distributed over                                    32 processors
 PW_GRID| Real space group dimensions                                    32    1
 PW_GRID| the grid is blocked:                                                NO
 PW_GRID| Cutoff [a.u.]                                                     22.2
 PW_GRID| spherical cutoff:                                                   NO
 PW_GRID|   Bounds   1            -35      34                Points:          70
 PW_GRID|   Bounds   2            -35      34                Points:          70
 PW_GRID|   Bounds   3           -105     104                Points:         210
 PW_GRID| Volume element (a.u.^3)  0.8320E-01     Volume (a.u.^3)     85609.9578
 PW_GRID| Grid span                                                    FULLSPACE
 PW_GRID|   Distribution                         Average         Max         Min
 PW_GRID|   G-Vectors                            32156.2       32340       31990
 PW_GRID|   G-Rays                                 459.4         462         457
 PW_GRID|   Real Space Points                    32156.2       44100       29400

 PW_GRID| Information for grid number                                          4
 PW_GRID| Number of the reference grid                                         1
 PW_GRID| Grid distributed over                                    32 processors
 PW_GRID| Real space group dimensions                                    32    1
 PW_GRID| the grid is blocked:                                                NO
 PW_GRID| Cutoff [a.u.]                                                      7.4
 PW_GRID| spherical cutoff:                                                   NO
 PW_GRID|   Bounds   1            -20      19                Points:          40
 PW_GRID|   Bounds   2            -20      19                Points:          40
 PW_GRID|   Bounds   3            -60      59                Points:         120
 PW_GRID| Volume element (a.u.^3)  0.4459         Volume (a.u.^3)     85609.9578
 PW_GRID| Grid span                                                    FULLSPACE
 PW_GRID|   Distribution                         Average         Max         Min
 PW_GRID|   G-Vectors                             6000.0        6120        5920
 PW_GRID|   G-Rays                                 150.0         153         148
 PW_GRID|   Real Space Points                     6000.0        9600        4800

 POISSON| Solver                                          IMPLICIT (GENERALIZED)
 POISSON| Boundary Condition                                PERIODIC & DIRICHLET
 POISSON| Maximum number of iterations                                        30
 POISSON| Convergence threshold                                         1.00E-08
 POISSON| Dielectric Constant                                              80.00
 POISSON| Relaxation parameter                                          1.00E+00

 RS_GRID| Information for grid number                                          1
 RS_GRID|   Bounds   1           -105     104                Points:         210
 RS_GRID|   Bounds   2           -105     104                Points:         210
 RS_GRID|   Bounds   3           -315     314                Points:         630
 RS_GRID| Real space distribution over                                 32 groups
 RS_GRID| Real space distribution along direction                              3
 RS_GRID| Border size                                                         54
 RS_GRID|   Distribution                         Average         Max         Min
 RS_GRID|   Planes                                 127.7         128         127

 RS_GRID| Information for grid number                                          2
 RS_GRID|   Bounds   1            -60      59                Points:         120
 RS_GRID|   Bounds   2            -60      59                Points:         120
 RS_GRID|   Bounds   3           -180     179                Points:         360
 RS_GRID| Real space distribution over                                 32 groups
 RS_GRID| Real space distribution along direction                              3
 RS_GRID| Border size                                                         36
 RS_GRID|   Distribution                         Average         Max         Min
 RS_GRID|   Planes                                  83.2          84          83

 RS_GRID| Information for grid number                                          3
 RS_GRID|   Bounds   1            -35      34                Points:          70
 RS_GRID|   Bounds   2            -35      34                Points:          70
 RS_GRID|   Bounds   3           -105     104                Points:         210
 RS_GRID| Real space fully replicated
 RS_GRID| Group size                                                           1

 RS_GRID| Information for grid number                                          4
 RS_GRID|   Bounds   1            -20      19                Points:          40
 RS_GRID|   Bounds   2            -20      19                Points:          40
 RS_GRID|   Bounds   3            -60      59                Points:         120
 RS_GRID| Real space fully replicated
 RS_GRID| Group size                                                           1

 Number of electrons:                                                       2160
 Number of occupied orbitals:                                               1080
 Number of molecular orbitals:                                              1580

 Number of orbital functions:                                               4320
 Number of independent orbital functions:                                   4320

 Extrapolation method: initial_guess


 SCF WAVEFUNCTION OPTIMIZATION

  Step     Update method      Time    Convergence         Total energy    Change
  ------------------------------------------------------------------------------

  POISSON| IMPLICIT (GENERALIZED) SOLVER ---------------------------------------
  POISSON| Preparing Dirichlet regions ...
  POISSON| Dirichlet region    1
  POISSON|     type : axis-aligned planar
  POISSON|     applied potential :   0.0000E+00  [Eh/e]
  POISSON| Dirichlet region    2
  POISSON|     type : axis-aligned planar
  POISSON|     applied potential :   0.0000E+00  [Eh/e]
  POISSON| ... Done. 
  ------------------------------------------------------------------------------

  POISSON|   iter        pres error      nabs error        E_hartree    delta E
  POISSON|      1        0.1146E-06      0.3305E-01    1992.6816409730  0.20E+04
  POISSON|      2        0.9203E-15      0.1146E-06    1992.6816409730  0.23E-10
  POISSON| Poisson solver converged in 2 iterations.
     1 NoMix/Diag. 0.30E+00   11.0     0.24460021     -5670.7113588768 -5.67E+03
  POISSON|   iter        pres error      nabs error        E_hartree    delta E
  POISSON|      1        0.6548E-04      0.3279E-01    1992.4859329240 -0.20E+00
  POISSON|      2        0.1232E-14      0.6548E-04    1992.4859329241  0.23E-10
  POISSON| Poisson solver converged in 2 iterations.
     2 Broy./Diag. 0.30E+00   13.2     0.29855994     -5670.1968588208  5.15E-01
  POISSON|   iter        pres error      nabs error        E_hartree    delta E
  POISSON|      1        0.1383E-03      0.6228E-03    1992.6496763178  0.16E+00
  POISSON|      2        0.2234E-16      0.1383E-03    1992.6496763179  0.23E-11
  POISSON| Poisson solver converged in 2 iterations.
     3 Broy./Diag. 0.30E+00   13.2     0.20034597     -5675.7748679108 -5.58E+00
  POISSON|   iter        pres error      nabs error        E_hartree    delta E
  POISSON|      1        0.1129E-03      0.4592E-03    1992.7037632583  0.54E-01
  POISSON|      2        0.4082E-17      0.1129E-03    1992.7037632583  0.45E-12
  POISSON| Poisson solver converged in 2 iterations.
     4 Broy./Diag. 0.30E+00   13.2     0.17204038     -5672.6822940042  3.09E+00
  POISSON|   iter        pres error      nabs error        E_hartree    delta E
  POISSON|      1        0.4407E-04      0.1707E-03    1992.7881618837  0.84E-01
  POISSON|      2        0.3455E-17      0.4407E-04    1992.7881618837 -0.45E-12
  POISSON| Poisson solver converged in 2 iterations.
     5 Broy./Diag. 0.30E+00   13.2     0.09619703     -5672.5573791794  1.25E-01
  POISSON|   iter        pres error      nabs error        E_hartree    delta E
  POISSON|      1        0.4833E-05      0.4493E-04    1992.8847467142  0.97E-01
  POISSON|      2        0.3998E-18      0.4833E-05    1992.8847467142  0.00E+00
  POISSON| Poisson solver converged in 2 iterations.
     6 Broy./Diag. 0.30E+00   13.3     0.03759765     -5672.8875586939 -3.30E-01
  POISSON|   iter        pres error      nabs error        E_hartree    delta E
  POISSON|      1        0.3749E-05      0.3872E-04    1992.9878299239  0.10E+00
  POISSON|      2        0.2945E-18      0.3749E-05    1992.9878299239  0.23E-12
  POISSON| Poisson solver converged in 2 iterations.
     7 Broy./Diag. 0.30E+00   13.3     0.03083068     -5672.3070497913  5.81E-01
  POISSON|   iter        pres error      nabs error        E_hartree    delta E
  POISSON|      1        0.2916E-05      0.4263E-04    1993.0834882401  0.96E-01
  POISSON|      2        0.9767E-18      0.2916E-05    1993.0834882401  0.23E-12
  POISSON| Poisson solver converged in 2 iterations.
     8 Broy./Diag. 0.30E+00   13.4     0.02355826     -5672.1498680193  1.57E-01
  POISSON|   iter        pres error      nabs error        E_hartree    delta E
  POISSON|      1        0.7832E-06      0.1347E-04    1993.1177545302  0.34E-01
  POISSON|      2        0.3123E-18      0.7832E-06    1993.1177545302 -0.23E-12
  POISSON| Poisson solver converged in 2 iterations.
     9 Broy./Diag. 0.30E+00   13.5     0.01148441     -5672.4108768087 -2.61E-01
  POISSON|   iter        pres error      nabs error        E_hartree    delta E
  POISSON|      1        0.4230E-06      0.6172E-05    1993.1379910388  0.20E-01
  POISSON|      2        0.3244E-19      0.4230E-06    1993.1379910388 -0.45E-12
  POISSON| Poisson solver converged in 2 iterations.
    10 Broy./Diag. 0.30E+00   13.7     0.00523990     -5672.2731751486  1.38E-01
  POISSON|   iter        pres error      nabs error        E_hartree    delta E
  POISSON|      1        0.1593E-06      0.6523E-05    1993.1486153681  0.11E-01
  POISSON|      2        0.2031E-18      0.1593E-06    1993.1486153681  0.23E-12
  POISSON| Poisson solver converged in 2 iterations.
    11 Broy./Diag. 0.30E+00   13.5     0.00343634     -5672.2199881001  5.32E-02
  POISSON|   iter        pres error      nabs error        E_hartree    delta E
  POISSON|      1        0.1599E-06      0.4790E-05    1993.1585544445  0.99E-02
  POISSON|      2        0.1213E-18      0.1599E-06    1993.1585544445  0.00E+00
  POISSON| Poisson solver converged in 2 iterations.
    12 Broy./Diag. 0.30E+00   13.5     0.00252788     -5672.2510169130 -3.10E-02
  POISSON|   iter        pres error      nabs error        E_hartree    delta E
  POISSON|      1        0.3577E-06      0.4294E-05    1993.1688201546  0.10E-01
  POISSON|      2        0.2738E-19      0.3577E-06    1993.1688201546 -0.23E-12
  POISSON| Poisson solver converged in 2 iterations.
    13 Broy./Diag. 0.30E+00   13.5     0.00180371     -5672.2438421913  7.17E-03
  POISSON|   iter        pres error      nabs error        E_hartree    delta E
  POISSON|      1        0.1539E-06      0.2016E-05    1993.1703894517  0.16E-02
  POISSON|      2        0.6519E-19      0.1539E-06    1993.1703894516 -0.23E-12
  POISSON| Poisson solver converged in 2 iterations.
    14 Broy./Diag. 0.30E+00   13.5     0.00085693     -5672.2269639050  1.69E-02
  POISSON|   iter        pres error      nabs error        E_hartree    delta E
  POISSON|      1        0.1526E-06      0.1901E-05    1993.1712094914  0.82E-03
  POISSON|      2        0.5613E-19      0.1526E-06    1993.1712094914  0.23E-12
  POISSON| Poisson solver converged in 2 iterations.
    15 Broy./Diag. 0.30E+00   13.5     0.00064937     -5672.2266574328  3.06E-04
  POISSON|   iter        pres error      nabs error        E_hartree    delta E
  POISSON|      1        0.2067E-06      0.2390E-05    1993.1720574619  0.85E-03
  POISSON|      2        0.5811E-19      0.2067E-06    1993.1720574619  0.00E+00
  POISSON| Poisson solver converged in 2 iterations.
    16 Broy./Diag. 0.30E+00   13.4     0.00085398     -5672.2343203170 -7.66E-03
  POISSON|   iter        pres error      nabs error        E_hartree    delta E
  POISSON|      1        0.2856E-06      0.2060E-05    1993.1722736253  0.22E-03
  POISSON|      2        0.7421E-19      0.2856E-06    1993.1722736253 -0.23E-12
  POISSON| Poisson solver converged in 2 iterations.
    17 Broy./Diag. 0.30E+00   13.5     0.00098130     -5672.2369498279 -2.63E-03
  POISSON|   iter        pres error      nabs error        E_hartree    delta E
  POISSON|      1        0.3552E-06      0.1586E-05    1993.1724509046  0.18E-03
  POISSON|      2        0.2877E-20      0.3552E-06    1993.1724509046  0.23E-12
  POISSON| Poisson solver converged in 2 iterations.
    18 Broy./Diag. 0.30E+00   13.4     0.00074413     -5672.2362159221  7.34E-04
  POISSON|   iter        pres error      nabs error        E_hartree    delta E
  POISSON|      1        0.7960E-07      0.1359E-05    1993.1727334197  0.28E-03
  POISSON|      2        0.6083E-19      0.7960E-07    1993.1727334197  0.00E+00
  POISSON| Poisson solver converged in 2 iterations.
    19 Broy./Diag. 0.30E+00   13.5     0.00052102     -5672.2372880558 -1.07E-03
  POISSON|   iter        pres error      nabs error        E_hartree    delta E
  POISSON|      1        0.9945E-07      0.7495E-06    1993.1728859297  0.15E-03
  POISSON|      2        0.2094E-19      0.9945E-07    1993.1728859297  0.23E-12
  POISSON| Poisson solver converged in 2 iterations.
    20 Broy./Diag. 0.30E+00   13.5     0.00030213     -5672.2417686454 -4.48E-03
  POISSON|   iter        pres error      nabs error        E_hartree    delta E
  POISSON|      1        0.1986E-07      0.8176E-06    1993.1733303989  0.44E-03
  POISSON|      2        0.2765E-19      0.1986E-07    1993.1733303989  0.23E-12
  POISSON| Poisson solver converged in 2 iterations.
    21 Broy./Diag. 0.30E+00   13.5     0.00019123     -5672.2425971015 -8.28E-04
  POISSON|   iter        pres error      nabs error        E_hartree    delta E
  POISSON|      1        0.8483E-07      0.1236E-05    1993.1737678214  0.44E-03
  POISSON|      2        0.4684E-19      0.8483E-07    1993.1737678214  0.00E+00
  POISSON| Poisson solver converged in 2 iterations.
    22 Broy./Diag. 0.30E+00   13.5     0.00016527     -5672.2402441240  2.35E-03
  POISSON|   iter        pres error      nabs error        E_hartree    delta E
  POISSON|      1        0.6516E-07      0.1375E-05    1993.1743442575  0.58E-03
  POISSON|      2        0.5478E-19      0.6516E-07    1993.1743442575  0.23E-12
  POISSON| Poisson solver converged in 2 iterations.
    23 Broy./Diag. 0.30E+00   13.5     0.00011932     -5672.2420745479 -1.83E-03
  POISSON|   iter        pres error      nabs error        E_hartree    delta E
  POISSON|      1        0.8914E-07      0.1297E-05    1993.1750098639  0.67E-03
  POISSON|      2        0.4825E-19      0.8914E-07    1993.1750098639 -0.23E-12
  POISSON| Poisson solver converged in 2 iterations.
    24 Broy./Diag. 0.30E+00   13.5     0.00009207     -5672.2434487557 -1.37E-03
  POISSON|   iter        pres error      nabs error        E_hartree    delta E
  POISSON|      1        0.3846E-07      0.8653E-06    1993.1754905878  0.48E-03
  POISSON|      2        0.3165E-19      0.3846E-07    1993.1754905878 -0.23E-12
  POISSON| Poisson solver converged in 2 iterations.
    25 Broy./Diag. 0.30E+00   13.5     0.00013052     -5672.2433324665  1.16E-04
  POISSON|   iter        pres error      nabs error        E_hartree    delta E
  POISSON|      1        0.3958E-07      0.9092E-06    1993.1759006994  0.41E-03
  POISSON|      2        0.3891E-19      0.3958E-07    1993.1759006994 -0.23E-12
  POISSON| Poisson solver converged in 2 iterations.
    26 Broy./Diag. 0.30E+00   13.5     0.00012861     -5672.2424175884  9.15E-04
  POISSON|   iter        pres error      nabs error        E_hartree    delta E
  POISSON|      1        0.7840E-07      0.6406E-06    1993.1761321946  0.23E-03
  POISSON|      2        0.2161E-19      0.7840E-07    1993.1761321946  0.23E-12
  POISSON| Poisson solver converged in 2 iterations.
    27 Broy./Diag. 0.30E+00   13.5     0.00015708     -5672.2434284797 -1.01E-03
  POISSON|   iter        pres error      nabs error        E_hartree    delta E
  POISSON|      1        0.3099E-07      0.4706E-06    1993.1762942903  0.16E-03
  POISSON|      2        0.2140E-19      0.3099E-07    1993.1762942903  0.23E-12
  POISSON| Poisson solver converged in 2 iterations.
    28 Broy./Diag. 0.30E+00   13.5     0.00013942     -5672.2439443919 -5.16E-04
  POISSON|   iter        pres error      nabs error        E_hartree    delta E
  POISSON|      1        0.5706E-07      0.4281E-06    1993.1764226126  0.13E-03
  POISSON|      2        0.1294E-19      0.5706E-07    1993.1764226126  0.00E+00
  POISSON| Poisson solver converged in 2 iterations.
    29 Broy./Diag. 0.30E+00   13.4     0.00010061     -5672.2438400054  1.04E-04
  POISSON|   iter        pres error      nabs error        E_hartree    delta E
  POISSON|      1        0.2699E-08      0.3885E-06    1993.1764735106  0.51E-04
  POISSON| Poisson solver converged in 1 iteration. 
    30 Broy./Diag. 0.30E+00   12.1     0.00007115     -5672.2435343625  3.06E-04
  POISSON|   iter        pres error      nabs error        E_hartree    delta E
  POISSON|      1        0.4076E-07      0.5379E-06    1993.1764882392  0.15E-04
  POISSON|      2        0.2344E-19      0.4076E-07    1993.1764882392  0.45E-12
  POISSON| Poisson solver converged in 2 iterations.
    31 Broy./Diag. 0.30E+00   13.5     0.00005980     -5672.2439610297 -4.27E-04
  POISSON|   iter        pres error      nabs error        E_hartree    delta E
  POISSON|      1        0.1879E-07      0.4150E-06    1993.1765248785  0.37E-04
  POISSON|      2        0.1714E-19      0.1879E-07    1993.1765248785 -0.23E-12
  POISSON| Poisson solver converged in 2 iterations.
    32 Broy./Diag. 0.30E+00   13.5     0.00004937     -5672.2449480775 -9.87E-04
  POISSON|   iter        pres error      nabs error        E_hartree    delta E
  POISSON|      1        0.2229E-07      0.2900E-06    1993.1765178297 -0.70E-05
  POISSON|      2        0.1173E-19      0.2229E-07    1993.1765178297  0.00E+00
  POISSON| Poisson solver converged in 2 iterations.
    33 Broy./Diag. 0.30E+00   13.5     0.00004170     -5672.2445820430  3.66E-04
  POISSON|   iter        pres error      nabs error        E_hartree    delta E
  POISSON|      1        0.1386E-07      0.2853E-06    1993.1765258938  0.81E-05
  POISSON|      2        0.1272E-19      0.1386E-07    1993.1765258938  0.00E+00
  POISSON| Poisson solver converged in 2 iterations.
    34 Broy./Diag. 0.30E+00   13.5     0.00003002     -5672.2446334981 -5.15E-05
  POISSON|   iter        pres error      nabs error        E_hartree    delta E
  POISSON|      1        0.1755E-07      0.2413E-06    1993.1765415540  0.16E-04
  POISSON|      2        0.1026E-19      0.1755E-07    1993.1765415540  0.23E-12
  POISSON| Poisson solver converged in 2 iterations.
    35 Broy./Diag. 0.30E+00   13.7     0.00002596     -5672.2449464939 -3.13E-04
  POISSON|   iter        pres error      nabs error        E_hartree    delta E
  POISSON|      1        0.1435E-07      0.2057E-06    1993.1765662401  0.25E-04
  POISSON|      2        0.8626E-20      0.1435E-07    1993.1765662401  0.23E-12
  POISSON| Poisson solver converged in 2 iterations.
    36 Broy./Diag. 0.30E+00   13.5     0.00002574     -5672.2450928715 -1.46E-04
  POISSON|   iter        pres error      nabs error        E_hartree    delta E
  POISSON|      1        0.3171E-08      0.1194E-06    1993.1765895228  0.23E-04
  POISSON| Poisson solver converged in 1 iteration. 
    37 Broy./Diag. 0.30E+00   12.1     0.00004416     -5672.2448078478  2.85E-04
  POISSON|   iter        pres error      nabs error        E_hartree    delta E
  POISSON|      1        0.2317E-07      0.1818E-06    1993.1766182299  0.29E-04
  POISSON|      2        0.6573E-20      0.2317E-07    1993.1766182299  0.00E+00
  POISSON| Poisson solver converged in 2 iterations.
    38 Broy./Diag. 0.30E+00   13.5     0.00003133     -5672.2447473602  6.05E-05
  POISSON|   iter        pres error      nabs error        E_hartree    delta E
  POISSON|      1        0.4933E-08      0.7730E-07    1993.1766335165  0.15E-04
  POISSON| Poisson solver converged in 1 iteration. 
    39 Broy./Diag. 0.30E+00   12.1     0.00002484     -5672.2448600687 -1.13E-04
  POISSON|   iter        pres error      nabs error        E_hartree    delta E
  POISSON|      1        0.1418E-07      0.1368E-06    1993.1766697594  0.36E-04
  POISSON|      2        0.5250E-20      0.1418E-07    1993.1766697594  0.00E+00
  POISSON| Poisson solver converged in 2 iterations.
    40 Broy./Diag. 0.30E+00   13.5     0.00001883     -5672.2448979982 -3.79E-05
  POISSON|   iter        pres error      nabs error        E_hartree    delta E
  POISSON|      1        0.3115E-08      0.1024E-06    1993.1767060973  0.36E-04
  POISSON| Poisson solver converged in 1 iteration. 
    41 Broy./Diag. 0.30E+00   12.1     0.00001563     -5672.2447693662  1.29E-04
  POISSON|   iter        pres error      nabs error        E_hartree    delta E
  POISSON|      1        0.1137E-07      0.1726E-06    1993.1767356900  0.30E-04
  POISSON|      2        0.8034E-20      0.1137E-07    1993.1767356900  0.00E+00
  POISSON| Poisson solver converged in 2 iterations.
    42 Broy./Diag. 0.30E+00   13.5     0.00001205     -5672.2446111302  1.58E-04
  POISSON|   iter        pres error      nabs error        E_hartree    delta E
  POISSON|      1        0.5058E-08      0.1101E-06    1993.1767575324  0.22E-04
  POISSON| Poisson solver converged in 1 iteration. 
    43 Broy./Diag. 0.30E+00   12.1     0.00001197     -5672.2448055025 -1.94E-04
  POISSON|   iter        pres error      nabs error        E_hartree    delta E
  POISSON|      1        0.7090E-08      0.9825E-07    1993.1767731774  0.16E-04
  POISSON| Poisson solver converged in 1 iteration. 
    44 Broy./Diag. 0.30E+00   12.1     0.00001034     -5672.2447832754  2.22E-05
  POISSON|   iter        pres error      nabs error        E_hartree    delta E
  POISSON|      1        0.4574E-08      0.9697E-07    1993.1767763891  0.32E-05
  POISSON| Poisson solver converged in 1 iteration. 
    45 Broy./Diag. 0.30E+00   12.1     0.00000794     -5672.2447317615  5.15E-05
  POISSON|   iter        pres error      nabs error        E_hartree    delta E
  POISSON|      1        0.7285E-08      0.1224E-06    1993.1767752765 -0.11E-05
  POISSON| Poisson solver converged in 1 iteration. 
    46 Broy./Diag. 0.30E+00   12.1     0.00000765     -5672.2447782423 -4.65E-05
  POISSON|   iter        pres error      nabs error        E_hartree    delta E
  POISSON|      1        0.5811E-08      0.4595E-07    1993.1767721223 -0.32E-05
  POISSON| Poisson solver converged in 1 iteration. 
    47 Broy./Diag. 0.30E+00   12.4     0.00001521     -5672.2448956748 -1.17E-04
  POISSON|   iter        pres error      nabs error        E_hartree    delta E
  POISSON|      1        0.1399E-09      0.7027E-07    1993.1767728800  0.76E-06
  POISSON| Poisson solver converged in 1 iteration. 
    48 Broy./Diag. 0.30E+00   12.1     0.00001167     -5672.2449215940 -2.59E-05
  POISSON|   iter        pres error      nabs error        E_hartree    delta E
  POISSON|      1        0.5741E-08      0.3492E-07    1993.1767699251 -0.30E-05
  POISSON| Poisson solver converged in 1 iteration. 
    49 Broy./Diag. 0.30E+00   12.1     0.00001008     -5672.2448914326  3.02E-05
  POISSON|   iter        pres error      nabs error        E_hartree    delta E
  POISSON|      1        0.1403E-08      0.6402E-07    1993.1767718446  0.19E-05
  POISSON| Poisson solver converged in 1 iteration. 
    50 Broy./Diag. 0.30E+00   12.1     0.00000807     -5672.2448960560 -4.62E-06
  POISSON|   iter        pres error      nabs error        E_hartree    delta E
  POISSON|      1        0.4028E-08      0.4882E-07    1993.1767722900  0.45E-06
  POISSON| Poisson solver converged in 1 iteration. 
    51 Broy./Diag. 0.30E+00   12.1     0.00000643     -5672.2449409587 -4.49E-05
  POISSON|   iter        pres error      nabs error        E_hartree    delta E
  POISSON|      1        0.2088E-08      0.4217E-07    1993.1767800220  0.77E-05
  POISSON| Poisson solver converged in 1 iteration. 
    52 Broy./Diag. 0.30E+00   12.1     0.00000519     -5672.2449720058 -3.10E-05
  POISSON|   iter        pres error      nabs error        E_hartree    delta E
  POISSON|      1        0.3128E-08      0.4865E-07    1993.1767859661  0.59E-05
  POISSON| Poisson solver converged in 1 iteration. 
    53 Broy./Diag. 0.30E+00   12.3     0.00000341     -5672.2448919046  8.01E-05
  POISSON|   iter        pres error      nabs error        E_hartree    delta E
  POISSON|      1        0.1550E-08      0.3511E-07    1993.1767929449  0.70E-05
  POISSON| Poisson solver converged in 1 iteration. 
    54 Broy./Diag. 0.30E+00   12.1     0.00000319     -5672.2449181387 -2.62E-05
  POISSON|   iter        pres error      nabs error        E_hartree    delta E
  POISSON|      1        0.2025E-08      0.2520E-07    1993.1768015917  0.86E-05
  POISSON| Poisson solver converged in 1 iteration. 
    55 Broy./Diag. 0.30E+00   12.1     0.00000284     -5672.2449299470 -1.18E-05
  POISSON|   iter        pres error      nabs error        E_hartree    delta E
  POISSON|      1        0.2050E-08      0.3694E-07    1993.1768114927  0.99E-05
  POISSON| Poisson solver converged in 1 iteration. 
    56 Broy./Diag. 0.30E+00   12.1     0.00000214     -5672.2449075566  2.24E-05
  POISSON|   iter        pres error      nabs error        E_hartree    delta E
  POISSON|      1        0.4858E-09      0.1951E-07    1993.1768168358  0.53E-05
  POISSON| Poisson solver converged in 1 iteration. 
    57 Broy./Diag. 0.30E+00   12.2     0.00000396     -5672.2448964272  1.11E-05
  POISSON|   iter        pres error      nabs error        E_hartree    delta E
  POISSON|      1        0.2147E-08      0.1995E-07    1993.1768204541  0.36E-05
  POISSON| Poisson solver converged in 1 iteration. 
    58 Broy./Diag. 0.30E+00   12.1     0.00000343     -5672.2448984967 -2.07E-06
  POISSON|   iter        pres error      nabs error        E_hartree    delta E
  POISSON|      1        0.5134E-09      0.1470E-07    1993.1768226852  0.22E-05
  POISSON| Poisson solver converged in 1 iteration. 
    59 Broy./Diag. 0.30E+00   12.3     0.00000346     -5672.2449164478 -1.80E-05
  POISSON|   iter        pres error      nabs error        E_hartree    delta E
  POISSON|      1        0.1708E-08      0.1489E-07    1993.1768240404  0.14E-05
  POISSON| Poisson solver converged in 1 iteration. 
    60 Broy./Diag. 0.30E+00   12.1     0.00000276     -5672.2449156674  7.80E-07
  POISSON|   iter        pres error      nabs error        E_hartree    delta E
  POISSON|      1        0.4214E-09      0.1572E-07    1993.1768248702  0.83E-06
  POISSON| Poisson solver converged in 1 iteration. 
    61 Broy./Diag. 0.30E+00   12.2     0.00000224     -5672.2449137721  1.90E-06
  POISSON|   iter        pres error      nabs error        E_hartree    delta E
  POISSON|      1        0.1062E-08      0.1636E-07    1993.1768236398 -0.12E-05
  POISSON| Poisson solver converged in 1 iteration. 
    62 Broy./Diag. 0.30E+00   12.2     0.00000175     -5672.2449130473  7.25E-07
  POISSON|   iter        pres error      nabs error        E_hartree    delta E
  POISSON|      1        0.5282E-09      0.1133E-07    1993.1768234970 -0.14E-06
  POISSON| Poisson solver converged in 1 iteration. 
    63 Broy./Diag. 0.30E+00   12.1     0.00000110     -5672.2449437807 -3.07E-05
  POISSON|   iter        pres error      nabs error        E_hartree    delta E
  POISSON|      1        0.8471E-09      0.1224E-07    1993.1768226081 -0.89E-06
  POISSON| Poisson solver converged in 1 iteration. 
    64 Broy./Diag. 0.30E+00   12.1     0.00000108     -5672.2449335557  1.02E-05
  POISSON|   iter        pres error      nabs error        E_hartree    delta E
  POISSON|      1        0.4964E-09      0.1202E-07    1993.1768212073 -0.14E-05
  POISSON| Poisson solver converged in 1 iteration. 
    65 Broy./Diag. 0.30E+00   12.1     0.00000095     -5672.2449356487 -2.09E-06

  *** SCF run converged in    65 steps ***


  Electronic density on regular grids:      -2159.9999999992        0.0000000008
  Core density on regular grids:             2159.9999999995       -0.0000000005
  Total charge density on r-space grids:        0.0000000003
  Total charge density g-space grids:           0.0000000003

  Overlap energy of the core charge distribution:               0.00003190994088
  Self energy of the core charge distribution:              -9891.63555570741482
  Core Hamiltonian energy:                                   3201.85881109921957
  Hartree energy:                                            1993.17682120733548
  Electric enthalpy:                                         1993.17682120734185
  Exchange-correlation energy:                               -970.92635439671164
  Dispersion energy:                                           -4.68722603066023
  Electronic entropic energy:                                  -0.03146370458781
  Fermi energy:                                                -0.20835485853138

  Total energy:                                             -5672.24493564865770

 The electron density is written in cube file format to the file:

 cp2k-ELECTRON_DENSITY-1_0.cube

 !-----------------------------------------------------------------------------!
                     Mulliken Population Analysis

 #  Atom  Element  Kind  Atomic population                           Net charge
       1     Pt       1         10.038910                             -0.038910
       2     Pt       1         10.034271                             -0.034271
[...]
    191      1      Pt         -0.01186854    -0.00581404     0.01113517
    192      1      Pt          0.01042803    -0.00910200    -0.01068376
    193      1      Pt         -0.01082451     0.00705508     0.00810251
    194      1      Pt          0.00850587     0.01281405     0.00943537
    195      1      Pt         -0.01428553    -0.00271086    -0.00622355
    196      1      Pt          0.00642724     0.00600530    -0.00569080
    197      1      Pt         -0.00708902     0.00476963    -0.00896789
    198      1      Pt          0.00572085     0.00455225     0.00751543
    199      1      Pt          0.01465098    -0.00542883    -0.00241832
    200      1      Pt          0.01246292    -0.00220821     0.00870318
    201      1      Pt          0.00681424     0.00715096    -0.00163510
    202      1      Pt         -0.00106560    -0.00872320    -0.00152250
    203      1      Pt         -0.00467690    -0.00749618     0.00154262
    204      1      Pt         -0.00299361    -0.00714497    -0.00266368
    205      1      Pt         -0.00205966    -0.00185090    -0.01328444
    206      1      Pt          0.00154960    -0.02038677    -0.01326564
    207      1      Pt         -0.00831305    -0.00276618    -0.00144542
    208      1      Pt         -0.00802467    -0.01167419    -0.00112312
    209      1      Pt          0.01163832    -0.00081779    -0.00455668
    210      1      Pt          0.00530148     0.01974594     0.01442571
    211      1      Pt          0.00976375    -0.00374675     0.00395266
    212      1      Pt         -0.00100838     0.00033434    -0.00233240
    213      1      Pt          0.00992074    -0.00249141    -0.01501064
    214      1      Pt          0.01818139     0.00877414     0.01019672
    215      1      Pt          0.00796991     0.00064848    -0.00570794
    216      1      Pt         -0.02241390     0.00708107    -0.00573104
 SUM OF ATOMIC FORCES          -0.00004042    -0.00005728    -0.00015192     0.00016731

 -------------------------------------------------------------------------------
 -                                                                             -
 -                                DBCSR STATISTICS                             -
 -                                                                             -
 -------------------------------------------------------------------------------
 COUNTER                                    TOTAL       BLAS       SMM       ACC
 flops    20 x    12 x    20            447897600       0.0%    100.0%      0.0%
 flops    20 x    32 x    20          58525286400       0.0%    100.0%      0.0%
 flops    20 x    20 x   204         256258598400       0.0%    100.0%      0.0%
 flops    20 x    20 x   224         281381990400       0.0%    100.0%      0.0%
 flops    20 x    20 x   192        1447107379200       0.0%    100.0%      0.0%
 flops inhomo. stacks                           0       0.0%      0.0%      0.0%
 flops total                         2.043721E+12       0.0%    100.0%      0.0%
 flops max/rank                     65.588941E+09       0.0%    100.0%      0.0%
 matmuls inhomo. stacks                         0       0.0%      0.0%      0.0%
 matmuls total                           14894496       0.0%    100.0%      0.0%
 number of processed stacks                 19584       0.0%    100.0%      0.0%
 average stack size                                     0.0     760.5       0.0
 marketing flops                     2.910176E+12
 -------------------------------------------------------------------------------
 # multiplications                             68
 max memory usage/rank               1.823326E+09
 # max total images/rank                        2
 # max 3D layers                                1
 # MPI messages exchanged                   28288
 MPI messages size (bytes):
  total size                        37.794124E+09
  min size                         829.440000E+03
  max size                           4.665600E+06
  average size                       1.336048E+06
 MPI breakdown and total messages size (bytes):
             size <=      128                   0                        0
       128 < size <=     8192                   0                        0
      8192 < size <=    32768                   0                        0
     32768 < size <=   131072                   0                        0
    131072 < size <=  4194304               28064              36749030400
   4194304 < size <= 16777216                 224               1045094400
  16777216 < size                               0                        0
 -------------------------------------------------------------------------------

 *** WARNING in dbcsr_mm.F:290 :: Using a non-square number of MPI ranks ***
 *** might lead to poor performance. Used ranks: 32 Suggested: 36 64     ***

 -------------------------------------------------------------------------------
 -                                                                             -
 -                      DBCSR MESSAGE PASSING PERFORMANCE                      -
 -                                                                             -
 -------------------------------------------------------------------------------
 ROUTINE             CALLS      AVE VOLUME [Bytes]
 MP_Bcast                6                     12.
 MP_Allreduce          499                      9.
 MP_Alltoall          1885                1275666.
 MP_ISend             2176                 578173.
 MP_IRecv             2176                 561175.
 -------------------------------------------------------------------------------

 -------------------------------------------------------------------------------
 -                                                                             -
 -                                DBM STATISTICS                               -
 -                                                                             -
 -------------------------------------------------------------------------------
    M  x    N  x    K                                          COUNT     PERCENT
 -------------------------------------------------------------------------------

 -------------------------------------------------------------------------------
 -                                                                             -
 -                                GRID STATISTICS                              -
 -                                                                             -
 -------------------------------------------------------------------------------
 LP    KERNEL             BACKEND                              COUNT     PERCENT
 4     collocate general  REF                               22450890      49.97%
 4     integrate general  REF                               22110725      49.21%
 5     integrate general  REF                                 340165       0.76%
 0     collocate general  REF                                  13824       0.03%
 0     integrate general  REF                                   6912       0.02%
 1     integrate general  REF                                   6912       0.02%
 -------------------------------------------------------------------------------

 MEMORY| Estimated peak process memory [MiB]                                2146

 -------------------------------------------------------------------------------
 ----                             MULTIGRID INFO                            ----
 -------------------------------------------------------------------------------
 count for grid        1:          17563          cutoff [a.u.]          200.00
 count for grid        2:         177532          cutoff [a.u.]           66.67
 count for grid        3:         109899          cutoff [a.u.]           22.22
 count for grid        4:         154800          cutoff [a.u.]            7.41
 total gridlevel count  :         459794

 -------------------------------------------------------------------------------
 -                                                                             -
 -                         MESSAGE PASSING PERFORMANCE                         -
 -                                                                             -
 -------------------------------------------------------------------------------

 ROUTINE             CALLS      AVE VOLUME [Bytes]
 MP_Group                4
 MP_Bcast             1774                 164157.
 MP_Allreduce         1708                   1482.
 MP_Sync                71
 MP_Alltoall          3313               49583448.
 MP_SendRecv           124                  14922.
 MP_ISendRecv         8184                 214800.
 MP_Wait             19836
 MP_comm_split           1
 MP_ISend            10448                 714782.
 MP_IRecv            10448                 714782.
 MP_Recv               192                1105920.
 MP_Write_All            3                4213860.
 -------------------------------------------------------------------------------


 -------------------------------------------------------------------------------
 -                                                                             -
 -                           R E F E R E N C E S                               -
 -                                                                             -
 -------------------------------------------------------------------------------
 
 CP2K version 2022.1, the CP2K developers group (2022).
 CP2K is freely available from https://www.cp2k.org/ .

 Kuehne,Thomas D.; Iannuzzi,Marcella; Del Ben,Mauro;
 Rybkin,Vladimir V.; Seewald,Patrick; Stein,Frederick; Laino,Teodoro;
 Khaliullin,Rustam Z.; Schuett,Ole; Schiffmann,Florian; Golze,Dorothea;
 Wilhelm,Jan; Chulkov,Sergey; Bani-Hashemian,Mohammad Hossein;
 Weber,Valery; Borstnik,Urban; Taillefumier,Mathieu;
 Jakobovits,Alice Shoshana; Lazzaro,Alfio; Pabst,Hans; Mueller,Tiziano;
 Schade,Robert; Guidon,Manuel; Andermatt,Samuel; Holmberg,Nico;
 Schenter,Gregory K.; Hehn,Anna; Bussy,Augustin; Belleflamme,Fabian;
 Tabacchi,Gloria; Gloess,Andreas; Lass,Michael; Bethune,Iain;
 Mundy,Christopher J.; Plessl,Christian; Watkins,Matt;
 VandeVondele,Joost; Krack,Matthias; Hutter,Juerg. 
 The Journal of Chemical Physics, 152 (19), (2020). 
 CP2K: An electronic structure and molecular dynamics software package -
 Quickstep: Efficient and accurate electronic structure calculations.
 https://doi.org/10.1063/5.0007045

 Goerigk, Lars; Hansen, Andreas; Bauer, Christoph; Ehrlich, Stephan;
 Najibi, Asim; Grimme, Stefan. , 19 (48), (2017). 
 A look at the density functional theory zoo with the advanced GMTKN55 database
 for general main group thermochemistry, kinetics and noncovalent interactions.
 https://doi.org/10.1039/C7CP04913G

 Bani-Hashemian, MH; Bruck, S; Luisier, M; VandeVondele, J. 
 JOURNAL OF CHEMICAL PHYSICS, 144 (4), 044113 (2016). 
 A generalized Poisson solver for first-principles device simulations.
 https://doi.org/10.1063/1.4940796

 Schuett, Ole; Messmer, Peter; Hutter, Juerg; VandeVondele, Joost. 
 Electronic Structure Calculations on Graphics Processing Units, John
 Wiley & Sons, Ltd, 173-190 (2016). 
 GPU-Accelerated Sparse Matrix-Matrix Multiplication for
 Linear Scaling Density Functional Theory.
 https://doi.org/10.1002/9781118670712.ch8

 Heinecke, A; Henry, G; Hutchinson, M; Pabst, H. 
 Proceedings of Intl. Supercomputing Conference, 981-991 (2016). 
 LIBXSMM: Accelerating Small Matrix Multiplications
 by Runtime Code Generation.
 https://doi.org/10.1109/SC.2016.83

 Borstnik, U; VandeVondele, J; Weber, V; Hutter, J. 
 PARALLEL COMPUTING, 40 (5-6), 47-58 (2014). 
 Sparse matrix multiplication: The distributed block-compressed sparse
 row library.
 https://doi.org/10.1016/j.parco.2014.03.012

 Hutter, J; Iannuzzi, M; Schiffmann, F; VandeVondele, J. 
 WIREs Comput Mol Sci., 4 (1), 15-25 (2014). 
 CP2K: atomistic simulations of condensed matter systems.
 https://doi.org/10.1002/wcms.1159

 Marek, A; Blum, V; Johanni, R; Havu, V; Lang, B; Auckenthaler, T;
 Heinecke, A; Bungartz, H; Lederer, H. 
 Journal of Physics: Condensed Matter, 26 (21), (2014). 
 The ELPA library: scalable parallel eigenvalue solutions for
 electronic structure
 theory and computational science.
 https://doi.org/10.1088/0953-8984/26/21/213201

 Grimme, S; Ehrlich, S; Goerigk, L. 
 JOURNAL OF COMPUTATIONAL CHEMISTRY, 32, 1456 (2011). 
 Effect of the damping function in dispersion corrected density functional theory.
 https://doi.org/10.1002/jcc.21759

 Grimme, S; Antony, J; Ehrlich, S; Krieg, H. 
 JOURNAL OF CHEMICAL PHYSICS, 132 (15), 154104 (2010). 
 A consistent and accurate ab initio parametrization of density
 functional dispersion correction (DFT-D) for the 94 elements H-Pu.
 https://doi.org/10.1063/1.3382344

 VandeVondele, J; Hutter, J. 
 JOURNAL OF CHEMICAL PHYSICS, 127 (11), 114105 (2007). 
 Gaussian basis sets for accurate calculations on molecular systems in
 gas and condensed phases.
 https://doi.org/10.1063/1.2770708

 Krack, M. 
 THEORETICAL CHEMISTRY ACCOUNTS, 114 (1-3), 145-152 (2005). 
 Pseudopotentials for H to Kr optimized for gradient-corrected
 exchange-correlation functionals.
 https://doi.org/10.1007/s00214-005-0655-y

 VandeVondele, J; Krack, M; Mohamed, F; Parrinello, M; Chassaing, T;
 Hutter, J. COMPUTER PHYSICS COMMUNICATIONS, 167 (2), 103-128 (2005). 
 QUICKSTEP: Fast and accurate density functional calculations using a
 mixed Gaussian and plane waves approach.
 https://doi.org/10.1016/j.cpc.2004.12.014

 Frigo, M; Johnson, SG. 
 PROCEEDINGS OF THE IEEE, 93 (2), 216-231 (2005). 
 The design and implementation of FFTW3.
 https://doi.org/10.1109/JPROC.2004.840301

 Hartwigsen, C; Goedecker, S; Hutter, J. 
 PHYSICAL REVIEW B, 58 (7), 3641-3662 (1998). 
 Relativistic separable dual-space Gaussian pseudopotentials from H to Rn.
 https://doi.org/10.1103/PhysRevB.58.3641

 Lippert, G; Hutter, J; Parrinello, M. 
 MOLECULAR PHYSICS, 92 (3), 477-487 (1997). 
 A hybrid Gaussian and plane wave density functional scheme.
 https://doi.org/10.1080/002689797170220

 Perdew, JP; Burke, K; Ernzerhof, M. 
 PHYSICAL REVIEW LETTERS, 77 (18), 3865-3868 (1996). 
 Generalized gradient approximation made simple.
 https://doi.org/10.1103/PhysRevLett.77.3865

 Goedecker, S; Teter, M; Hutter, J. 
 PHYSICAL REVIEW B, 54 (3), 1703-1710 (1996). 
 Separable dual-space Gaussian pseudopotentials.
 https://doi.org/10.1103/PhysRevB.54.1703


 -------------------------------------------------------------------------------
 -                                                                             -
 -                                T I M I N G                                  -
 -                                                                             -
 -------------------------------------------------------------------------------
 SUBROUTINE                       CALLS  ASD         SELF TIME        TOTAL TIME
                                MAXIMUM       AVERAGE  MAXIMUM  AVERAGE  MAXIMUM
 CP2K                                 1  1.0    0.024    0.053  864.322  864.324
 qs_forces                            1  2.0    0.001    0.001  863.895  863.897
 qs_energies                          1  3.0    0.000    0.000  849.627  849.630
 scf_env_do_scf                       1  4.0    0.000    0.000  839.957  840.046
 scf_env_do_scf_inner_loop           65  5.0    0.003    0.005  839.954  840.043
 rebuild_ks_matrix                   66  7.0    0.000    0.000  540.762  540.789
 qs_ks_build_kohn_sham_matrix        66  8.0    0.010    0.012  540.761  540.788
 qs_ks_update_qs_env                 65  6.0    0.001    0.001  530.934  530.961
 pw_transfer                       3166 12.1    0.243    0.328  306.160  308.543
 fft_wrap_pw1pw2                   3166 13.1    0.034    0.042  305.918  308.219
 fft_wrap_pw1pw2_200               2770 14.4   25.955   29.148  302.990  305.389
 pw_poisson_solve                    66  9.0    0.019    0.026  266.261  266.347
 implicit_poisson_solver_mixed_      66 10.0    7.164    7.757  251.195  251.326
 fft3d_ps                          3166 15.1  130.094  139.306  227.903  231.244
 qs_rho_update_rho_low               66  6.0    0.001    0.001  199.091  199.105
 calculate_rho_elec                  66  7.0    0.362    0.387  199.090  199.104
 sum_up_and_integrate                66  9.0    1.029    1.109  187.962  187.989
 integrate_v_rspace                  66 10.0    0.002    0.002  186.932  187.067
 derive_fft                         342 12.1    0.025    0.030  176.817  178.379
 grid_collocate_task_list            66  8.0   88.422  172.249   88.422  172.249
 grid_integrate_task_list            66 11.0   81.686  160.448   81.686  160.448
 apply_P_operator                   276 11.2    2.577    2.944  145.403  146.545
 rs_pw_transfer                     532 10.5    0.006    0.007  110.025  137.607
 density_rs2pw                       66  8.0    0.005    0.005  108.860  136.688
 mp_waitany                       10448 12.4   91.633  119.347   91.633  119.347
 rs_pw_transfer_RS2PW_200            68 10.0    3.776    4.463   89.854  117.395
 mp_alltoall_d11v                   940 10.3   80.814  106.525   80.814  106.525
 rs_gather_matrices                  66 11.0    0.250    0.280   79.627  105.460
 qs_scf_new_mos                      65  6.0    0.001    0.002   81.273   81.334
 qs_vxc_create                       66  9.0    0.002    0.003   77.847   78.773
 xc_vxc_pw_create                    66 10.0    1.729    2.188   77.844   78.771
 eigensolver                         65  7.0    0.006    0.008   73.383   73.476
 x_to_yz                           1990 16.3   43.911   50.865   67.155   70.701
 mp_alltoall_z22v                  3166 17.1   41.537   61.996   41.537   61.996
 xc_pw_derive                       396 12.0    0.007    0.008   52.511   55.488
 apply_poisson_operator_fft          66 11.0    0.001    0.001   49.998   50.262
 cp_fm_diag_elpa                     66  8.0    0.001    0.001   46.661   46.776
 cp_fm_diag_elpa_base                66  9.0   45.655   45.767   46.541   46.615
 yz_to_x                           1176 15.8   12.286   13.057   30.578   43.214
 xc_rho_set_and_dset_create          66 11.0    0.752    0.925   40.619   41.464
 apply_inv_laplace_operator_fft     173 11.6    1.420    1.538   38.519   39.701
 pw_scatter_p                      1990 15.3   33.837   37.725   33.837   37.725
 xc_pw_divergence                    66 11.0    0.004    0.004   34.443   36.353
 ps_implicit_compute_veps            66 11.0    0.795    0.938   34.792   35.584
 gspace_mixing                       64  6.0    0.351    0.375   31.150   31.150
 pw_derive                         1422 13.1   27.032   28.671   27.032   28.671
 ps_implicit_compute_error_fft      105 10.9    1.946    2.085   26.173   27.999
 cp_fm_triangular_multiply          195  8.0   25.931   26.174   25.931   26.174
 potential_pw2rs                     66 11.0    0.053    0.061   25.606   25.729
 broyden_mixing                      64  7.0   22.771   23.100   23.329   23.475
 pw_gather_p                       1176 14.8   17.894   18.694   17.894   18.694
 -------------------------------------------------------------------------------

 The number of warnings for this run is : 1
 
 -------------------------------------------------------------------------------
  **** **** ******  **  PROGRAM ENDED AT                 2023-12-03 02:48:11.032
 ***** ** ***  *** **   PROGRAM RAN ON                                     cu042
 **    ****   ******    PROGRAM RAN BY                                     jxzhu
 ***** **    ** ** **   PROGRAM PROCESS ID                                  7777
  **** **  *******  **  PROGRAM STOPPED IN /public/home/jxzhu/tmp_calc/04c0855f9
                                           8753fac23fde4df51ba20f3741a9e9a/calc/
                                           task.001.000025
