 DBCSR| CPU Multiplication driver                                           XSMM
 DBCSR| Multrec recursion limit                                              512
 DBCSR| Multiplication stack size                                           1000
 DBCSR| Maximum elements for images                                    UNLIMITED
 DBCSR| Multiplicative factor virtual images                                   1
 DBCSR| Use multiplication densification                                       T
 DBCSR| Multiplication size stacks                                             3
 DBCSR| Use memory pool for CPU allocation                                     F
 DBCSR| Number of 3D layers                                               SINGLE
 DBCSR| Use MPI memory allocation                                              F
 DBCSR| Use RMA algorithm                                                      F
 DBCSR| Use Communication thread                                               T
 DBCSR| Communication thread load                                             87
 DBCSR| MPI: My node id                                                        0
 DBCSR| MPI: Number of nodes                                                 128
 DBCSR| OMP: Current number of threads                                         1
 DBCSR| OMP: Max number of threads                                             1
 DBCSR| Split modifier for TAS multiplication algorithm                  1.0E+00


  **** **** ******  **  PROGRAM STARTED AT               2023-12-02 13:09:59.672
 ***** ** ***  *** **   PROGRAM STARTED ON                                 cu098
 **    ****   ******    PROGRAM STARTED BY                                 jxzhu
 ***** **    ** ** **   PROGRAM PROCESS ID                                 61381
  **** **  *******  **  PROGRAM STARTED IN /public/home/jxzhu/tmp_calc/3207074c8
                                           dcbce83a47c7af79bf1f3876774f1cc/calc/
                                           001500.000/search_hi.000000

 CP2K| version string:                                       CP2K version 2022.1
 CP2K| source code revision number:                                  git:2caeb6f
 CP2K| cp2kflags: omp libint fftw3 libxc elpa parallel mpi3 scalapack cosma xsmm
 CP2K|             plumed2 spglib mkl sirius libvori libbqb
 CP2K| is freely available from                            https://www.cp2k.org/
 CP2K| Program compiled at                           Mon Jul 3 17:37:06 CST 2023
 CP2K| Program compiled on                                                 mu003
 CP2K| Program compiled for                                                local
 CP2K| Data directory path                             /public/home/jxzhu/basis/
 CP2K| Input file name                                                 input.inp
 
 GLOBAL| Force Environment number                                              1
 GLOBAL| Basis set file name                                        BASIS_MOLOPT
 GLOBAL| Potential file name                                      GTH_POTENTIALS
 GLOBAL| MM Potential file name                                     MM_POTENTIAL
 GLOBAL| Coordinate file name                                          coord.xyz
 GLOBAL| Method name                                                        CP2K
 GLOBAL| Project name                                                       cp2k
 GLOBAL| Run type                                                   ENERGY_FORCE
 GLOBAL| FFT library                                                       FFTW3
 GLOBAL| Diagonalization library                                            ELPA
 GLOBAL| Minimum number of eigenvectors for ELPA usage                        16
 GLOBAL| Orthonormality check for eigenvectors                          DISABLED
 GLOBAL| Matrix multiplication library                                     COSMA
 GLOBAL| All-to-all communication in single precision                          F
 GLOBAL| FFTs using library dependent lengths                                  T
 GLOBAL| Grid backend                                                       AUTO
 GLOBAL| Global print level                                               MEDIUM
 GLOBAL| MPI I/O enabled                                                       T
 GLOBAL| Total number of message passing processes                           128
 GLOBAL| Number of threads for this process                                    1
 GLOBAL| This output is from process                                           0
 GLOBAL| Stack size for threads created by OpenMP (OMP_STACKSIZE)        default
 GLOBAL| CPU model name                 Intel(R) Xeon(R) Gold 6338 CPU @ 2.00GHz
 GLOBAL| CPUID                                                              1003

 MEMORY| system memory details [Kb]
 MEMORY|                        rank 0           min           max       average
 MEMORY| MemTotal            263619172     263619172     263619172     263619172
 MEMORY| MemFree             222947856     222947856     223945532     223445061
 MEMORY| Buffers                    28            28          3320          1674
 MEMORY| Cached                1738032       1290672       1738032       1514352
 MEMORY| Slab                  1284444       1204048       1284444       1244246
 MEMORY| SReclaimable           226392        226392        249264        237828
 MEMORY| MemLikelyFree       224912308     224912308     225488788     225198915


 *** Fundamental physical constants (SI units) ***

 *** Literature: B. J. Mohr and B. N. Taylor,
 ***             CODATA recommended values of the fundamental physical
 ***             constants: 2006, Web Version 5.1
 ***             http://physics.nist.gov/constants

 Speed of light in vacuum [m/s]                             2.99792458000000E+08
 Magnetic constant or permeability of vacuum [N/A**2]       1.25663706143592E-06
 Electric constant or permittivity of vacuum [F/m]          8.85418781762039E-12
 Planck constant (h) [J*s]                                  6.62606896000000E-34
 Planck constant (h-bar) [J*s]                              1.05457162825177E-34
 Elementary charge [C]                                      1.60217648700000E-19
 Electron mass [kg]                                         9.10938215000000E-31
 Electron g factor [ ]                                     -2.00231930436220E+00
 Proton mass [kg]                                           1.67262163700000E-27
 Fine-structure constant                                    7.29735253760000E-03
 Rydberg constant [1/m]                                     1.09737315685270E+07
 Avogadro constant [1/mol]                                  6.02214179000000E+23
 Boltzmann constant [J/K]                                   1.38065040000000E-23
 Atomic mass unit [kg]                                      1.66053878200000E-27
 Bohr radius [m]                                            5.29177208590000E-11

 *** Conversion factors ***

 [u] -> [a.u.]                                              1.82288848426455E+03
 [Angstrom] -> [Bohr] = [a.u.]                              1.88972613288564E+00
 [a.u.] = [Bohr] -> [Angstrom]                              5.29177208590000E-01
 [a.u.] -> [s]                                              2.41888432650478E-17
 [a.u.] -> [fs]                                             2.41888432650478E-02
 [a.u.] -> [J]                                              4.35974393937059E-18
 [a.u.] -> [N]                                              8.23872205491840E-08
 [a.u.] -> [K]                                              3.15774647902944E+05
 [a.u.] -> [kJ/mol]                                         2.62549961709828E+03
 [a.u.] -> [kcal/mol]                                       6.27509468713739E+02
 [a.u.] -> [Pa]                                             2.94210107994716E+13
 [a.u.] -> [bar]                                            2.94210107994716E+08
 [a.u.] -> [atm]                                            2.90362800883016E+08
 [a.u.] -> [eV]                                             2.72113838565563E+01
 [a.u.] -> [Hz]                                             6.57968392072181E+15
 [a.u.] -> [1/cm] (wave numbers)                            2.19474631370540E+05
 [a.u./Bohr**2] -> [1/cm]                                   5.14048714338585E+03
 

 CELL_TOP| Volume [angstrom^3]:                                     17614.982639
 CELL_TOP| Vector a [angstrom    16.869     0.000     0.000   |a| =    16.869000
 CELL_TOP| Vector b [angstrom    -8.434    14.609     0.000   |b| =    16.869015
 CELL_TOP| Vector c [angstrom     0.000     0.000    71.478   |c| =    71.478000
 CELL_TOP| Angle (b,c), alpha [degree]:                                90.000000
 CELL_TOP| Angle (a,c), beta  [degree]:                                90.000000
 CELL_TOP| Angle (a,b), gamma [degree]:                               119.999970
 CELL_TOP| Numerically orthorhombic:                                          NO
 
 GENERATE|  Preliminary Number of Bonds generated:                             0
 GENERATE|  Achieved consistency in connectivity generation.

 CELL| Volume [angstrom^3]:                                         17614.982639
 CELL| Vector a [angstrom]:      16.869     0.000     0.000   |a| =    16.869000
 CELL| Vector b [angstrom]:      -8.434    14.609     0.000   |b| =    16.869015
 CELL| Vector c [angstrom]:       0.000     0.000    71.478   |c| =    71.478000
 CELL| Angle (b,c), alpha [degree]:                                    90.000000
 CELL| Angle (a,c), beta  [degree]:                                    90.000000
 CELL| Angle (a,b), gamma [degree]:                                   119.999970
 CELL| Numerically orthorhombic:                                              NO

 CELL_REF| Volume [angstrom^3]:                                     17614.982639
 CELL_REF| Vector a [angstrom    16.869     0.000     0.000   |a| =    16.869000
 CELL_REF| Vector b [angstrom    -8.434    14.609     0.000   |b| =    16.869015
 CELL_REF| Vector c [angstrom     0.000     0.000    71.478   |c| =    71.478000
 CELL_REF| Angle (b,c), alpha [degree]:                                90.000000
 CELL_REF| Angle (a,c), beta  [degree]:                                90.000000
 CELL_REF| Angle (a,b), gamma [degree]:                               119.999970
 CELL_REF| Numerically orthorhombic:                                          NO

 *******************************************************************************
 *******************************************************************************
 **                                                                           **
 **     #####                         ##              ##                      **
 **    ##   ##            ##          ##              ##                      **
 **   ##     ##                       ##            ######                    **
 **   ##     ##  ##   ##  ##   #####  ##  ##   ####   ##    #####    #####    **
 **   ##     ##  ##   ##  ##  ##      ## ##   ##      ##   ##   ##  ##   ##   **
 **   ##  ## ##  ##   ##  ##  ##      ####     ###    ##   ######   ######    **
 **    ##  ###   ##   ##  ##  ##      ## ##      ##   ##   ##       ##        **
 **     #######   #####   ##   #####  ##  ##  ####    ##    #####   ##        **
 **           ##                                                    ##        **
 **                                                                           **
 **                                                ... make the atoms dance   **
 **                                                                           **
 **            Copyright (C) by CP2K developers group (2000-2022)             **
 **                      J. Chem. Phys. 152, 194103 (2020)                    **
 **                                                                           **
 *******************************************************************************

 DFT| Spin restricted Kohn-Sham (RKS) calculation                            RKS
 DFT| Multiplicity                                                             1
 DFT| Number of spin states                                                    1
 DFT| Charge                                                                   0
 DFT| Self-interaction correction (SIC)                                       NO
 DFT| Cutoffs: density                                              1.000000E-10
 DFT|          gradient                                             1.000000E-10
 DFT|          tau                                                  1.000000E-10
 DFT|          cutoff_smoothing_range                               0.000000E+00
 DFT| XC density smoothing                                                  NONE
 DFT| XC derivatives                                                          PW

 FUNCTIONAL| PBE:
 FUNCTIONAL| J.P.Perdew, K.Burke, M.Ernzerhof, Phys. Rev. Letter, vol. 77, n 18,
 FUNCTIONAL|  pp. 3865-3868, (1996){spin unpolarized}                           

 vdW POTENTIAL|                                                   Pair Potential
 vdW POTENTIAL|          DFT-D3 (Version 3.1)
 vdW POTENTIAL|          Potential Form: S. Grimme et al, JCP 132: 154104 (2010)
 vdW POTENTIAL|          Zero Damping
 vdW POTENTIAL|          Cutoff Radius [Bohr]:                             20.00
 vdW POTENTIAL|          s6 Scaling Factor:                               1.0000
 vdW POTENTIAL|          sr6 Scaling Factor:                              1.2170
 vdW POTENTIAL|          s8 Scaling Factor:                               0.7220
 vdW POTENTIAL|          Cutoff for CN calculation:                   0.1000E-05

 QS| Method:                                                                 GPW
 QS| Density plane wave grid type                        NON-SPHERICAL FULLSPACE
 QS| Number of grid levels:                                                    4
 QS| Density cutoff [a.u.]:                                                200.0
 QS| Multi grid cutoff [a.u.]: 1) grid level                               200.0
 QS|                           2) grid level                                66.7
 QS|                           3) grid level                                22.2
 QS|                           4) grid level                                 7.4
 QS| Grid level progression factor:                                          3.0
 QS| Relative density cutoff [a.u.]:                                        20.0
 QS| Interaction thresholds: eps_pgf_orb:                                3.2E-07
 QS|                         eps_filter_matrix:                          0.0E+00
 QS|                         eps_core_charge:                            1.0E-15
 QS|                         eps_rho_gspace:                             1.0E-13
 QS|                         eps_rho_rspace:                             1.0E-13
 QS|                         eps_gvg_rspace:                             3.2E-07
 QS|                         eps_ppl:                                    1.0E-02
 QS|                         eps_ppnl:                                   3.2E-09


 ATOMIC KIND INFORMATION

  1. Atomic kind: O                                     Number of atoms:     102

     Orbital Basis Set                                        DZVP-MOLOPT-SR-GTH

       Number of orbital shell sets:                                           1
       Number of orbital shells:                                               5
       Number of primitive Cartesian functions:                                5
       Number of Cartesian basis functions:                                   14
       Number of spherical basis functions:                                   13
       Norm type:                                                              2

       Normalised Cartesian orbitals:

                        Set   Shell   Orbital            Exponent    Coefficient

                          1       1    2s               10.389228       0.396646
                                                         3.849621       0.208811
                                                         1.388401      -0.301641
                                                         0.496955      -0.274061
                                                         0.162492      -0.033677

                          1       2    3s               10.389228       0.303673
                                                         3.849621       0.240943
                                                         1.388401      -0.313066
                                                         0.496955      -0.043055
                                                         0.162492       0.213991

                          1       3    3px              10.389228      -1.530415
                                                         3.849621      -1.371928
                                                         1.388401      -0.761951
                                                         0.496955      -0.253695
                                                         0.162492      -0.035541
                          1       3    3py              10.389228      -1.530415
                                                         3.849621      -1.371928
                                                         1.388401      -0.761951
                                                         0.496955      -0.253695
                                                         0.162492      -0.035541
                          1       3    3pz              10.389228      -1.530415
                                                         3.849621      -1.371928
                                                         1.388401      -0.761951
                                                         0.496955      -0.253695
                                                         0.162492      -0.035541

                          1       4    4px              10.389228      -0.565392
                                                         3.849621      -0.038231
                                                         1.388401      -0.382373
                                                         0.496955       0.179070
                                                         0.162492       0.122714
                          1       4    4py              10.389228      -0.565392
                                                         3.849621      -0.038231
                                                         1.388401      -0.382373
                                                         0.496955       0.179070
                                                         0.162492       0.122714
                          1       4    4pz              10.389228      -0.565392
                                                         3.849621      -0.038231
                                                         1.388401      -0.382373
                                                         0.496955       0.179070
                                                         0.162492       0.122714

                          1       5    4dx2             10.389228       1.867377
                                                         3.849621       0.670994
                                                         1.388401       1.353441
                                                         0.496955       0.273538
                                                         0.162492       0.006620
                          1       5    4dxy             10.389228       3.234392
                                                         3.849621       1.162195
                                                         1.388401       2.344229
                                                         0.496955       0.473781
                                                         0.162492       0.011466
                          1       5    4dxz             10.389228       3.234392
                                                         3.849621       1.162195
                                                         1.388401       2.344229
                                                         0.496955       0.473781
                                                         0.162492       0.011466
                          1       5    4dy2             10.389228       1.867377
                                                         3.849621       0.670994
                                                         1.388401       1.353441
                                                         0.496955       0.273538
                                                         0.162492       0.006620
                          1       5    4dyz             10.389228       3.234392
                                                         3.849621       1.162195
                                                         1.388401       2.344229
                                                         0.496955       0.473781
                                                         0.162492       0.011466
                          1       5    4dz2             10.389228       1.867377
                                                         3.849621       0.670994
                                                         1.388401       1.353441
                                                         0.496955       0.273538
                                                         0.162492       0.006620

       Atomic covalent radius [Angstrom]:                                  0.730

       Atomic van der Waals radius [Angstrom]:                             1.520

     GTH Potential information for                                    GTH-PBE-q6

       Description:                       Goedecker-Teter-Hutter pseudopotential
                                           Goedecker et al., PRB 54, 1703 (1996)
                                          Hartwigsen et al., PRB 58, 3641 (1998)
                                                      Krack, TCA 114, 145 (2005)

       Gaussian exponent of the core charge distribution:               8.360253
       Electronic configuration (s p d ...):                               2   4

       Parameters of the local part of the GTH pseudopotential:

                          rloc        C1          C2          C3          C4
                        0.244554  -16.667215    2.487311

       Parameters of the non-local part of the GTH pseudopotential:

                   l      r(l)      h(i,j,l)

                   0    0.220956   18.337458
                   1    0.211332

  2. Atomic kind: H                                     Number of atoms:     204

     Orbital Basis Set                                        DZVP-MOLOPT-SR-GTH

       Number of orbital shell sets:                                           1
       Number of orbital shells:                                               3
       Number of primitive Cartesian functions:                                5
       Number of Cartesian basis functions:                                    5
       Number of spherical basis functions:                                    5
       Norm type:                                                              2

       Normalised Cartesian orbitals:

                        Set   Shell   Orbital            Exponent    Coefficient

                          1       1    2s               10.068468      -0.133023
                                                         2.680223      -0.177618
                                                         0.791502      -0.258419
                                                         0.239116      -0.107525
                                                         0.082193      -0.014019

                          1       2    3s               10.068468       0.344673
                                                         2.680223       1.819821
                                                         0.791502      -0.999069
                                                         0.239116       0.017430
                                                         0.082193       0.082660

                          1       3    3px              10.068468       0.155326
                                                         2.680223       0.367157
                                                         0.791502       0.311480
                                                         0.239116       0.080105
                                                         0.082193       0.033440
                          1       3    3py              10.068468       0.155326
                                                         2.680223       0.367157
                                                         0.791502       0.311480
                                                         0.239116       0.080105
                                                         0.082193       0.033440
                          1       3    3pz              10.068468       0.155326
                                                         2.680223       0.367157
                                                         0.791502       0.311480
                                                         0.239116       0.080105
                                                         0.082193       0.033440

       Atomic covalent radius [Angstrom]:                                  0.320

       Atomic van der Waals radius [Angstrom]:                             1.090

     GTH Potential information for                                    GTH-PBE-q1

       Description:                       Goedecker-Teter-Hutter pseudopotential
                                           Goedecker et al., PRB 54, 1703 (1996)
                                          Hartwigsen et al., PRB 58, 3641 (1998)
                                                      Krack, TCA 114, 145 (2005)

       Gaussian exponent of the core charge distribution:              12.500000
       Electronic configuration (s p d ...):                                   1

       Parameters of the local part of the GTH pseudopotential:

                          rloc        C1          C2          C3          C4
                        0.200000   -4.178900    0.724463

  3. Atomic kind: Pt                                    Number of atoms:     216

     Orbital Basis Set                      DZVP-A5-Q10-323-MOL-T1-DERIVED_SET-1

       Number of orbital shell sets:                                           1
       Number of orbital shells:                                               6
       Number of primitive Cartesian functions:                                5
       Number of Cartesian basis functions:                                   23
       Number of spherical basis functions:                                   20
       Norm type:                                                              2

       Normalised Cartesian orbitals:

                        Set   Shell   Orbital            Exponent    Coefficient

                          1       1    2s                2.521825       0.177473
                                                         1.453920      -0.063399
                                                         0.614053      -0.407089
                                                         0.232656       0.262254
                                                         0.074788       0.047371

                          1       2    3s                2.521825      -0.049056
                                                         1.453920       0.044904
                                                         0.614053      -0.009756
                                                         0.232656      -0.144709
                                                         0.074788       0.144085

                          1       3    3px               2.521825      -0.317572
                                                         1.453920       0.534826
                                                         0.614053      -0.489458
                                                         0.232656       0.245631
                                                         0.074788       0.018221
                          1       3    3py               2.521825      -0.317572
                                                         1.453920       0.534826
                                                         0.614053      -0.489458
                                                         0.232656       0.245631
                                                         0.074788       0.018221
                          1       3    3pz               2.521825      -0.317572
                                                         1.453920       0.534826
                                                         0.614053      -0.489458
                                                         0.232656       0.245631
                                                         0.074788       0.018221

                          1       4    4dx2              2.521825       3.008522
                                                         1.453920      -1.224251
                                                         0.614053       0.225691
                                                         0.232656       0.125144
                                                         0.074788      -0.015348
                          1       4    4dxy              2.521825       5.210912
                                                         1.453920      -2.120465
                                                         0.614053       0.390909
                                                         0.232656       0.216756
                                                         0.074788      -0.026584
                          1       4    4dxz              2.521825       5.210912
                                                         1.453920      -2.120465
                                                         0.614053       0.390909
                                                         0.232656       0.216756
                                                         0.074788      -0.026584
                          1       4    4dy2              2.521825       3.008522
                                                         1.453920      -1.224251
                                                         0.614053       0.225691
                                                         0.232656       0.125144
                                                         0.074788      -0.015348
                          1       4    4dyz              2.521825       5.210912
                                                         1.453920      -2.120465
                                                         0.614053       0.390909
                                                         0.232656       0.216756
                                                         0.074788      -0.026584
                          1       4    4dz2              2.521825       3.008522
                                                         1.453920      -1.224251
                                                         0.614053       0.225691
                                                         0.232656       0.125144
                                                         0.074788      -0.015348

                          1       5    5dx2              2.521825       0.698026
                                                         1.453920      -1.511486
                                                         0.614053      -0.335394
                                                         0.232656      -0.025564
                                                         0.074788      -0.002699
                          1       5    5dxy              2.521825       1.209017
                                                         1.453920      -2.617970
                                                         0.614053      -0.580920
                                                         0.232656      -0.044277
                                                         0.074788      -0.004674
                          1       5    5dxz              2.521825       1.209017
                                                         1.453920      -2.617970
                                                         0.614053      -0.580920
                                                         0.232656      -0.044277
                                                         0.074788      -0.004674
                          1       5    5dy2              2.521825       0.698026
                                                         1.453920      -1.511486
                                                         0.614053      -0.335394
                                                         0.232656      -0.025564
                                                         0.074788      -0.002699
                          1       5    5dyz              2.521825       1.209017
                                                         1.453920      -2.617970
                                                         0.614053      -0.580920
                                                         0.232656      -0.044277
                                                         0.074788      -0.004674
                          1       5    5dz2              2.521825       0.698026
                                                         1.453920      -1.511486
                                                         0.614053      -0.335394
                                                         0.232656      -0.025564
                                                         0.074788      -0.002699

                          1       6    6dx2              2.521825       0.831079
                                                         1.453920      -0.709226
                                                         0.614053      -0.137351
                                                         0.232656       0.068642
                                                         0.074788       0.011745
                          1       6    6dxy              2.521825       1.439472
                                                         1.453920      -1.228415
                                                         0.614053      -0.237899
                                                         0.232656       0.118891
                                                         0.074788       0.020343
                          1       6    6dxz              2.521825       1.439472
                                                         1.453920      -1.228415
                                                         0.614053      -0.237899
                                                         0.232656       0.118891
                                                         0.074788       0.020343
                          1       6    6dy2              2.521825       0.831079
                                                         1.453920      -0.709226
                                                         0.614053      -0.137351
                                                         0.232656       0.068642
                                                         0.074788       0.011745
                          1       6    6dyz              2.521825       1.439472
                                                         1.453920      -1.228415
                                                         0.614053      -0.237899
                                                         0.232656       0.118891
                                                         0.074788       0.020343
                          1       6    6dz2              2.521825       0.831079
                                                         1.453920      -0.709226
                                                         0.614053      -0.137351
                                                         0.232656       0.068642
                                                         0.074788       0.011745

       Atomic covalent radius [Angstrom]:                                  1.300

       Atomic van der Waals radius [Angstrom]:                             1.750

     GTH Potential information for                                   GTH-PBE-q10

       Description:                       Goedecker-Teter-Hutter pseudopotential
                                           Goedecker et al., PRB 54, 1703 (1996)
                                          Hartwigsen et al., PRB 58, 3641 (1998)
                                                      Krack, TCA 114, 145 (2005)

       Gaussian exponent of the core charge distribution:               1.317676
       Electronic configuration (s p d ...):                           1   0   9

       Parameters of the local part of the GTH pseudopotential:

                          rloc        C1          C2          C3          C4
                        0.616000   11.313635

       Parameters of the non-local part of the GTH pseudopotential:

                   l      r(l)      h(i,j,l)

                   0    0.550904    4.733491   -1.784594
                                   -1.784594    2.303901
                   1    0.674138    2.534798   -1.778066
                                   -1.778066    2.103836
                   2    0.457392   -7.264011    2.558665
                                    2.558665   -2.901253


 MOLECULE KIND INFORMATION


 All atoms are their own molecule, skipping detailed information


 TOTAL NUMBERS AND MAXIMUM NUMBERS

  Total number of            - Atomic kinds:                                   3
                             - Atoms:                                        522
                             - Shell sets:                                   522
                             - Shells:                                      2418
                             - Primitive Cartesian functions:               2610
                             - Cartesian basis functions:                   7416
                             - Spherical basis functions:                   6666

  Maximum angular momentum of- Orbital basis functions:                        2
                             - Local part of the GTH pseudopotential:          2
                             - Non-local part of the GTH pseudopotential:      4


 MODULE QUICKSTEP:  ATOMIC COORDINATES IN angstrom

 Atom  Kind  Element       X           Y           Z          Z(eff)       Mass
    1   1 O    8     -26.800001  -24.860001   38.367998       6.0000     15.9994
    2   2 H    1     -26.650002  -23.990002   38.898001       1.0000      1.0079
    3   2 H    1     -25.940001  -24.860001   37.918000       1.0000      1.0079
    4   1 O    8       0.900000    1.600000   39.768000       6.0000     15.9994
    5   2 H    1       0.160000    2.270000   39.928000       1.0000      1.0079
    6   2 H    1       1.610000    2.250000   39.508000       1.0000      1.0079
    7   1 O    8     -10.700001  -13.730000   32.287999       6.0000     15.9994
    8   2 H    1     -11.630001  -13.140000   32.338000       1.0000      1.0079
    9   2 H    1     -10.810001  -14.690001   32.498000       1.0000      1.0079
   10   1 O    8      -1.010000   -7.820001   35.177998       6.0000     15.9994
   11   2 H    1      -1.870000   -8.020000   35.727999       1.0000      1.0079
   12   2 H    1      -1.070000   -8.510000   34.438000       1.0000      1.0079
   13   1 O    8      -1.830000   16.750000   30.158001       6.0000     15.9994
   14   2 H    1      -2.350000   15.910001   29.987999       1.0000      1.0079
   15   2 H    1      -1.680000   17.130001   29.258000       1.0000      1.0079
   16   1 O    8      -3.320000   -8.590000   36.587998       6.0000     15.9994
   17   2 H    1      -3.840000   -9.060000   35.848000       1.0000      1.0079
   18   2 H    1      -2.980000   -9.350000   37.128001       1.0000      1.0079
   19   1 O    8      18.630001   -2.860000   39.558001       6.0000     15.9994
   20   2 H    1      18.820002   -2.690000   40.537999       1.0000      1.0079
   21   2 H    1      19.050001   -2.060000   39.087998       1.0000      1.0079
   22   1 O    8     -15.100001   35.310001   30.397999       6.0000     15.9994
   23   2 H    1     -15.360001   34.340004   30.267998       1.0000      1.0079
   24   2 H    1       2.580000   35.270000   29.887997       1.0000      1.0079
   25   1 O    8      -9.680000   22.630001   32.207999       6.0000     15.9994
   26   2 H    1      -9.940001   21.700001   32.557999       1.0000      1.0079
   27   2 H    1     -10.160000   23.350000   32.668000       1.0000      1.0079
   28   1 O    8     -12.180000   -3.040000   36.748000       6.0000     15.9994
   29   2 H    1     -12.490001   -2.390000   36.057999       1.0000      1.0079
   30   2 H    1     -12.100000   -2.620000   37.567999       1.0000      1.0079
   31   1 O    8      -6.370000    8.790001   32.028000       6.0000     15.9994
   32   2 H    1      -5.680000    8.800000   31.297999       1.0000      1.0079
   33   2 H    1      -6.430000    7.850000   32.317997       1.0000      1.0079
   34   1 O    8     -10.580001  -35.040001   39.307999       6.0000     15.9994
   35   2 H    1     -10.470000  -35.720001   39.948000       1.0000      1.0079
   36   2 H    1     -11.120001  -35.450001   38.618000       1.0000      1.0079
   37   1 O    8     -13.670001    6.760001   32.697998       6.0000     15.9994
   38   2 H    1     -14.430000    7.320001   33.077999       1.0000      1.0079
   39   2 H    1     -14.070001    6.380000   31.887999       1.0000      1.0079
   40   1 O    8     -21.840000   19.680000   34.858000       6.0000     15.9994
   41   2 H    1     -21.790001   18.820002   34.278000       1.0000      1.0079
   42   2 H    1     -21.740000   20.360001   34.077999       1.0000      1.0079
   43   1 O    8      15.970001   10.820000   36.147999       6.0000     15.9994
   44   2 H    1      15.010000   10.880001   36.477999       1.0000      1.0079
   45   2 H    1      16.520000   11.350001   36.858000       1.0000      1.0079
   46   1 O    8     -18.730001   10.400001   33.538000       6.0000     15.9994
   47   2 H    1     -28.140001   24.920002   33.827999       1.0000      1.0079
   48   2 H    1     -18.310001   10.900001   34.368000       1.0000      1.0079
   49   1 O    8      -5.790000    5.910000   32.467999       6.0000     15.9994
   50   2 H    1      -6.000000    5.830000   31.457999       1.0000      1.0079
   51   2 H    1      -6.290000    5.330000   32.967999       1.0000      1.0079
   52   1 O    8     -21.350000    4.770000   36.967999       6.0000     15.9994
   53   2 H    1     -21.220001    5.730000   37.058001       1.0000      1.0079
   54   2 H    1     -20.500002    4.370000   37.298001       1.0000      1.0079
   55   1 O    8       0.690000   11.630001   38.147999       6.0000     15.9994
   56   2 H    1       1.690000   11.770000   38.147999       1.0000      1.0079
   57   2 H    1       0.500000   10.890001   38.787999       1.0000      1.0079
   58   1 O    8     -34.470001   23.490002   33.157999       6.0000     15.9994
   59   2 H    1     -34.420002   22.850000   33.868000       1.0000      1.0079
   60   2 H    1     -34.370003   24.400002   33.577999       1.0000      1.0079
   61   1 O    8     -19.630001  -14.090000   35.637999       6.0000     15.9994
   62   2 H    1     -18.660000  -14.370001   35.678000       1.0000      1.0079
   63   2 H    1     -19.620001  -13.300000   34.958001       1.0000      1.0079
   64   1 O    8      41.220001   -9.170000   29.107998       6.0000     15.9994
   65   2 H    1      40.380001   -9.220000   29.598000       1.0000      1.0079
   66   2 H    1      41.570000  -10.050000   29.327999       1.0000      1.0079
   67   1 O    8     -38.180000    0.610000   35.908001       6.0000     15.9994
   68   2 H    1     -21.330002   -0.230000   36.538000       1.0000      1.0079
   69   2 H    1     -20.430000    0.910000   35.967999       1.0000      1.0079
   70   1 O    8     -11.740000   22.250002   37.177998       6.0000     15.9994
   71   2 H    1     -12.330000   22.840002   36.628001       1.0000      1.0079
   72   2 H    1     -10.870000   22.110003   36.748000       1.0000      1.0079
   73   1 O    8      20.990002    3.150000   30.548001       6.0000     15.9994
   74   2 H    1      20.810001    3.320000   31.487999       1.0000      1.0079
   75   2 H    1      21.850002    2.670000   30.518002       1.0000      1.0079
   76   1 O    8       2.060000    7.540000   38.057999       6.0000     15.9994
   77   2 H    1       3.000000    7.960001   37.827999       1.0000      1.0079
   78   2 H    1       2.190000    6.670001   37.688000       1.0000      1.0079
   79   1 O    8       8.020000   15.770000   34.198000       6.0000     15.9994
   80   2 H    1       7.270000   15.630001   33.567997       1.0000      1.0079
   81   2 H    1       8.340000   16.730001   34.038000       1.0000      1.0079
   82   1 O    8     -28.530003   -1.520000   32.347998       6.0000     15.9994
   83   2 H    1     -29.300001   -1.630000   32.987999       1.0000      1.0079
   84   2 H    1     -28.290003   -2.410000   32.028000       1.0000      1.0079
   85   1 O    8     -19.170000   16.940001   33.618000       6.0000     15.9994
   86   2 H    1     -18.640001   17.810001   33.467999       1.0000      1.0079
   87   2 H    1     -18.630001   16.160000   33.157999       1.0000      1.0079
   88   1 O    8      -4.210001   -5.780000   37.418000       6.0000     15.9994
   89   2 H    1      -4.000000   -5.550000   38.418000       1.0000      1.0079
   90   2 H    1      -3.590000   -6.570000   37.268000       1.0000      1.0079
   91   1 O    8       8.640000    9.810000   38.548001       6.0000     15.9994
   92   2 H    1       9.210001    9.130000   38.077999       1.0000      1.0079
   93   2 H    1       9.360001   10.490000   38.877999       1.0000      1.0079
   94   1 O    8     -23.390003    1.080000   39.428000       6.0000     15.9994
   95   2 H    1     -23.320000    0.100000   39.747998       1.0000      1.0079
   96   2 H    1     -23.990002    1.550000   40.008000       1.0000      1.0079
   97   1 O    8      -5.060000    9.590000   39.938000       6.0000     15.9994
   98   2 H    1      -4.150000    9.450001   39.827999       1.0000      1.0079
   99   2 H    1      -5.440001   10.460000   39.598000       1.0000      1.0079
  100   1 O    8       4.760000    8.520000   30.117997       6.0000     15.9994
  101   2 H    1       5.170000    8.630000   30.987999       1.0000      1.0079
  102   2 H    1       5.540000    8.540000   29.487999       1.0000      1.0079
  103   1 O    8      -1.190000   34.970001   33.678000       6.0000     15.9994
  104   2 H    1      -2.100000   34.760002   34.038000       1.0000      1.0079
  105   2 H    1      -0.610000   35.330002   34.368000       1.0000      1.0079
  106   1 O    8       1.800000    0.260000   32.607998       6.0000     15.9994
  107   2 H    1      -7.450001   15.050001   33.077999       1.0000      1.0079
  108   2 H    1       1.750000    0.800000   31.757998       1.0000      1.0079
  109   1 O    8      10.470000    2.110000   32.217999       6.0000     15.9994
  110   2 H    1      10.060000    1.960000   31.348000       1.0000      1.0079
  111   2 H    1      10.510000    1.240000   32.637999       1.0000      1.0079
  112   1 O    8      17.310001    3.490000   30.258000       6.0000     15.9994
  113   2 H    1      17.350002    3.680000   31.217999       1.0000      1.0079
  114   2 H    1      18.040001    2.830000   30.077999       1.0000      1.0079
  115   1 O    8      24.480001   -1.050000   38.907999       6.0000     15.9994
  116   2 H    1      25.150002   -1.830000   38.717999       1.0000      1.0079
  117   2 H    1      24.610003   -0.760000   37.948000       1.0000      1.0079
  118   1 O    8      -6.290000   -9.820001   37.247998       6.0000     15.9994
  119   2 H    1      -5.950000  -10.500001   37.897999       1.0000      1.0079
  120   2 H    1      -5.810000   -9.700001   36.407999       1.0000      1.0079
  121   1 O    8      26.570000   -3.930000   29.758000       6.0000     15.9994
  122   2 H    1      27.030001   -3.350000   29.168000       1.0000      1.0079
  123   2 H    1      26.900002   -3.640000   30.668000       1.0000      1.0079
  124   1 O    8      -3.910000    2.830000   32.137999       6.0000     15.9994
  125   2 H    1      -3.930000    3.320000   32.998000       1.0000      1.0079
  126   2 H    1      -4.870000    2.530000   31.957999       1.0000      1.0079
  127   1 O    8       3.280000   17.840000   29.118000       6.0000     15.9994
  128   2 H    1       4.100000   18.440001   29.208001       1.0000      1.0079
  129   2 H    1       3.700000   17.000000   29.258000       1.0000      1.0079
  130   1 O    8      -7.580000   27.680000   33.817999       6.0000     15.9994
  131   2 H    1      -7.510000   26.820002   33.357998       1.0000      1.0079
  132   2 H    1      -8.240001   28.280001   33.457999       1.0000      1.0079
  133   1 O    8      -3.280000   12.910000   39.508000       6.0000     15.9994
  134   2 H    1      -2.400000   13.160001   39.147999       1.0000      1.0079
  135   2 H    1      -3.030000   12.900001   40.458000       1.0000      1.0079
  136   1 O    8     -18.790001   30.630001   36.327999       6.0000     15.9994
  137   2 H    1     -18.410000   29.880001   36.868000       1.0000      1.0079
  138   2 H    1     -18.140001   30.670002   35.548001       1.0000      1.0079
  139   1 O    8       1.930000   -0.190000   36.297999       6.0000     15.9994
  140   2 H    1       2.330000   -0.070000   37.207999       1.0000      1.0079
  141   2 H    1       1.660000    0.700000   36.057999       1.0000      1.0079
  142   1 O    8       5.930000  -16.370001   32.407999       6.0000     15.9994
  143   2 H    1       6.260000  -16.710001   31.497998       1.0000      1.0079
  144   2 H    1       5.120000  -16.780001   32.747998       1.0000      1.0079
  145   1 O    8      -0.700000   26.290001   36.887999       6.0000     15.9994
  146   2 H    1      -0.330000   26.530001   35.957999       1.0000      1.0079
  147   2 H    1      -0.280000   25.450001   37.147999       1.0000      1.0079
  148   1 O    8     -30.810001   32.350002   39.068001       6.0000     15.9994
  149   2 H    1     -30.710001   33.110001   39.798001       1.0000      1.0079
  150   2 H    1     -29.900002   32.050003   38.717999       1.0000      1.0079
  151   1 O    8       3.530000   21.930000   30.188000       6.0000     15.9994
  152   2 H    1      11.670000    7.200000   29.237999       1.0000      1.0079
  153   2 H    1     -12.440001   22.490002   30.098000       1.0000      1.0079
  154   1 O    8      -1.230000   -8.220000   31.167998       6.0000     15.9994
  155   2 H    1      -0.930000   -7.310000   31.368000       1.0000      1.0079
  156   2 H    1      -0.440000   -8.620001   30.637999       1.0000      1.0079
  157   1 O    8       7.490000    0.080000   32.647999       6.0000     15.9994
  158   2 H    1       7.880001    0.080000   31.748000       1.0000      1.0079
  159   2 H    1       6.840000   -0.660000   32.618000       1.0000      1.0079
  160   1 O    8       0.340000   14.290000   29.837998       6.0000     15.9994
  161   2 H    1       0.360000   14.150001   28.857998       1.0000      1.0079
  162   2 H    1       1.260000   14.120001   30.037999       1.0000      1.0079
  163   1 O    8     -22.090000    9.010000   36.048001       6.0000     15.9994
  164   2 H    1     -22.020000    9.290000   35.118000       1.0000      1.0079
  165   2 H    1     -21.920002    9.890000   36.427998       1.0000      1.0079
  166   1 O    8     -23.930000    1.510000   36.928000       6.0000     15.9994
  167   2 H    1     -22.980001    1.270000   36.587998       1.0000      1.0079
  168   2 H    1     -23.880001    1.310000   37.897999       1.0000      1.0079
  169   1 O    8      -1.100000    0.770000   30.067997       6.0000     15.9994
  170   2 H    1      -0.800000    1.620000   29.627999       1.0000      1.0079
  171   2 H    1      -1.520000    1.050000   30.957999       1.0000      1.0079
  172   1 O    8       0.530000    3.730000   33.098000       6.0000     15.9994
  173   2 H    1       1.340000    3.930000   33.638001       1.0000      1.0079
  174   2 H    1      -0.170000    4.360000   33.487999       1.0000      1.0079
  175   1 O    8      -7.400000    4.160000   36.638001       6.0000     15.9994
  176   2 H    1      -6.550000    4.570000   36.848000       1.0000      1.0079
  177   2 H    1      -7.380000    3.210000   36.798001       1.0000      1.0079
  178   1 O    8       8.240001   28.720001   36.188000       6.0000     15.9994
  179   2 H    1      17.380001   14.830000   36.348000       1.0000      1.0079
  180   2 H    1       8.680000   28.160002   35.537999       1.0000      1.0079
  181   1 O    8       5.220000   19.500000   30.307999       6.0000     15.9994
  182   2 H    1       5.190001   18.920000   31.067997       1.0000      1.0079
  183   2 H    1       4.750000   20.380001   30.477997       1.0000      1.0079
  184   1 O    8      19.990002   43.560005   33.448000       6.0000     15.9994
  185   2 H    1      20.570002   43.900002   34.208000       1.0000      1.0079
  186   2 H    1      19.250000   43.000000   33.838000       1.0000      1.0079
  187   1 O    8       9.110001   -5.330000   39.307999       6.0000     15.9994
  188   2 H    1       9.590000   -6.100000   38.798001       1.0000      1.0079
  189   2 H    1       8.160001   -5.600000   39.307999       1.0000      1.0079
  190   1 O    8      21.970001   40.490002   36.077999       6.0000     15.9994
  191   2 H    1      22.889999   40.520000   36.487999       1.0000      1.0079
  192   2 H    1      21.730001   39.550003   36.237999       1.0000      1.0079
  193   1 O    8      -3.670000   14.570000   30.117997       6.0000     15.9994
  194   2 H    1      -3.630000   13.970001   30.897999       1.0000      1.0079
  195   2 H    1       5.010000   -0.570000   29.357998       1.0000      1.0079
  196   1 O    8      -6.700000   12.030001   32.697998       6.0000     15.9994
  197   2 H    1      -6.310000   11.610001   31.857998       1.0000      1.0079
  198   2 H    1      -6.750000   12.970000   32.417998       1.0000      1.0079
  199   1 O    8     -15.900001    8.090000   33.267998       6.0000     15.9994
  200   2 H    1     -16.750000    7.970000   32.777998       1.0000      1.0079
  201   2 H    1     -16.150002    8.360001   34.178000       1.0000      1.0079
  202   1 O    8       5.930000   23.080002   29.897999       6.0000     15.9994
  203   2 H    1       6.220000   23.059999   28.967999       1.0000      1.0079
  204   2 H    1      15.150002    8.310000   30.528000       1.0000      1.0079
  205   1 O    8      12.370001   13.230000   34.747998       6.0000     15.9994
  206   2 H    1      13.010001   13.980001   34.967999       1.0000      1.0079
  207   2 H    1      11.580001   13.580000   35.297999       1.0000      1.0079
  208   1 O    8       4.000000   11.170001   30.117997       6.0000     15.9994
  209   2 H    1       4.060000   11.220001   29.087998       1.0000      1.0079
  210   2 H    1       4.050000   10.140000   30.207997       1.0000      1.0079
  211   1 O    8      -7.660000    2.640000   30.037999       6.0000     15.9994
  212   2 H    1      -7.500000    2.360000   29.107998       1.0000      1.0079
  213   2 H    1      -8.590000    2.320000   30.117997       1.0000      1.0079
  214   1 O    8      -0.400000    5.150001   38.538000       6.0000     15.9994
  215   2 H    1      -0.950000    4.550000   38.067999       1.0000      1.0079
  216   2 H    1       0.510000    5.110001   38.057999       1.0000      1.0079
  217   1 O    8       0.450000    8.300000   29.217999       6.0000     15.9994
  218   2 H    1       0.840000    7.460001   29.508000       1.0000      1.0079
  219   2 H    1       1.160000    9.080001   29.327999       1.0000      1.0079
  220   1 O    8       1.610000   10.880001   32.458000       6.0000     15.9994
  221   2 H    1      -5.930000   25.400002   32.827999       1.0000      1.0079
  222   2 H    1       1.040000   10.110001   32.727999       1.0000      1.0079
  223   1 O    8       4.170000   11.040001   33.267998       6.0000     15.9994
  224   2 H    1      -4.130000   25.810001   34.168000       1.0000      1.0079
  225   2 H    1      -3.910000   24.740002   33.147999       1.0000      1.0079
  226   1 O    8       2.040000    1.570000   30.188000       6.0000     15.9994
  227   2 H    1       2.070000    0.810000   29.478001       1.0000      1.0079
  228   2 H    1       2.880000    2.060000   30.197998       1.0000      1.0079
  229   1 O    8     -27.610001   18.020000   37.797999       6.0000     15.9994
  230   2 H    1     -27.980001   17.560001   38.577999       1.0000      1.0079
  231   2 H    1     -27.510002   17.320002   37.107998       1.0000      1.0079
  232   1 O    8       6.880000   11.800001   30.037999       6.0000     15.9994
  233   2 H    1       5.980001   11.600000   29.688000       1.0000      1.0079
  234   2 H    1       7.150001   10.850000   30.347996       1.0000      1.0079
  235   1 O    8     -18.260000   12.090001   30.368000       6.0000     15.9994
  236   2 H    1     -17.520000   11.480000   30.217999       1.0000      1.0079
  237   2 H    1     -17.900002   12.880001   29.997998       1.0000      1.0079
  238   1 O    8       7.940001  -14.910001   38.018000       6.0000     15.9994
  239   2 H    1       8.500000  -14.290000   38.508000       1.0000      1.0079
  240   2 H    1       8.590000  -15.490000   37.577999       1.0000      1.0079
  241   1 O    8       4.860000   -3.620000   29.418000       6.0000     15.9994
  242   2 H    1       5.260000   -4.520000   29.618000       1.0000      1.0079
  243   2 H    1       5.610001   -3.070000   29.697998       1.0000      1.0079
  244   1 O    8       0.970000   21.990002   36.868000       6.0000     15.9994
  245   2 H    1       0.250000   21.600000   36.287999       1.0000      1.0079
  246   2 H    1       1.670000   22.530001   36.457999       1.0000      1.0079
  247   1 O    8      -4.780000   -1.640000   37.397999       6.0000     15.9994
  248   2 H    1      -4.450000   -1.680000   38.308001       1.0000      1.0079
  249   2 H    1      -4.370000   -2.320000   36.838000       1.0000      1.0079
  250   1 O    8      26.400002    5.460000   30.037999       6.0000     15.9994
  251   2 H    1      26.340000    4.460000   30.088002       1.0000      1.0079
  252   2 H    1      26.670000    5.570001   29.077999       1.0000      1.0079
  253   1 O    8      38.090004    5.640000   29.568001       6.0000     15.9994
  254   2 H    1      38.230003    4.680000   29.857998       1.0000      1.0079
  255   2 H    1      38.900002    6.060000   29.967999       1.0000      1.0079
  256   1 O    8      -3.930000    2.330000   39.858000       6.0000     15.9994
  257   2 H    1      -4.780000    1.910000   39.628001       1.0000      1.0079
  258   2 H    1      -3.470000    1.930000   40.678000       1.0000      1.0079
  259   1 O    8      -4.730000   10.200001   33.857998       6.0000     15.9994
  260   2 H    1      -5.070000    9.830000   32.998000       1.0000      1.0079
  261   2 H    1      -5.280000   11.040001   33.927998       1.0000      1.0079
  262   1 O    8     -11.420001    2.140000   38.188000       6.0000     15.9994
  263   2 H    1     -10.830001    2.910000   38.048001       1.0000      1.0079
  264   2 H    1     -11.410000    1.600000   37.368000       1.0000      1.0079
  265   1 O    8     -15.700001   18.620001   33.778000       6.0000     15.9994
  266   2 H    1     -15.390000   18.560001   34.728001       1.0000      1.0079
  267   2 H    1     -15.430001   17.860001   33.287999       1.0000      1.0079
  268   1 O    8       7.110000    4.820000   33.367998       6.0000     15.9994
  269   2 H    1      -0.350000   19.220001   33.437998       1.0000      1.0079
  270   2 H    1       7.020000    5.370000   32.557999       1.0000      1.0079
  271   1 O    8     -20.600002    5.020000   33.998001       6.0000     15.9994
  272   2 H    1     -20.860003    5.010000   34.987999       1.0000      1.0079
  273   2 H    1     -21.280001    5.570001   33.478001       1.0000      1.0079
  274   1 O    8      13.160001    0.760000   28.997998       6.0000     15.9994
  275   2 H    1      14.160000    0.750000   29.237999       1.0000      1.0079
  276   2 H    1      12.830001    0.060000   29.688000       1.0000      1.0079
  277   1 O    8     -16.450001   -1.470000   29.217999       6.0000     15.9994
  278   2 H    1     -17.320002   -2.020000   29.338002       1.0000      1.0079
  279   2 H    1     -16.830002   -0.520000   29.227997       1.0000      1.0079
  280   1 O    8      -9.070001    9.230001   30.337998       6.0000     15.9994
  281   2 H    1      -8.170000    9.240000   30.797999       1.0000      1.0079
  282   2 H    1      -8.790001    9.470000   29.427998       1.0000      1.0079
  283   1 O    8     -14.510001   25.670002   30.217999       6.0000     15.9994
  284   2 H    1     -14.950001   26.470001   29.798001       1.0000      1.0079
  285   2 H    1     -13.570002   25.670002   29.997998       1.0000      1.0079
  286   1 O    8      21.900002    8.730000   32.777998       6.0000     15.9994
  287   2 H    1      22.870003    8.790001   33.107998       1.0000      1.0079
  288   2 H    1      21.490002    7.820001   32.928000       1.0000      1.0079
  289   1 O    8      -5.610001   14.150001   38.807999       6.0000     15.9994
  290   2 H    1      -4.690000   13.930000   39.047999       1.0000      1.0079
  291   2 H    1      -6.030001   14.760000   39.397999       1.0000      1.0079
  292   1 O    8      -5.000000  -11.800001   33.227999       6.0000     15.9994
  293   2 H    1      -5.500000  -12.640000   33.048001       1.0000      1.0079
  294   2 H    1      -4.130000  -12.160001   33.418000       1.0000      1.0079
  295   1 O    8       7.820001   -6.800000   36.527998       6.0000     15.9994
  296   2 H    1      -8.350000   -7.100000   37.177998       1.0000      1.0079
  297   2 H    1       7.940001   -5.810000   36.457999       1.0000      1.0079
  298   1 O    8      -8.880001   11.430000   34.008000       6.0000     15.9994
  299   2 H    1      -8.010000   11.500001   33.588000       1.0000      1.0079
  300   2 H    1      -9.500000   12.030001   33.527998       1.0000      1.0079
  301   1 O    8      -5.250000   -0.940000   30.657999       6.0000     15.9994
  302   2 H    1      -4.990000   -1.910000   30.508000       1.0000      1.0079
  303   2 H    1      -5.200000   -0.670000   31.678000       1.0000      1.0079
  304   1 O    8      10.830001    6.760001   39.168000       6.0000     15.9994
  305   2 H    1      10.210000    6.970000   38.427998       1.0000      1.0079
  306   2 H    1      11.170001    7.550001   39.567999       1.0000      1.0079
  307   3 Pt  78       1.800000    0.720000   27.048001      10.0000    195.0840
  308   3 Pt  78       4.640000    0.770000   26.927998      10.0000    195.0840
  309   3 Pt  78       7.360001    0.660000   26.957997      10.0000    195.0840
  310   3 Pt  78      10.140000    0.630000   26.897999      10.0000    195.0840
  311   3 Pt  78      12.990000    0.740000   26.708001      10.0000    195.0840
  312   3 Pt  78      15.840001    0.710000   26.827999      10.0000    195.0840
  313   3 Pt  78       3.090000    3.080000   26.838002      10.0000    195.0840
  314   3 Pt  78       5.950000    3.120000   26.758000      10.0000    195.0840
  315   3 Pt  78       8.680000    3.140000   26.887997      10.0000    195.0840
  316   3 Pt  78      11.540001    3.190000   26.927998      10.0000    195.0840
  317   3 Pt  78      14.450001    3.020000   26.737999      10.0000    195.0840
  318   3 Pt  78       0.420000    3.180000   26.758000      10.0000    195.0840
  319   3 Pt  78       4.540000    5.530000   27.048001      10.0000    195.0840
  320   3 Pt  78       7.420001    5.650000   26.688000      10.0000    195.0840
  321   3 Pt  78      10.150002    5.610001   26.927998      10.0000    195.0840
  322   3 Pt  78      12.990000    5.500000   26.908001      10.0000    195.0840
  323   3 Pt  78      -1.140000    5.510000   26.848000      10.0000    195.0840
  324   3 Pt  78       1.730000    5.540000   26.938000      10.0000    195.0840
  325   3 Pt  78       5.940001    8.000000   26.947998      10.0000    195.0840
  326   3 Pt  78       8.850000    8.000000   26.848000      10.0000    195.0840
  327   3 Pt  78      11.660000    8.000000   26.857998      10.0000    195.0840
  328   3 Pt  78      -2.440000    8.130000   26.868000      10.0000    195.0840
  329   3 Pt  78       0.370000    8.030001   26.967999      10.0000    195.0840
  330   3 Pt  78       3.220000    8.000000   27.037999      10.0000    195.0840
  331   3 Pt  78       7.290000   10.440001   26.908001      10.0000    195.0840
  332   3 Pt  78      10.240001   10.460000   26.807999      10.0000    195.0840
  333   3 Pt  78      -4.020000   10.490000   26.797997      10.0000    195.0840
  334   3 Pt  78      -1.140000   10.470000   26.897999      10.0000    195.0840
  335   3 Pt  78       1.750000   10.320001   26.927998      10.0000    195.0840
  336   3 Pt  78       4.490000   10.470000   27.008000      10.0000    195.0840
  337   3 Pt  78       8.830000   12.950001   26.998001      10.0000    195.0840
  338   3 Pt  78      -5.310000   13.010001   26.947998      10.0000    195.0840
  339   3 Pt  78      -2.520000   12.880001   26.927998      10.0000    195.0840
  340   3 Pt  78       0.300000   12.740001   26.897999      10.0000    195.0840
  341   3 Pt  78       3.150000   12.810000   26.727997      10.0000    195.0840
  342   3 Pt  78       5.930000   12.780001   26.887997      10.0000    195.0840
  343   3 Pt  78       0.260000    1.540000   24.577999      10.0000    195.0840
  344   3 Pt  78       3.050000    1.460000   24.548001      10.0000    195.0840
  345   3 Pt  78       5.770000    1.540000   24.447998      10.0000    195.0840
  346   3 Pt  78       8.720000    1.410000   24.557999      10.0000    195.0840
  347   3 Pt  78      11.350001    1.400000   24.447998      10.0000    195.0840
  348   3 Pt  78      14.230001    1.540000   24.397999      10.0000    195.0840
  349   3 Pt  78       1.740000    3.970000   24.548001      10.0000    195.0840
  350   3 Pt  78       4.520000    3.990000   24.467999      10.0000    195.0840
  351   3 Pt  78       7.410001    3.890000   24.377999      10.0000    195.0840
  352   3 Pt  78      10.140000    3.850000   24.498001      10.0000    195.0840
  353   3 Pt  78      12.910000    3.860000   24.467999      10.0000    195.0840
  354   3 Pt  78      -1.010000    3.900000   24.498001      10.0000    195.0840
  355   3 Pt  78       3.160000    6.370000   24.657997      10.0000    195.0840
  356   3 Pt  78       5.990000    6.360001   24.517998      10.0000    195.0840
  357   3 Pt  78       8.820001    6.450000   24.447998      10.0000    195.0840
  358   3 Pt  78      11.590000    6.400001   24.568001      10.0000    195.0840
  359   3 Pt  78      -2.540000    6.340000   24.638001      10.0000    195.0840
  360   3 Pt  78       0.370000    6.470000   24.657997      10.0000    195.0840
  361   3 Pt  78       4.570000    8.870000   24.517998      10.0000    195.0840
  362   3 Pt  78       7.250000    8.730000   24.537999      10.0000    195.0840
  363   3 Pt  78      10.150002    8.780001   24.498001      10.0000    195.0840
  364   3 Pt  78      -3.940000    8.750001   24.587998      10.0000    195.0840
  365   3 Pt  78      -1.010000    8.800000   24.587998      10.0000    195.0840
  366   3 Pt  78       1.780000    8.850000   24.498001      10.0000    195.0840
  367   3 Pt  78       5.810000   11.340000   24.557999      10.0000    195.0840
  368   3 Pt  78       8.670000   11.230000   24.577999      10.0000    195.0840
  369   3 Pt  78      -5.370000   11.370001   24.618000      10.0000    195.0840
  370   3 Pt  78      -2.570000   11.240001   24.517998      10.0000    195.0840
  371   3 Pt  78       0.330000   11.250000   24.517998      10.0000    195.0840
  372   3 Pt  78       3.100000   11.190001   24.598000      10.0000    195.0840
  373   3 Pt  78       7.350000   13.720001   24.527996      10.0000    195.0840
  374   3 Pt  78      -6.740000   13.740001   24.657997      10.0000    195.0840
  375   3 Pt  78      -3.910000   13.610001   24.467999      10.0000    195.0840
  376   3 Pt  78      -1.190000   13.650000   24.598000      10.0000    195.0840
  377   3 Pt  78       1.590000   13.610001   24.568001      10.0000    195.0840
  378   3 Pt  78       4.500000   13.750001   24.457997      10.0000    195.0840
  379   3 Pt  78      -8.260000   14.560001   22.237999      10.0000    195.0840
  380   3 Pt  78      -5.430000   14.520000   22.337998      10.0000    195.0840
  381   3 Pt  78      -2.590000   14.420000   22.258000      10.0000    195.0840
  382   3 Pt  78       0.160000   14.400001   22.177998      10.0000    195.0840
  383   3 Pt  78       3.030000   14.470000   22.188000      10.0000    195.0840
  384   3 Pt  78       5.800000   14.520000   22.098000      10.0000    195.0840
  385   3 Pt  78       1.580000    2.400000   22.267998      10.0000    195.0840
  386   3 Pt  78       4.400000    2.380000   22.228001      10.0000    195.0840
  387   3 Pt  78       7.230001    2.340000   22.077996      10.0000    195.0840
  388   3 Pt  78      10.020000    2.130000   22.127999      10.0000    195.0840
  389   3 Pt  78      12.850000    2.310000   22.048001      10.0000    195.0840
  390   3 Pt  78      -1.260000    2.260000   22.237999      10.0000    195.0840
  391   3 Pt  78       3.110000    4.830000   22.317997      10.0000    195.0840
  392   3 Pt  78       5.840001    4.780000   22.197998      10.0000    195.0840
  393   3 Pt  78       8.700001    4.790000   22.158001      10.0000    195.0840
  394   3 Pt  78      11.380000    4.780000   22.207997      10.0000    195.0840
  395   3 Pt  78      -2.590000    4.710000   22.217999      10.0000    195.0840
  396   3 Pt  78       0.250000    4.800000   22.237999      10.0000    195.0840
  397   3 Pt  78       4.440001    7.240000   22.267998      10.0000    195.0840
  398   3 Pt  78       7.240000    7.140000   22.158001      10.0000    195.0840
  399   3 Pt  78      10.030001    7.340000   22.207997      10.0000    195.0840
  400   3 Pt  78      -4.070000    7.150001   22.177998      10.0000    195.0840
  401   3 Pt  78      -1.130000    7.120000   22.237999      10.0000    195.0840
  402   3 Pt  78       1.700000    7.160000   22.217999      10.0000    195.0840
  403   3 Pt  78       5.800000    9.710001   22.217999      10.0000    195.0840
  404   3 Pt  78       8.610001    9.680000   22.287999      10.0000    195.0840
  405   3 Pt  78      -5.380001    9.670001   22.277996      10.0000    195.0840
  406   3 Pt  78      -2.580000    9.600000   22.267998      10.0000    195.0840
  407   3 Pt  78       0.210000    9.600000   22.127999      10.0000    195.0840
  408   3 Pt  78       2.990000    9.670001   22.127999      10.0000    195.0840
  409   3 Pt  78       7.170000   12.120000   22.168000      10.0000    195.0840
  410   3 Pt  78      -6.890000   12.110001   22.357998      10.0000    195.0840
  411   3 Pt  78      -4.010000   12.030001   22.228001      10.0000    195.0840
  412   3 Pt  78      -1.210000   11.990000   22.177998      10.0000    195.0840
  413   3 Pt  78       1.550000   12.120000   22.168000      10.0000    195.0840
  414   3 Pt  78       4.340000   12.140001   22.197998      10.0000    195.0840
  415   3 Pt  78       1.570000    0.710000   20.040001      10.0000    195.0840
  416   3 Pt  78       4.380000    0.640000   20.010001      10.0000    195.0840
  417   3 Pt  78       7.140000    0.640000   19.830001      10.0000    195.0840
  418   3 Pt  78       9.910001    0.670000   19.820001      10.0000    195.0840
  419   3 Pt  78      12.760000    0.660000   19.790001      10.0000    195.0840
  420   3 Pt  78      15.520000    0.730000   19.820001      10.0000    195.0840
  421   3 Pt  78       3.020000    3.100000   19.940001      10.0000    195.0840
  422   3 Pt  78       5.750000    3.140000   19.850001      10.0000    195.0840
  423   3 Pt  78       8.530001    3.220000   19.860001      10.0000    195.0840
  424   3 Pt  78      11.320001    3.120000   19.890001      10.0000    195.0840
  425   3 Pt  78      14.170000    3.100000   19.780001      10.0000    195.0840
  426   3 Pt  78       0.190000    3.120000   19.970001      10.0000    195.0840
  427   3 Pt  78       4.340000    5.600000   19.920001      10.0000    195.0840
  428   3 Pt  78       7.130001    5.630000   19.930001      10.0000    195.0840
  429   3 Pt  78       9.930000    5.660000   19.880001      10.0000    195.0840
  430   3 Pt  78      12.630000    5.530000   19.880001      10.0000    195.0840
  431   3 Pt  78      -1.270000    5.540000   19.920001      10.0000    195.0840
  432   3 Pt  78       1.730000    5.480001   19.970001      10.0000    195.0840
  433   3 Pt  78       5.760000    8.100000   19.970001      10.0000    195.0840
  434   3 Pt  78       8.590000    8.090000   19.880001      10.0000    195.0840
  435   3 Pt  78      11.410000    8.030001   19.870001      10.0000    195.0840
  436   3 Pt  78      -2.660000    7.910000   19.880001      10.0000    195.0840
  437   3 Pt  78       0.180000    7.880001   19.900001      10.0000    195.0840
  438   3 Pt  78       2.990000    7.950000   19.910001      10.0000    195.0840
  439   3 Pt  78       7.260000   10.500001   19.950001      10.0000    195.0840
  440   3 Pt  78       9.950001   10.410000   19.990001      10.0000    195.0840
  441   3 Pt  78      -4.030000   10.370001   19.980001      10.0000    195.0840
  442   3 Pt  78      -1.250000   10.360001   19.840001      10.0000    195.0840
  443   3 Pt  78       1.480000   10.440001   19.840001      10.0000    195.0840
  444   3 Pt  78       4.320000   10.460000   19.900001      10.0000    195.0840
  445   3 Pt  78       8.660001   12.950001   19.920001      10.0000    195.0840
  446   3 Pt  78      -5.500000   12.770000   20.140001      10.0000    195.0840
  447   3 Pt  78      -2.660000   12.820001   19.900001      10.0000    195.0840
  448   3 Pt  78       0.110000   12.750001   19.840001      10.0000    195.0840
  449   3 Pt  78       2.920000   12.830001   19.790001      10.0000    195.0840
  450   3 Pt  78       5.780000   12.870001   19.860001      10.0000    195.0840
  451   3 Pt  78       0.190000    1.440000   17.530001      10.0000    195.0840
  452   3 Pt  78       2.990000    1.530000   17.630001      10.0000    195.0840
  453   3 Pt  78       5.820000    1.600000   17.420001      10.0000    195.0840
  454   3 Pt  78       8.680000    1.510000   17.510001      10.0000    195.0840
  455   3 Pt  78      11.510000    1.480000   17.620000      10.0000    195.0840
  456   3 Pt  78      14.380001    1.490000   17.570000      10.0000    195.0840
  457   3 Pt  78       1.720000    3.900000   17.630001      10.0000    195.0840
  458   3 Pt  78       4.430000    3.930000   17.520000      10.0000    195.0840
  459   3 Pt  78       7.230001    3.930000   17.560000      10.0000    195.0840
  460   3 Pt  78      10.050000    3.950000   17.580001      10.0000    195.0840
  461   3 Pt  78      12.870001    3.940000   17.630001      10.0000    195.0840
  462   3 Pt  78      -1.110000    3.970000   17.600001      10.0000    195.0840
  463   3 Pt  78       3.070000    6.250000   17.480000      10.0000    195.0840
  464   3 Pt  78       5.800000    6.420000   17.680001      10.0000    195.0840
  465   3 Pt  78       8.600000    6.460000   17.500000      10.0000    195.0840
  466   3 Pt  78      11.470001    6.390000   17.610001      10.0000    195.0840
  467   3 Pt  78      -2.670000    6.370000   17.620000      10.0000    195.0840
  468   3 Pt  78       0.230000    6.300001   17.600001      10.0000    195.0840
  469   3 Pt  78       4.360000    8.750001   17.730000      10.0000    195.0840
  470   3 Pt  78       7.260000    8.890000   17.680001      10.0000    195.0840
  471   3 Pt  78      10.040001    8.860001   17.540000      10.0000    195.0840
  472   3 Pt  78      -4.070000    8.880001   17.550000      10.0000    195.0840
  473   3 Pt  78      -1.310000    8.750001   17.520000      10.0000    195.0840
  474   3 Pt  78       1.580000    8.680000   17.600001      10.0000    195.0840
  475   3 Pt  78       5.730000   11.320001   17.640000      10.0000    195.0840
  476   3 Pt  78       8.650001   11.290001   17.590000      10.0000    195.0840
  477   3 Pt  78      -5.390000   11.260000   17.720001      10.0000    195.0840
  478   3 Pt  78      -2.640000   11.240001   17.500000      10.0000    195.0840
  479   3 Pt  78       0.130000   11.140001   17.490000      10.0000    195.0840
  480   3 Pt  78       2.920000   11.240001   17.500000      10.0000    195.0840
  481   3 Pt  78       7.140000   13.580000   17.430000      10.0000    195.0840
  482   3 Pt  78      -6.800000   13.690001   17.730000      10.0000    195.0840
  483   3 Pt  78      -4.020000   13.680000   17.720001      10.0000    195.0840
  484   3 Pt  78      -1.270000   13.800001   17.540000      10.0000    195.0840
  485   3 Pt  78       1.580000   13.700001   17.480000      10.0000    195.0840
  486   3 Pt  78       4.380000   13.660001   17.470001      10.0000    195.0840
  487   3 Pt  78      -8.360001   14.350000   15.150001      10.0000    195.0840
  488   3 Pt  78      -5.360000   14.330001   15.440001      10.0000    195.0840
  489   3 Pt  78      -2.640000   14.360001   15.090000      10.0000    195.0840
  490   3 Pt  78       0.220000   14.540001   15.190001      10.0000    195.0840
  491   3 Pt  78       3.000000   14.370001   15.150001      10.0000    195.0840
  492   3 Pt  78       5.740000   14.450001   15.000000      10.0000    195.0840
  493   3 Pt  78       1.700000    2.160000   15.200001      10.0000    195.0840
  494   3 Pt  78       4.470000    2.120000   15.070001      10.0000    195.0840
  495   3 Pt  78       7.290000    2.220000   15.150001      10.0000    195.0840
  496   3 Pt  78      10.130000    2.250000   15.220000      10.0000    195.0840
  497   3 Pt  78      12.880001    2.150000   15.270000      10.0000    195.0840
  498   3 Pt  78      -1.020000    2.250000   15.210001      10.0000    195.0840
  499   3 Pt  78       3.120000    4.660000   15.210001      10.0000    195.0840
  500   3 Pt  78       5.920000    4.590000   15.280000      10.0000    195.0840
  501   3 Pt  78       8.650001    4.610000   15.270000      10.0000    195.0840
  502   3 Pt  78      11.370001    4.650001   15.350000      10.0000    195.0840
  503   3 Pt  78      -2.620000    4.670000   15.310000      10.0000    195.0840
  504   3 Pt  78       0.420000    4.620000   15.200001      10.0000    195.0840
  505   3 Pt  78       4.530000    7.150001   15.370000      10.0000    195.0840
[...]
 -                                                                             -
 -                                DBCSR STATISTICS                             -
 -                                                                             -
 -------------------------------------------------------------------------------
 COUNTER                                    TOTAL       BLAS       SMM       ACC
 flops     5 x     5 x    96           4615824000       0.0%    100.0%      0.0%
 flops     5 x     5 x   100           4808150000       0.0%    100.0%      0.0%
 flops     5 x    13 x    96           5860782720       0.0%    100.0%      0.0%
 flops    13 x     5 x    96           5861930880       0.0%    100.0%      0.0%
 flops     5 x    13 x   100           6104982000       0.0%    100.0%      0.0%
 flops    13 x     5 x   100           6106178000       0.0%    100.0%      0.0%
 flops    13 x    13 x    96           6960031104       0.0%    100.0%      0.0%
 flops    13 x    13 x   100           7250032400       0.0%    100.0%      0.0%
 flops    20 x    13 x    96           9782323200       0.0%    100.0%      0.0%
 flops    13 x    20 x    96           9814471680       0.0%    100.0%      0.0%
 flops    20 x    13 x   100          10189920000       0.0%    100.0%      0.0%
 flops    13 x    20 x   100          10223408000       0.0%    100.0%      0.0%
 flops     5 x    20 x    96          10419110400       0.0%    100.0%      0.0%
 flops    20 x     5 x    96          10445606400       0.0%    100.0%      0.0%
 flops     5 x    20 x   100          10853240000       0.0%    100.0%      0.0%
 flops    20 x     5 x   100          10880840000       0.0%    100.0%      0.0%
 flops    20 x    20 x    96          82794700800       0.0%    100.0%      0.0%
 flops     5 x     5 x   128          86162048000       0.0%    100.0%      0.0%
 flops    20 x    20 x   100          86244480000       0.0%    100.0%      0.0%
 flops     5 x    13 x   128         109401277440       0.0%    100.0%      0.0%
 flops    13 x     5 x   128         109422709760       0.0%    100.0%      0.0%
 flops    13 x    13 x   128         129920580608       0.0%    100.0%      0.0%
 flops    20 x    13 x   128         182603366400       0.0%    100.0%      0.0%
 flops    13 x    20 x   128         183203471360       0.0%    100.0%      0.0%
 flops     5 x    20 x   128         194490060800       0.0%    100.0%      0.0%
 flops    20 x     5 x   128         194984652800       0.0%    100.0%      0.0%
 flops    20 x    20 x   128        1545501081600       0.0%    100.0%      0.0%
 flops inhomo. stacks                           0       0.0%      0.0%      0.0%
 flops total                         3.034905E+12       0.0%    100.0%      0.0%
 flops max/rank                     27.788852E+09       0.0%    100.0%      0.0%
 matmuls inhomo. stacks                         0       0.0%      0.0%      0.0%
 matmuls total                           74764352       0.0%    100.0%      0.0%
 number of processed stacks                844928       0.0%    100.0%      0.0%
 average stack size                                     0.0      88.5       0.0
 marketing flops                     6.333845E+12
 -------------------------------------------------------------------------------
 # multiplications                             46
 max memory usage/rank               1.633632E+09
 # max total images/rank                        2
 # max 3D layers                                1
 # MPI messages exchanged                  170752
 MPI messages size (bytes):
  total size                       107.288265E+09
  min size                         318.720000E+03
  max size                         856.064000E+03
  average size                     628.328000E+03
 MPI breakdown and total messages size (bytes):
             size <=      128                   0                        0
       128 < size <=     8192                   0                        0
      8192 < size <=    32768                   0                        0
     32768 < size <=   131072                   0                        0
    131072 < size <=  4194304              170752             107288256768
   4194304 < size <= 16777216                   0                        0
  16777216 < size                               0                        0
 -------------------------------------------------------------------------------

 *** WARNING in dbcsr_mm.F:290 :: Using a non-square number of MPI ranks ***
 *** might lead to poor performance. Used ranks: 128 Suggested: 121 256  ***

 -------------------------------------------------------------------------------
 -                                                                             -
 -                      DBCSR MESSAGE PASSING PERFORMANCE                      -
 -                                                                             -
 -------------------------------------------------------------------------------
 ROUTINE             CALLS      AVE VOLUME [Bytes]
 MP_Bcast               28                     12.
 MP_Allreduce          396                     11.
 MP_Alltoall          1300                 602235.
 MP_ISend             2944                 298634.
 MP_IRecv             2944                 292155.
 -------------------------------------------------------------------------------

 -------------------------------------------------------------------------------
 -                                                                             -
 -                                DBM STATISTICS                               -
 -                                                                             -
 -------------------------------------------------------------------------------
    M  x    N  x    K                                          COUNT     PERCENT
 -------------------------------------------------------------------------------

 -------------------------------------------------------------------------------
 -                                                                             -
 -                                GRID STATISTICS                              -
 -                                                                             -
 -------------------------------------------------------------------------------
 LP    KERNEL             BACKEND                              COUNT     PERCENT
 4     collocate general  REF                               18731016      21.79%
 4     integrate general  REF                               18615112      21.65%
 3     collocate general  REF                               13399432      15.58%
 3     integrate general  REF                               13341290      15.52%
 2     collocate general  REF                               10724900      12.47%
 2     integrate general  REF                               10491750      12.20%
 5     integrate general  REF                                 407196       0.47%
 0     collocate general  REF                                 133632       0.16%
 0     integrate general  REF                                  66816       0.08%
 1     integrate general  REF                                  66816       0.08%
 -------------------------------------------------------------------------------

 MEMORY| Estimated peak process memory [MiB]                                1814

 -------------------------------------------------------------------------------
 ----                             MULTIGRID INFO                            ----
 -------------------------------------------------------------------------------
 count for grid        1:        1099497          cutoff [a.u.]          200.00
 count for grid        2:        1094763          cutoff [a.u.]           66.67
 count for grid        3:         721183          cutoff [a.u.]           22.22
 count for grid        4:         561518          cutoff [a.u.]            7.41
 total gridlevel count  :        3476961

 -------------------------------------------------------------------------------
 -                                                                             -
 -                         MESSAGE PASSING PERFORMANCE                         -
 -                                                                             -
 -------------------------------------------------------------------------------

 ROUTINE             CALLS      AVE VOLUME [Bytes]
 MP_Group                4
 MP_Bcast              241                2368458.
 MP_Allreduce         3602                  30442.
 MP_Sync                96
 MP_Alltoall          2782               16851497.
 MP_SendRecv           508                   5958.
 MP_ISendRecv        23368                  61740.
 MP_Wait             41320
 MP_comm_split          46
 MP_ISend            16920                 256298.
 MP_IRecv            16920                 256298.
 MP_Recv               186                1706496.
 MP_Write_All            3                1797408.
 -------------------------------------------------------------------------------


 -------------------------------------------------------------------------------
 -                                                                             -
 -                           R E F E R E N C E S                               -
 -                                                                             -
 -------------------------------------------------------------------------------
 
 CP2K version 2022.1, the CP2K developers group (2022).
 CP2K is freely available from https://www.cp2k.org/ .

 Kuehne,Thomas D.; Iannuzzi,Marcella; Del Ben,Mauro;
 Rybkin,Vladimir V.; Seewald,Patrick; Stein,Frederick; Laino,Teodoro;
 Khaliullin,Rustam Z.; Schuett,Ole; Schiffmann,Florian; Golze,Dorothea;
 Wilhelm,Jan; Chulkov,Sergey; Bani-Hashemian,Mohammad Hossein;
 Weber,Valery; Borstnik,Urban; Taillefumier,Mathieu;
 Jakobovits,Alice Shoshana; Lazzaro,Alfio; Pabst,Hans; Mueller,Tiziano;
 Schade,Robert; Guidon,Manuel; Andermatt,Samuel; Holmberg,Nico;
 Schenter,Gregory K.; Hehn,Anna; Bussy,Augustin; Belleflamme,Fabian;
 Tabacchi,Gloria; Gloess,Andreas; Lass,Michael; Bethune,Iain;
 Mundy,Christopher J.; Plessl,Christian; Watkins,Matt;
 VandeVondele,Joost; Krack,Matthias; Hutter,Juerg. 
 The Journal of Chemical Physics, 152 (19), (2020). 
 CP2K: An electronic structure and molecular dynamics software package -
 Quickstep: Efficient and accurate electronic structure calculations.
 https://doi.org/10.1063/5.0007045

 Goerigk, Lars; Hansen, Andreas; Bauer, Christoph; Ehrlich, Stephan;
 Najibi, Asim; Grimme, Stefan. , 19 (48), (2017). 
 A look at the density functional theory zoo with the advanced GMTKN55 database
 for general main group thermochemistry, kinetics and noncovalent interactions.
 https://doi.org/10.1039/C7CP04913G

 Bani-Hashemian, MH; Bruck, S; Luisier, M; VandeVondele, J. 
 JOURNAL OF CHEMICAL PHYSICS, 144 (4), 044113 (2016). 
 A generalized Poisson solver for first-principles device simulations.
 https://doi.org/10.1063/1.4940796

 Schuett, Ole; Messmer, Peter; Hutter, Juerg; VandeVondele, Joost. 
 Electronic Structure Calculations on Graphics Processing Units, John
 Wiley & Sons, Ltd, 173-190 (2016). 
 GPU-Accelerated Sparse Matrix-Matrix Multiplication for
 Linear Scaling Density Functional Theory.
 https://doi.org/10.1002/9781118670712.ch8

 Heinecke, A; Henry, G; Hutchinson, M; Pabst, H. 
 Proceedings of Intl. Supercomputing Conference, 981-991 (2016). 
 LIBXSMM: Accelerating Small Matrix Multiplications
 by Runtime Code Generation.
 https://doi.org/10.1109/SC.2016.83

 Borstnik, U; VandeVondele, J; Weber, V; Hutter, J. 
 PARALLEL COMPUTING, 40 (5-6), 47-58 (2014). 
 Sparse matrix multiplication: The distributed block-compressed sparse
 row library.
 https://doi.org/10.1016/j.parco.2014.03.012

 Hutter, J; Iannuzzi, M; Schiffmann, F; VandeVondele, J. 
 WIREs Comput Mol Sci., 4 (1), 15-25 (2014). 
 CP2K: atomistic simulations of condensed matter systems.
 https://doi.org/10.1002/wcms.1159

 Marek, A; Blum, V; Johanni, R; Havu, V; Lang, B; Auckenthaler, T;
 Heinecke, A; Bungartz, H; Lederer, H. 
 Journal of Physics: Condensed Matter, 26 (21), (2014). 
 The ELPA library: scalable parallel eigenvalue solutions for
 electronic structure
 theory and computational science.
 https://doi.org/10.1088/0953-8984/26/21/213201

 Grimme, S; Ehrlich, S; Goerigk, L. 
 JOURNAL OF COMPUTATIONAL CHEMISTRY, 32, 1456 (2011). 
 Effect of the damping function in dispersion corrected density functional theory.
 https://doi.org/10.1002/jcc.21759

 Grimme, S; Antony, J; Ehrlich, S; Krieg, H. 
 JOURNAL OF CHEMICAL PHYSICS, 132 (15), 154104 (2010). 
 A consistent and accurate ab initio parametrization of density
 functional dispersion correction (DFT-D) for the 94 elements H-Pu.
 https://doi.org/10.1063/1.3382344

 VandeVondele, J; Hutter, J. 
 JOURNAL OF CHEMICAL PHYSICS, 127 (11), 114105 (2007). 
 Gaussian basis sets for accurate calculations on molecular systems in
 gas and condensed phases.
 https://doi.org/10.1063/1.2770708

 Krack, M. 
 THEORETICAL CHEMISTRY ACCOUNTS, 114 (1-3), 145-152 (2005). 
 Pseudopotentials for H to Kr optimized for gradient-corrected
 exchange-correlation functionals.
 https://doi.org/10.1007/s00214-005-0655-y

 VandeVondele, J; Krack, M; Mohamed, F; Parrinello, M; Chassaing, T;
 Hutter, J. COMPUTER PHYSICS COMMUNICATIONS, 167 (2), 103-128 (2005). 
 QUICKSTEP: Fast and accurate density functional calculations using a
 mixed Gaussian and plane waves approach.
 https://doi.org/10.1016/j.cpc.2004.12.014

 Frigo, M; Johnson, SG. 
 PROCEEDINGS OF THE IEEE, 93 (2), 216-231 (2005). 
 The design and implementation of FFTW3.
 https://doi.org/10.1109/JPROC.2004.840301

 Hartwigsen, C; Goedecker, S; Hutter, J. 
 PHYSICAL REVIEW B, 58 (7), 3641-3662 (1998). 
 Relativistic separable dual-space Gaussian pseudopotentials from H to Rn.
 https://doi.org/10.1103/PhysRevB.58.3641

 Lippert, G; Hutter, J; Parrinello, M. 
 MOLECULAR PHYSICS, 92 (3), 477-487 (1997). 
 A hybrid Gaussian and plane wave density functional scheme.
 https://doi.org/10.1080/002689797170220

 Perdew, JP; Burke, K; Ernzerhof, M. 
 PHYSICAL REVIEW LETTERS, 77 (18), 3865-3868 (1996). 
 Generalized gradient approximation made simple.
 https://doi.org/10.1103/PhysRevLett.77.3865

 Goedecker, S; Teter, M; Hutter, J. 
 PHYSICAL REVIEW B, 54 (3), 1703-1710 (1996). 
 Separable dual-space Gaussian pseudopotentials.
 https://doi.org/10.1103/PhysRevB.54.1703


 -------------------------------------------------------------------------------
 -                                                                             -
 -                                T I M I N G                                  -
 -                                                                             -
 -------------------------------------------------------------------------------
 SUBROUTINE                       CALLS  ASD         SELF TIME        TOTAL TIME
                                MAXIMUM       AVERAGE  MAXIMUM  AVERAGE  MAXIMUM
 CP2K                                 1  1.0    0.270    0.281  323.198  323.199
 qs_forces                            1  2.0    0.002    0.002  322.568  322.569
 qs_energies                          1  3.0    0.000    0.001  316.476  316.480
 scf_env_do_scf                       1  4.0    0.000    0.001  307.886  308.024
 scf_env_do_scf_inner_loop           45  5.0    0.003    0.006  307.885  308.024
 rebuild_ks_matrix                   46  6.9    0.000    0.000  164.682  164.727
 qs_ks_build_kohn_sham_matrix        46  7.9    0.007    0.008  164.682  164.726
 qs_ks_update_qs_env                 45  6.0    0.000    0.000  160.705  160.749
 pw_transfer                       2396 12.2    0.174    0.221  104.070  106.156
 fft_wrap_pw1pw2                   2396 13.2    0.023    0.029  103.896  105.935
 fft_wrap_pw1pw2_200               2120 14.4    7.046    8.385  102.491  104.445
 qs_scf_new_mos                      45  6.0    0.002    0.008   89.559   89.705
 pw_poisson_solve                    46  8.9    0.005    0.011   89.506   89.564
 fft3d_ps                          2396 15.2   30.071   33.410   83.518   86.784
 implicit_poisson_solver_mixed_      46  9.9    1.899    2.304   84.729   84.789
 eigensolver                         45  7.0    0.004    0.005   84.450   84.681
 derive_fft                         276 12.1    0.017    0.021   59.375   59.558
 cp_fm_diag_elpa                     46  8.0    0.001    0.001   59.323   59.482
 cp_fm_redistribute_end              46  9.0    7.763   58.796    7.856   58.856
 cp_fm_diag_elpa_base                46  9.0   50.234   57.489   50.717   58.079
 mp_alltoall_z22v                  2396 17.2   44.670   55.340   44.670   55.340
 apply_P_operator                   230 11.1    1.226    1.358   50.853   51.008
 qs_rho_update_rho_low               46  6.0    0.000    0.000   50.725   50.739
 calculate_rho_elec                  46  7.0    0.089    0.111   50.725   50.739
 sum_up_and_integrate                46  8.9    0.250    0.306   49.877   49.930
 integrate_v_rspace                  46  9.9    0.002    0.003   49.627   49.742
 grid_collocate_task_list            46  8.0   34.042   39.567   34.042   39.567
 grid_integrate_task_list            46 10.9   31.708   36.153   31.708   36.153
 x_to_yz                           1381 16.4    5.863    7.439   33.627   35.124
 cp_fm_triangular_multiply          135  8.0   26.387   26.741   26.387   26.741
 yz_to_x                            739 16.4    2.021    2.370   18.744   25.466
 rs_pw_transfer                     372 10.4    0.004    0.005   20.985   25.397
 qs_vxc_create                       46  8.9    0.001    0.002   22.657   22.941
 xc_vxc_pw_create                    46  9.9    0.392    0.488   22.655   22.940
 density_rs2pw                       46  8.0    0.003    0.004   15.520   20.108
 xc_pw_derive                       276 11.9    0.004    0.005   15.965   17.671
 apply_poisson_operator_fft          46 10.9    0.001    0.020   14.966   15.257
 apply_inv_laplace_operator_fft     140 11.6    0.353    0.402   13.677   14.174
 potential_pw2rs                     46 10.9    0.014    0.015   13.010   13.102
 rs_pw_transfer_RS2PW_200            48  9.9    3.179    3.530    8.554   12.971
 mp_waitany                       16920 12.4    8.357   12.885    8.357   12.885
 xc_pw_divergence                    46 10.9    0.002    0.003   10.817   12.107
 xc_rho_set_and_dset_create          46 10.9    0.228    0.269   11.035   11.720
 ps_implicit_compute_error_fft       92 10.9    0.579    0.703   10.016   10.716
 mp_alltoall_d11v                   651 10.2    6.393   10.546    6.393   10.546
 ps_implicit_compute_veps            46 10.9    0.267    0.318   10.018   10.186
 pw_scatter_p                      1519 15.4    8.484    9.937    8.484    9.937
 rs_gather_matrices                  46 10.9    0.057    0.076    4.896    9.001
 rs_pw_transfer_PW2RS_200            48 12.8    3.625    3.835    7.543    7.704
 gspace_mixing                       44  6.0    0.084    0.103    7.653    7.655
 pw_derive                         1104 13.1    7.006    7.399    7.006    7.399
 -------------------------------------------------------------------------------

 The number of warnings for this run is : 1
 
 -------------------------------------------------------------------------------
  **** **** ******  **  PROGRAM ENDED AT                 2023-12-02 13:15:26.842
 ***** ** ***  *** **   PROGRAM RAN ON                                     cu098
 **    ****   ******    PROGRAM RAN BY                                     jxzhu
 ***** **    ** ** **   PROGRAM PROCESS ID                                 61381
  **** **  *******  **  PROGRAM STOPPED IN /public/home/jxzhu/tmp_calc/3207074c8
                                           dcbce83a47c7af79bf1f3876774f1cc/calc/
                                           001500.000/search_hi.000000
