 DBCSR| CPU Multiplication driver                                           XSMM
 DBCSR| Multrec recursion limit                                              512
 DBCSR| Multiplication stack size                                           1000
 DBCSR| Maximum elements for images                                    UNLIMITED
 DBCSR| Multiplicative factor virtual images                                   1
 DBCSR| Use multiplication densification                                       T
 DBCSR| Multiplication size stacks                                             3
 DBCSR| Use memory pool for CPU allocation                                     F
 DBCSR| Number of 3D layers                                               SINGLE
 DBCSR| Use MPI memory allocation                                              F
 DBCSR| Use RMA algorithm                                                      F
 DBCSR| Use Communication thread                                               T
 DBCSR| Communication thread load                                             87
 DBCSR| MPI: My node id                                                        0
 DBCSR| MPI: Number of nodes                                                 128
 DBCSR| OMP: Current number of threads                                         1
 DBCSR| OMP: Max number of threads                                             1
 DBCSR| Split modifier for TAS multiplication algorithm                  1.0E+00


  **** **** ******  **  PROGRAM STARTED AT               2023-12-02 03:33:19.421
 ***** ** ***  *** **   PROGRAM STARTED ON                                 cu039
 **    ****   ******    PROGRAM STARTED BY                                 jxzhu
 ***** **    ** ** **   PROGRAM PROCESS ID                                 37044
  **** **  *******  **  PROGRAM STARTED IN /public/home/jxzhu/tmp_calc/9a04a2093
                                           1b9a5164e8660ba8ffc65a4c60def75/calc/
                                           000600.000/search_lo.000000

 CP2K| version string:                                       CP2K version 2022.1
 CP2K| source code revision number:                                  git:2caeb6f
 CP2K| cp2kflags: omp libint fftw3 libxc elpa parallel mpi3 scalapack cosma xsmm
 CP2K|             plumed2 spglib mkl sirius libvori libbqb
 CP2K| is freely available from                            https://www.cp2k.org/
 CP2K| Program compiled at                           Mon Jul 3 17:37:06 CST 2023
 CP2K| Program compiled on                                                 mu003
 CP2K| Program compiled for                                                local
 CP2K| Data directory path                             /public/home/jxzhu/basis/
 CP2K| Input file name                                                 input.inp
 
 GLOBAL| Force Environment number                                              1
 GLOBAL| Basis set file name                                        BASIS_MOLOPT
 GLOBAL| Potential file name                                      GTH_POTENTIALS
 GLOBAL| MM Potential file name                                     MM_POTENTIAL
 GLOBAL| Coordinate file name                                          coord.xyz
 GLOBAL| Method name                                                        CP2K
 GLOBAL| Project name                                                       cp2k
 GLOBAL| Run type                                                   ENERGY_FORCE
 GLOBAL| FFT library                                                       FFTW3
 GLOBAL| Diagonalization library                                            ELPA
 GLOBAL| Minimum number of eigenvectors for ELPA usage                        16
 GLOBAL| Orthonormality check for eigenvectors                          DISABLED
 GLOBAL| Matrix multiplication library                                     COSMA
 GLOBAL| All-to-all communication in single precision                          F
 GLOBAL| FFTs using library dependent lengths                                  T
 GLOBAL| Grid backend                                                       AUTO
 GLOBAL| Global print level                                               MEDIUM
 GLOBAL| MPI I/O enabled                                                       T
 GLOBAL| Total number of message passing processes                           128
 GLOBAL| Number of threads for this process                                    1
 GLOBAL| This output is from process                                           0
 GLOBAL| Stack size for threads created by OpenMP (OMP_STACKSIZE)        default
 GLOBAL| CPU model name                 Intel(R) Xeon(R) Gold 6338 CPU @ 2.00GHz
 GLOBAL| CPUID                                                              1003

 MEMORY| system memory details [Kb]
 MEMORY|                        rank 0           min           max       average
 MEMORY| MemTotal            263619172     263619172     263619172     263619172
 MEMORY| MemFree             213720708     213720708     215211056     214465735
 MEMORY| Buffers                    44            44          3320          1682
 MEMORY| Cached                1054432       1054432       1090084       1072258
 MEMORY| Slab                  1511196       1418056       1511196       1464626
 MEMORY| SReclaimable           241380        241380        246816        244098
 MEMORY| MemLikelyFree       215016564     215016564     216551276     215783773


 *** Fundamental physical constants (SI units) ***

 *** Literature: B. J. Mohr and B. N. Taylor,
 ***             CODATA recommended values of the fundamental physical
 ***             constants: 2006, Web Version 5.1
 ***             http://physics.nist.gov/constants

 Speed of light in vacuum [m/s]                             2.99792458000000E+08
 Magnetic constant or permeability of vacuum [N/A**2]       1.25663706143592E-06
 Electric constant or permittivity of vacuum [F/m]          8.85418781762039E-12
 Planck constant (h) [J*s]                                  6.62606896000000E-34
 Planck constant (h-bar) [J*s]                              1.05457162825177E-34
 Elementary charge [C]                                      1.60217648700000E-19
 Electron mass [kg]                                         9.10938215000000E-31
 Electron g factor [ ]                                     -2.00231930436220E+00
 Proton mass [kg]                                           1.67262163700000E-27
 Fine-structure constant                                    7.29735253760000E-03
 Rydberg constant [1/m]                                     1.09737315685270E+07
 Avogadro constant [1/mol]                                  6.02214179000000E+23
 Boltzmann constant [J/K]                                   1.38065040000000E-23
 Atomic mass unit [kg]                                      1.66053878200000E-27
 Bohr radius [m]                                            5.29177208590000E-11

 *** Conversion factors ***

 [u] -> [a.u.]                                              1.82288848426455E+03
 [Angstrom] -> [Bohr] = [a.u.]                              1.88972613288564E+00
 [a.u.] = [Bohr] -> [Angstrom]                              5.29177208590000E-01
 [a.u.] -> [s]                                              2.41888432650478E-17
 [a.u.] -> [fs]                                             2.41888432650478E-02
 [a.u.] -> [J]                                              4.35974393937059E-18
 [a.u.] -> [N]                                              8.23872205491840E-08
 [a.u.] -> [K]                                              3.15774647902944E+05
 [a.u.] -> [kJ/mol]                                         2.62549961709828E+03
 [a.u.] -> [kcal/mol]                                       6.27509468713739E+02
 [a.u.] -> [Pa]                                             2.94210107994716E+13
 [a.u.] -> [bar]                                            2.94210107994716E+08
 [a.u.] -> [atm]                                            2.90362800883016E+08
 [a.u.] -> [eV]                                             2.72113838565563E+01
 [a.u.] -> [Hz]                                             6.57968392072181E+15
 [a.u.] -> [1/cm] (wave numbers)                            2.19474631370540E+05
 [a.u./Bohr**2] -> [1/cm]                                   5.14048714338585E+03
 

 CELL_TOP| Volume [angstrom^3]:                                     17614.982639
 CELL_TOP| Vector a [angstrom    16.869     0.000     0.000   |a| =    16.869000
 CELL_TOP| Vector b [angstrom    -8.434    14.609     0.000   |b| =    16.869015
 CELL_TOP| Vector c [angstrom     0.000     0.000    71.478   |c| =    71.478000
 CELL_TOP| Angle (b,c), alpha [degree]:                                90.000000
 CELL_TOP| Angle (a,c), beta  [degree]:                                90.000000
 CELL_TOP| Angle (a,b), gamma [degree]:                               119.999970
 CELL_TOP| Numerically orthorhombic:                                          NO
 
 GENERATE|  Preliminary Number of Bonds generated:                             0
 GENERATE|  Achieved consistency in connectivity generation.

 CELL| Volume [angstrom^3]:                                         17614.982639
 CELL| Vector a [angstrom]:      16.869     0.000     0.000   |a| =    16.869000
 CELL| Vector b [angstrom]:      -8.434    14.609     0.000   |b| =    16.869015
 CELL| Vector c [angstrom]:       0.000     0.000    71.478   |c| =    71.478000
 CELL| Angle (b,c), alpha [degree]:                                    90.000000
 CELL| Angle (a,c), beta  [degree]:                                    90.000000
 CELL| Angle (a,b), gamma [degree]:                                   119.999970
 CELL| Numerically orthorhombic:                                              NO

 CELL_REF| Volume [angstrom^3]:                                     17614.982639
 CELL_REF| Vector a [angstrom    16.869     0.000     0.000   |a| =    16.869000
 CELL_REF| Vector b [angstrom    -8.434    14.609     0.000   |b| =    16.869015
 CELL_REF| Vector c [angstrom     0.000     0.000    71.478   |c| =    71.478000
 CELL_REF| Angle (b,c), alpha [degree]:                                90.000000
 CELL_REF| Angle (a,c), beta  [degree]:                                90.000000
 CELL_REF| Angle (a,b), gamma [degree]:                               119.999970
 CELL_REF| Numerically orthorhombic:                                          NO

 *******************************************************************************
 *******************************************************************************
 **                                                                           **
 **     #####                         ##              ##                      **
 **    ##   ##            ##          ##              ##                      **
 **   ##     ##                       ##            ######                    **
 **   ##     ##  ##   ##  ##   #####  ##  ##   ####   ##    #####    #####    **
 **   ##     ##  ##   ##  ##  ##      ## ##   ##      ##   ##   ##  ##   ##   **
 **   ##  ## ##  ##   ##  ##  ##      ####     ###    ##   ######   ######    **
 **    ##  ###   ##   ##  ##  ##      ## ##      ##   ##   ##       ##        **
 **     #######   #####   ##   #####  ##  ##  ####    ##    #####   ##        **
 **           ##                                                    ##        **
 **                                                                           **
 **                                                ... make the atoms dance   **
 **                                                                           **
 **            Copyright (C) by CP2K developers group (2000-2022)             **
 **                      J. Chem. Phys. 152, 194103 (2020)                    **
 **                                                                           **
 *******************************************************************************

 DFT| Spin restricted Kohn-Sham (RKS) calculation                            RKS
 DFT| Multiplicity                                                             1
 DFT| Number of spin states                                                    1
 DFT| Charge                                                                   0
 DFT| Self-interaction correction (SIC)                                       NO
 DFT| Cutoffs: density                                              1.000000E-10
 DFT|          gradient                                             1.000000E-10
 DFT|          tau                                                  1.000000E-10
 DFT|          cutoff_smoothing_range                               0.000000E+00
 DFT| XC density smoothing                                                  NONE
 DFT| XC derivatives                                                          PW

 FUNCTIONAL| PBE:
 FUNCTIONAL| J.P.Perdew, K.Burke, M.Ernzerhof, Phys. Rev. Letter, vol. 77, n 18,
 FUNCTIONAL|  pp. 3865-3868, (1996){spin unpolarized}                           

 vdW POTENTIAL|                                                   Pair Potential
 vdW POTENTIAL|          DFT-D3 (Version 3.1)
 vdW POTENTIAL|          Potential Form: S. Grimme et al, JCP 132: 154104 (2010)
 vdW POTENTIAL|          Zero Damping
 vdW POTENTIAL|          Cutoff Radius [Bohr]:                             20.00
 vdW POTENTIAL|          s6 Scaling Factor:                               1.0000
 vdW POTENTIAL|          sr6 Scaling Factor:                              1.2170
 vdW POTENTIAL|          s8 Scaling Factor:                               0.7220
 vdW POTENTIAL|          Cutoff for CN calculation:                   0.1000E-05

 QS| Method:                                                                 GPW
 QS| Density plane wave grid type                        NON-SPHERICAL FULLSPACE
 QS| Number of grid levels:                                                    4
 QS| Density cutoff [a.u.]:                                                200.0
 QS| Multi grid cutoff [a.u.]: 1) grid level                               200.0
 QS|                           2) grid level                                66.7
 QS|                           3) grid level                                22.2
 QS|                           4) grid level                                 7.4
 QS| Grid level progression factor:                                          3.0
 QS| Relative density cutoff [a.u.]:                                        20.0
 QS| Interaction thresholds: eps_pgf_orb:                                3.2E-07
 QS|                         eps_filter_matrix:                          0.0E+00
 QS|                         eps_core_charge:                            1.0E-15
 QS|                         eps_rho_gspace:                             1.0E-13
 QS|                         eps_rho_rspace:                             1.0E-13
 QS|                         eps_gvg_rspace:                             3.2E-07
 QS|                         eps_ppl:                                    1.0E-02
 QS|                         eps_ppnl:                                   3.2E-09


 ATOMIC KIND INFORMATION

  1. Atomic kind: O                                     Number of atoms:      99

     Orbital Basis Set                                        DZVP-MOLOPT-SR-GTH

       Number of orbital shell sets:                                           1
       Number of orbital shells:                                               5
       Number of primitive Cartesian functions:                                5
       Number of Cartesian basis functions:                                   14
       Number of spherical basis functions:                                   13
       Norm type:                                                              2

       Normalised Cartesian orbitals:

                        Set   Shell   Orbital            Exponent    Coefficient

                          1       1    2s               10.389228       0.396646
                                                         3.849621       0.208811
                                                         1.388401      -0.301641
                                                         0.496955      -0.274061
                                                         0.162492      -0.033677

                          1       2    3s               10.389228       0.303673
                                                         3.849621       0.240943
                                                         1.388401      -0.313066
                                                         0.496955      -0.043055
                                                         0.162492       0.213991

                          1       3    3px              10.389228      -1.530415
                                                         3.849621      -1.371928
                                                         1.388401      -0.761951
                                                         0.496955      -0.253695
                                                         0.162492      -0.035541
                          1       3    3py              10.389228      -1.530415
                                                         3.849621      -1.371928
                                                         1.388401      -0.761951
                                                         0.496955      -0.253695
                                                         0.162492      -0.035541
                          1       3    3pz              10.389228      -1.530415
                                                         3.849621      -1.371928
                                                         1.388401      -0.761951
                                                         0.496955      -0.253695
                                                         0.162492      -0.035541

                          1       4    4px              10.389228      -0.565392
                                                         3.849621      -0.038231
                                                         1.388401      -0.382373
                                                         0.496955       0.179070
                                                         0.162492       0.122714
                          1       4    4py              10.389228      -0.565392
                                                         3.849621      -0.038231
                                                         1.388401      -0.382373
                                                         0.496955       0.179070
                                                         0.162492       0.122714
                          1       4    4pz              10.389228      -0.565392
                                                         3.849621      -0.038231
                                                         1.388401      -0.382373
                                                         0.496955       0.179070
                                                         0.162492       0.122714

                          1       5    4dx2             10.389228       1.867377
                                                         3.849621       0.670994
                                                         1.388401       1.353441
                                                         0.496955       0.273538
                                                         0.162492       0.006620
                          1       5    4dxy             10.389228       3.234392
                                                         3.849621       1.162195
                                                         1.388401       2.344229
                                                         0.496955       0.473781
                                                         0.162492       0.011466
                          1       5    4dxz             10.389228       3.234392
                                                         3.849621       1.162195
                                                         1.388401       2.344229
                                                         0.496955       0.473781
                                                         0.162492       0.011466
                          1       5    4dy2             10.389228       1.867377
                                                         3.849621       0.670994
                                                         1.388401       1.353441
                                                         0.496955       0.273538
                                                         0.162492       0.006620
                          1       5    4dyz             10.389228       3.234392
                                                         3.849621       1.162195
                                                         1.388401       2.344229
                                                         0.496955       0.473781
                                                         0.162492       0.011466
                          1       5    4dz2             10.389228       1.867377
                                                         3.849621       0.670994
                                                         1.388401       1.353441
                                                         0.496955       0.273538
                                                         0.162492       0.006620

       Atomic covalent radius [Angstrom]:                                  0.730

       Atomic van der Waals radius [Angstrom]:                             1.520

     GTH Potential information for                                    GTH-PBE-q6

       Description:                       Goedecker-Teter-Hutter pseudopotential
                                           Goedecker et al., PRB 54, 1703 (1996)
                                          Hartwigsen et al., PRB 58, 3641 (1998)
                                                      Krack, TCA 114, 145 (2005)

       Gaussian exponent of the core charge distribution:               8.360253
       Electronic configuration (s p d ...):                               2   4

       Parameters of the local part of the GTH pseudopotential:

                          rloc        C1          C2          C3          C4
                        0.244554  -16.667215    2.487311

       Parameters of the non-local part of the GTH pseudopotential:

                   l      r(l)      h(i,j,l)

                   0    0.220956   18.337458
                   1    0.211332

  2. Atomic kind: H                                     Number of atoms:     198

     Orbital Basis Set                                        DZVP-MOLOPT-SR-GTH

       Number of orbital shell sets:                                           1
       Number of orbital shells:                                               3
       Number of primitive Cartesian functions:                                5
       Number of Cartesian basis functions:                                    5
       Number of spherical basis functions:                                    5
       Norm type:                                                              2

       Normalised Cartesian orbitals:

                        Set   Shell   Orbital            Exponent    Coefficient

                          1       1    2s               10.068468      -0.133023
                                                         2.680223      -0.177618
                                                         0.791502      -0.258419
                                                         0.239116      -0.107525
                                                         0.082193      -0.014019

                          1       2    3s               10.068468       0.344673
                                                         2.680223       1.819821
                                                         0.791502      -0.999069
                                                         0.239116       0.017430
                                                         0.082193       0.082660

                          1       3    3px              10.068468       0.155326
                                                         2.680223       0.367157
                                                         0.791502       0.311480
                                                         0.239116       0.080105
                                                         0.082193       0.033440
                          1       3    3py              10.068468       0.155326
                                                         2.680223       0.367157
                                                         0.791502       0.311480
                                                         0.239116       0.080105
                                                         0.082193       0.033440
                          1       3    3pz              10.068468       0.155326
                                                         2.680223       0.367157
                                                         0.791502       0.311480
                                                         0.239116       0.080105
                                                         0.082193       0.033440

       Atomic covalent radius [Angstrom]:                                  0.320

       Atomic van der Waals radius [Angstrom]:                             1.090

     GTH Potential information for                                    GTH-PBE-q1

       Description:                       Goedecker-Teter-Hutter pseudopotential
                                           Goedecker et al., PRB 54, 1703 (1996)
                                          Hartwigsen et al., PRB 58, 3641 (1998)
                                                      Krack, TCA 114, 145 (2005)

       Gaussian exponent of the core charge distribution:              12.500000
       Electronic configuration (s p d ...):                                   1

       Parameters of the local part of the GTH pseudopotential:

                          rloc        C1          C2          C3          C4
                        0.200000   -4.178900    0.724463

  3. Atomic kind: Pt                                    Number of atoms:     216

     Orbital Basis Set                      DZVP-A5-Q10-323-MOL-T1-DERIVED_SET-1

       Number of orbital shell sets:                                           1
       Number of orbital shells:                                               6
       Number of primitive Cartesian functions:                                5
       Number of Cartesian basis functions:                                   23
       Number of spherical basis functions:                                   20
       Norm type:                                                              2

       Normalised Cartesian orbitals:

                        Set   Shell   Orbital            Exponent    Coefficient

                          1       1    2s                2.521825       0.177473
                                                         1.453920      -0.063399
                                                         0.614053      -0.407089
                                                         0.232656       0.262254
                                                         0.074788       0.047371

                          1       2    3s                2.521825      -0.049056
                                                         1.453920       0.044904
                                                         0.614053      -0.009756
                                                         0.232656      -0.144709
                                                         0.074788       0.144085

                          1       3    3px               2.521825      -0.317572
                                                         1.453920       0.534826
                                                         0.614053      -0.489458
                                                         0.232656       0.245631
                                                         0.074788       0.018221
                          1       3    3py               2.521825      -0.317572
                                                         1.453920       0.534826
                                                         0.614053      -0.489458
                                                         0.232656       0.245631
                                                         0.074788       0.018221
                          1       3    3pz               2.521825      -0.317572
                                                         1.453920       0.534826
                                                         0.614053      -0.489458
                                                         0.232656       0.245631
                                                         0.074788       0.018221

                          1       4    4dx2              2.521825       3.008522
                                                         1.453920      -1.224251
                                                         0.614053       0.225691
                                                         0.232656       0.125144
                                                         0.074788      -0.015348
                          1       4    4dxy              2.521825       5.210912
                                                         1.453920      -2.120465
                                                         0.614053       0.390909
                                                         0.232656       0.216756
                                                         0.074788      -0.026584
                          1       4    4dxz              2.521825       5.210912
                                                         1.453920      -2.120465
                                                         0.614053       0.390909
                                                         0.232656       0.216756
                                                         0.074788      -0.026584
                          1       4    4dy2              2.521825       3.008522
                                                         1.453920      -1.224251
                                                         0.614053       0.225691
                                                         0.232656       0.125144
                                                         0.074788      -0.015348
                          1       4    4dyz              2.521825       5.210912
                                                         1.453920      -2.120465
                                                         0.614053       0.390909
                                                         0.232656       0.216756
                                                         0.074788      -0.026584
                          1       4    4dz2              2.521825       3.008522
                                                         1.453920      -1.224251
                                                         0.614053       0.225691
                                                         0.232656       0.125144
                                                         0.074788      -0.015348

                          1       5    5dx2              2.521825       0.698026
                                                         1.453920      -1.511486
                                                         0.614053      -0.335394
                                                         0.232656      -0.025564
                                                         0.074788      -0.002699
                          1       5    5dxy              2.521825       1.209017
                                                         1.453920      -2.617970
                                                         0.614053      -0.580920
                                                         0.232656      -0.044277
                                                         0.074788      -0.004674
                          1       5    5dxz              2.521825       1.209017
                                                         1.453920      -2.617970
                                                         0.614053      -0.580920
                                                         0.232656      -0.044277
                                                         0.074788      -0.004674
                          1       5    5dy2              2.521825       0.698026
                                                         1.453920      -1.511486
                                                         0.614053      -0.335394
                                                         0.232656      -0.025564
                                                         0.074788      -0.002699
                          1       5    5dyz              2.521825       1.209017
                                                         1.453920      -2.617970
                                                         0.614053      -0.580920
                                                         0.232656      -0.044277
                                                         0.074788      -0.004674
                          1       5    5dz2              2.521825       0.698026
                                                         1.453920      -1.511486
                                                         0.614053      -0.335394
                                                         0.232656      -0.025564
                                                         0.074788      -0.002699

                          1       6    6dx2              2.521825       0.831079
                                                         1.453920      -0.709226
                                                         0.614053      -0.137351
                                                         0.232656       0.068642
                                                         0.074788       0.011745
                          1       6    6dxy              2.521825       1.439472
                                                         1.453920      -1.228415
                                                         0.614053      -0.237899
                                                         0.232656       0.118891
                                                         0.074788       0.020343
                          1       6    6dxz              2.521825       1.439472
                                                         1.453920      -1.228415
                                                         0.614053      -0.237899
                                                         0.232656       0.118891
                                                         0.074788       0.020343
                          1       6    6dy2              2.521825       0.831079
                                                         1.453920      -0.709226
                                                         0.614053      -0.137351
                                                         0.232656       0.068642
                                                         0.074788       0.011745
                          1       6    6dyz              2.521825       1.439472
                                                         1.453920      -1.228415
                                                         0.614053      -0.237899
                                                         0.232656       0.118891
                                                         0.074788       0.020343
                          1       6    6dz2              2.521825       0.831079
                                                         1.453920      -0.709226
                                                         0.614053      -0.137351
                                                         0.232656       0.068642
                                                         0.074788       0.011745

       Atomic covalent radius [Angstrom]:                                  1.300

       Atomic van der Waals radius [Angstrom]:                             1.750

     GTH Potential information for                                   GTH-PBE-q10

       Description:                       Goedecker-Teter-Hutter pseudopotential
                                           Goedecker et al., PRB 54, 1703 (1996)
                                          Hartwigsen et al., PRB 58, 3641 (1998)
                                                      Krack, TCA 114, 145 (2005)

       Gaussian exponent of the core charge distribution:               1.317676
       Electronic configuration (s p d ...):                           1   0   9

       Parameters of the local part of the GTH pseudopotential:

                          rloc        C1          C2          C3          C4
                        0.616000   11.313635

       Parameters of the non-local part of the GTH pseudopotential:

                   l      r(l)      h(i,j,l)

                   0    0.550904    4.733491   -1.784594
                                   -1.784594    2.303901
                   1    0.674138    2.534798   -1.778066
                                   -1.778066    2.103836
                   2    0.457392   -7.264011    2.558665
                                    2.558665   -2.901253


 MOLECULE KIND INFORMATION


 All atoms are their own molecule, skipping detailed information


 TOTAL NUMBERS AND MAXIMUM NUMBERS

  Total number of            - Atomic kinds:                                   3
                             - Atoms:                                        513
                             - Shell sets:                                   513
                             - Shells:                                      2385
                             - Primitive Cartesian functions:               2565
                             - Cartesian basis functions:                   7344
                             - Spherical basis functions:                   6597

  Maximum angular momentum of- Orbital basis functions:                        2
                             - Local part of the GTH pseudopotential:          2
                             - Non-local part of the GTH pseudopotential:      4


 MODULE QUICKSTEP:  ATOMIC COORDINATES IN angstrom

 Atom  Kind  Element       X           Y           Z          Z(eff)       Mass
    1   1 O    8       3.430000   -1.910000   36.958000       6.0000     15.9994
    2   2 H    1       3.220000   -1.310000   36.097999       1.0000      1.0079
    3   2 H    1       4.340000   -2.220000   36.837999       1.0000      1.0079
    4   1 O    8       9.850000    4.050000   33.727999       6.0000     15.9994
    5   2 H    1       8.860001    4.100000   33.557999       1.0000      1.0079
    6   2 H    1      10.400001    4.100000   32.877999       1.0000      1.0079
    7   1 O    8       6.140000   -3.660000   39.638000       6.0000     15.9994
    8   2 H    1       5.170000   -3.580000   39.527999       1.0000      1.0079
    9   2 H    1       6.380000   -2.920000   40.248000       1.0000      1.0079
   10   1 O    8       4.160000   21.970001   33.128000       6.0000     15.9994
   11   2 H    1       4.810000   22.670002   32.927999       1.0000      1.0079
   12   2 H    1       3.920000   22.200001   34.017999       1.0000      1.0079
   13   1 O    8      -1.160000   19.580000   30.067999       6.0000     15.9994
   14   2 H    1      -1.090000   19.370001   31.027999       1.0000      1.0079
   15   2 H    1       6.310000    5.050000   29.967999       1.0000      1.0079
   16   1 O    8       2.540000    2.400000   37.748000       6.0000     15.9994
   17   2 H    1       1.970000    2.130000   36.997999       1.0000      1.0079
   18   2 H    1       3.250000    1.590000   37.837999       1.0000      1.0079
   19   1 O    8      26.560001   18.820002   30.037999       6.0000     15.9994
   20   2 H    1      26.610001   18.740002   29.057999       1.0000      1.0079
   21   2 H    1      25.610001   18.990000   30.207999       1.0000      1.0079
   22   1 O    8     -13.820001   20.480001   29.917999       6.0000     15.9994
   23   2 H    1     -14.370001   21.290001   30.027999       1.0000      1.0079
   24   2 H    1     -13.760000   20.190001   28.917999       1.0000      1.0079
   25   1 O    8       7.100000   -5.350000   35.758000       6.0000     15.9994
   26   2 H    1       6.500000   -5.940001   36.227999       1.0000      1.0079
   27   2 H    1      23.760002   -4.400000   36.067998       1.0000      1.0079
   28   1 O    8      18.370001    0.720000   30.067999       6.0000     15.9994
   29   2 H    1       9.320001   15.710001   29.397998       1.0000      1.0079
   30   2 H    1      19.270000    0.880000   29.577998       1.0000      1.0079
   31   1 O    8      -7.570000  -11.880001   39.658000       6.0000     15.9994
   32   2 H    1      -8.510000  -12.170000   39.558000       1.0000      1.0079
   33   2 H    1      -6.940000  -12.340001   38.958000       1.0000      1.0079
   34   1 O    8      11.050000    1.630000   29.877999       6.0000     15.9994
   35   2 H    1      11.240001    1.910000   28.997999       1.0000      1.0079
   36   2 H    1      10.120001    1.490000   29.987998       1.0000      1.0079
   37   1 O    8       5.300000   17.250000   32.887999       6.0000     15.9994
   38   2 H    1       5.070000   16.330002   32.897999       1.0000      1.0079
   39   2 H    1       4.380000   17.550001   32.557999       1.0000      1.0079
   40   1 O    8      12.360001   -7.130001   32.927999       6.0000     15.9994
   41   2 H    1      -4.600000   -7.090001   31.917999       1.0000      1.0079
   42   2 H    1      12.410001   -6.190000   33.378000       1.0000      1.0079
   43   1 O    8      -1.160000  -12.050000   29.257999       6.0000     15.9994
   44   2 H    1      -2.120000  -12.270001   29.557999       1.0000      1.0079
   45   2 H    1      -1.030000  -11.060000   29.407999       1.0000      1.0079
   46   1 O    8       3.490000    4.870000   38.067998       6.0000     15.9994
   47   2 H    1       4.290000    4.890000   37.517999       1.0000      1.0079
   48   2 H    1       3.150000    3.890000   37.937999       1.0000      1.0079
   49   1 O    8      18.100000    7.510000   29.957999       6.0000     15.9994
   50   2 H    1      19.100000    7.600000   30.147999       1.0000      1.0079
   51   2 H    1      18.090002    6.630001   29.517999       1.0000      1.0079
   52   1 O    8      -0.470000   14.040001   33.817999       6.0000     15.9994
   53   2 H    1       0.420000   14.000001   33.308000       1.0000      1.0079
   54   2 H    1      -0.840000   13.130001   33.657999       1.0000      1.0079
   55   1 O    8     -16.130001   12.010001   39.397998       6.0000     15.9994
   56   2 H    1     -24.540003   25.870001   40.017999       1.0000      1.0079
   57   2 H    1     -15.780001   12.800001   39.947999       1.0000      1.0079
   58   1 O    8      14.400001   -4.470000   35.797999       6.0000     15.9994
   59   2 H    1      14.060000   -4.910000   36.747999       1.0000      1.0079
   60   2 H    1       6.730001   10.750000   36.037999       1.0000      1.0079
   61   1 O    8     -18.280001   19.290001   38.857999       6.0000     15.9994
   62   2 H    1     -18.810001   19.040001   38.027999       1.0000      1.0079
   63   2 H    1     -19.050001   19.660000   39.488000       1.0000      1.0079
   64   1 O    8      -4.110000    0.930000   38.927999       6.0000     15.9994
   65   2 H    1      -5.020000    1.020000   39.287999       1.0000      1.0079
   66   2 H    1      -4.260000    1.340000   37.987998       1.0000      1.0079
   67   1 O    8       4.720000   10.050000   30.137999       6.0000     15.9994
   68   2 H    1       5.030000   10.610001   29.437999       1.0000      1.0079
   69   2 H    1       3.840000   10.400001   30.067999       1.0000      1.0079
   70   1 O    8     -10.360001   23.660002   33.097999       6.0000     15.9994
   71   2 H    1       6.690001   23.660002   34.097999       1.0000      1.0079
   72   2 H    1      -9.660000   23.090000   32.597999       1.0000      1.0079
   73   1 O    8       6.710000   -1.890000   29.717999       6.0000     15.9994
   74   2 H    1       6.680000   -2.810000   29.417999       1.0000      1.0079
   75   2 H    1       5.730000   -1.520000   29.657998       1.0000      1.0079
   76   1 O    8       1.700000   12.130001   36.947999       6.0000     15.9994
   77   2 H    1       1.440000   12.190001   37.907998       1.0000      1.0079
   78   2 H    1       2.700000   12.140001   37.058000       1.0000      1.0079
   79   1 O    8      10.760001    1.620000   35.117999       6.0000     15.9994
   80   2 H    1      10.390000    2.270000   34.508000       1.0000      1.0079
   81   2 H    1      10.030001    1.280000   35.808000       1.0000      1.0079
   82   1 O    8       2.280000   28.380001   39.458000       6.0000     15.9994
   83   2 H    1       2.660000   27.390001   39.588001       1.0000      1.0079
   84   2 H    1       1.480000   28.160002   38.917999       1.0000      1.0079
   85   1 O    8      -0.980000   22.530001   35.657999       6.0000     15.9994
   86   2 H    1      -1.510000   23.310001   35.667999       1.0000      1.0079
   87   2 H    1      -0.720000   22.320002   36.567999       1.0000      1.0079
   88   1 O    8      22.620001   -7.820001   29.877999       6.0000     15.9994
   89   2 H    1      14.280001    6.590000   28.877999       1.0000      1.0079
   90   2 H    1      21.670000   -8.140000   30.037999       1.0000      1.0079
   91   1 O    8       6.540000   -0.260000   36.367999       6.0000     15.9994
   92   2 H    1       5.740000    0.000000   36.827999       1.0000      1.0079
   93   2 H    1       6.470000    0.090000   35.467999       1.0000      1.0079
   94   1 O    8      11.770000    4.180000   38.687999       6.0000     15.9994
   95   2 H    1      11.400002    3.280000   38.427999       1.0000      1.0079
   96   2 H    1      12.770000    4.100000   38.718000       1.0000      1.0079
   97   1 O    8       1.040000   27.030001   30.227998       6.0000     15.9994
   98   2 H    1       1.810000   26.450003   29.907998       1.0000      1.0079
   99   2 H    1      18.030001   27.930002   29.887999       1.0000      1.0079
  100   1 O    8       0.840000    1.330000   36.127999       6.0000     15.9994
  101   2 H    1       0.220000    1.630000   35.387999       1.0000      1.0079
  102   2 H    1       0.340000    0.700000   36.657998       1.0000      1.0079
  103   1 O    8       1.860000   -6.180000   39.208000       6.0000     15.9994
  104   2 H    1       1.160000   -6.610000   38.577998       1.0000      1.0079
  105   2 H    1       2.220000   -6.870000   39.837999       1.0000      1.0079
  106   1 O    8       5.580000   -5.160000   29.317999       6.0000     15.9994
  107   2 H    1       4.650001   -4.820000   29.497999       1.0000      1.0079
  108   2 H    1       5.580000   -6.100000   29.677999       1.0000      1.0079
  109   1 O    8      10.940001   -2.810000   33.267999       6.0000     15.9994
  110   2 H    1      10.250001   -3.230000   33.847999       1.0000      1.0079
  111   2 H    1      10.740000   -2.790000   32.297999       1.0000      1.0079
  112   1 O    8      -4.160000   13.680000   30.027999       6.0000     15.9994
  113   2 H    1      -4.230000   13.040000   30.797999       1.0000      1.0079
  114   2 H    1      -4.700000   13.180000   29.367999       1.0000      1.0079
  115   1 O    8     -11.610001    8.900001   38.017999       6.0000     15.9994
  116   2 H    1     -10.960001    8.220000   38.447999       1.0000      1.0079
  117   2 H    1     -12.420001    8.380001   37.537999       1.0000      1.0079
  118   1 O    8       3.080000    8.420001   36.837999       6.0000     15.9994
  119   2 H    1       2.360000    7.730001   36.887999       1.0000      1.0079
  120   2 H    1       2.660000    9.070001   36.218000       1.0000      1.0079
  121   1 O    8      -3.350000  -12.880001   30.137999       6.0000     15.9994
  122   2 H    1      -4.150000  -12.500000   30.557998       1.0000      1.0079
  123   2 H    1       4.810000    0.740000   29.857998       1.0000      1.0079
  124   1 O    8      -2.320000    4.240000   39.138000       6.0000     15.9994
  125   2 H    1     -18.430000    4.210001   38.527999       1.0000      1.0079
  126   2 H    1      -2.270000    3.460000   39.677999       1.0000      1.0079
  127   1 O    8       9.990001    1.760000   39.187999       6.0000     15.9994
  128   2 H    1       9.170000    2.180000   39.567998       1.0000      1.0079
  129   2 H    1       9.640000    1.380000   38.357999       1.0000      1.0079
  130   1 O    8       8.710001    0.210000   29.277999       6.0000     15.9994
  131   2 H    1       8.080000   -0.540000   29.507999       1.0000      1.0079
  132   2 H    1       8.130000    1.030000   29.407999       1.0000      1.0079
  133   1 O    8      -9.430000    7.860000   29.927999       6.0000     15.9994
  134   2 H    1      -9.440001    6.910000   29.747999       1.0000      1.0079
  135   2 H    1      -9.670001    8.250000   29.077998       1.0000      1.0079
  136   1 O    8      12.330000   -0.850000   29.917999       6.0000     15.9994
  137   2 H    1      11.890000    0.010000   30.037999       1.0000      1.0079
  138   2 H    1      12.400000   -0.890000   28.907999       1.0000      1.0079
  139   1 O    8       3.860000    7.500000   30.207999       6.0000     15.9994
  140   2 H    1       4.350000    6.660000   29.897998       1.0000      1.0079
  141   2 H    1       4.450000    8.270000   29.847999       1.0000      1.0079
  142   1 O    8      -5.230000    7.940001   35.837999       6.0000     15.9994
  143   2 H    1      -5.770000    7.070000   35.867998       1.0000      1.0079
  144   2 H    1      -4.350000    7.650001   36.107999       1.0000      1.0079
  145   1 O    8      13.700001   27.670002   39.677999       6.0000     15.9994
  146   2 H    1      13.320000   27.080002   39.027999       1.0000      1.0079
  147   2 H    1      13.230000   28.510000   39.447999       1.0000      1.0079
  148   1 O    8      13.830000    4.440001   35.708000       6.0000     15.9994
  149   2 H    1      13.950001    4.730000   34.767999       1.0000      1.0079
  150   2 H    1      14.730001    4.360000   36.017999       1.0000      1.0079
  151   1 O    8       6.250000   -2.870000   36.867999       6.0000     15.9994
  152   2 H    1       6.520000   -2.000000   36.527998       1.0000      1.0079
  153   2 H    1       6.390000   -2.890000   37.837999       1.0000      1.0079
  154   1 O    8      -4.000000   -4.620000   33.657999       6.0000     15.9994
  155   2 H    1      -3.620000   -4.450000   34.537999       1.0000      1.0079
  156   2 H    1      -4.650001   -3.840000   33.397999       1.0000      1.0079
  157   1 O    8      13.050001   16.570000   35.137999       6.0000     15.9994
  158   2 H    1      13.420000   16.380001   34.217999       1.0000      1.0079
  159   2 H    1      12.170000   16.960001   34.867998       1.0000      1.0079
  160   1 O    8      -4.310000   12.050000   32.047999       6.0000     15.9994
  161   2 H    1      -3.520000   11.600000   32.317998       1.0000      1.0079
  162   2 H    1      -4.960000   11.750001   32.727998       1.0000      1.0079
  163   1 O    8      -0.470000    3.940000   37.037998       6.0000     15.9994
  164   2 H    1       0.150000    4.700000   36.927999       1.0000      1.0079
  165   2 H    1       0.100000    3.190000   37.257999       1.0000      1.0079
  166   1 O    8      -1.480000   11.730001   32.567999       6.0000     15.9994
  167   2 H    1      -1.430000   11.850000   31.557999       1.0000      1.0079
  168   2 H    1      -1.610000   10.770000   32.757999       1.0000      1.0079
  169   1 O    8      -2.110000    5.520000   33.287999       6.0000     15.9994
  170   2 H    1      -2.920000    6.070001   33.027999       1.0000      1.0079
  171   2 H    1      -1.290000    6.040000   33.297999       1.0000      1.0079
  172   1 O    8       7.420001   16.680000   29.157998       6.0000     15.9994
  173   2 H    1       6.950001   15.800000   29.437999       1.0000      1.0079
  174   2 H    1       7.020000   17.450001   29.697999       1.0000      1.0079
  175   1 O    8      17.400002   23.640001   33.317998       6.0000     15.9994
  176   2 H    1      17.120001   22.870003   33.877999       1.0000      1.0079
  177   2 H    1      16.650002   23.990002   32.787999       1.0000      1.0079
  178   1 O    8      20.260000    3.160000   31.617999       6.0000     15.9994
  179   2 H    1      19.450001    3.530000   31.097999       1.0000      1.0079
  180   2 H    1      20.020000    3.080000   32.567999       1.0000      1.0079
  181   1 O    8      -9.740001   11.890000   29.127999       6.0000     15.9994
  182   2 H    1      -9.980000   12.770000   29.527998       1.0000      1.0079
  183   2 H    1      -8.810000   11.800001   29.447998       1.0000      1.0079
  184   1 O    8      24.880001   41.610001   33.588000       6.0000     15.9994
  185   2 H    1      25.930002   41.460003   33.397999       1.0000      1.0079
  186   2 H    1      24.300001   41.060005   32.997999       1.0000      1.0079
  187   1 O    8      15.300001    3.960000   30.787999       6.0000     15.9994
  188   2 H    1      14.850000    4.820000   30.527999       1.0000      1.0079
  189   2 H    1      14.830000    3.680000   31.577998       1.0000      1.0079
  190   1 O    8     -12.970000   14.380001   33.837999       6.0000     15.9994
  191   2 H    1     -13.290001   13.560000   33.447999       1.0000      1.0079
  192   2 H    1      -5.340000    0.270000   34.267999       1.0000      1.0079
  193   1 O    8      -1.900000   -3.880000   32.297999       6.0000     15.9994
  194   2 H    1      -1.940000   -4.120000   31.307999       1.0000      1.0079
  195   2 H    1      -2.640000   -4.320000   32.718000       1.0000      1.0079
  196   1 O    8     -14.360001    3.470000   34.137999       6.0000     15.9994
  197   2 H    1     -14.360001    4.510000   34.067999       1.0000      1.0079
  198   2 H    1     -15.330001    3.310000   34.057999       1.0000      1.0079
  199   1 O    8       4.660000    4.830000   29.877999       6.0000     15.9994
  200   2 H    1       4.160000    4.460000   29.137999       1.0000      1.0079
  201   2 H    1      21.160002    4.590000   30.757999       1.0000      1.0079
  202   1 O    8       8.440001   -4.900000   29.197998       6.0000     15.9994
  203   2 H    1       7.470000   -4.950000   29.487998       1.0000      1.0079
  204   2 H    1       8.980000   -5.710001   29.557999       1.0000      1.0079
  205   1 O    8      16.710001    2.380000   33.757999       6.0000     15.9994
  206   2 H    1      15.850000    2.910000   33.617998       1.0000      1.0079
  207   2 H    1      16.520000    1.560000   33.177999       1.0000      1.0079
  208   1 O    8      -2.790000    6.990001   36.697999       6.0000     15.9994
  209   2 H    1      -3.170000    6.120000   36.437999       1.0000      1.0079
  210   2 H    1      -2.800000    7.100000   37.657998       1.0000      1.0079
  211   1 O    8      11.480000   14.440001   35.147998       6.0000     15.9994
  212   2 H    1      12.140001   15.190001   35.187999       1.0000      1.0079
  213   2 H    1      10.640000   14.890001   35.497999       1.0000      1.0079
  214   1 O    8      12.760000   15.180001   38.137998       6.0000     15.9994
  215   2 H    1      11.980001   14.500000   38.237998       1.0000      1.0079
  216   2 H    1      13.160001   15.130001   39.157998       1.0000      1.0079
  217   1 O    8      14.350000   -0.540000   35.517999       6.0000     15.9994
  218   2 H    1      13.620001   -0.580000   34.838000       1.0000      1.0079
  219   2 H    1      14.090000    0.400000   35.857999       1.0000      1.0079
  220   1 O    8      14.920001   -0.310000   30.127999       6.0000     15.9994
  221   2 H    1      15.420000   -0.160000   30.977999       1.0000      1.0079
  222   2 H    1      13.980001   -0.480000   30.447998       1.0000      1.0079
  223   1 O    8       6.430000    1.470000   32.827998       6.0000     15.9994
  224   2 H    1       6.220000    1.540000   31.897999       1.0000      1.0079
  225   2 H    1       7.020000    0.680000   32.917999       1.0000      1.0079
  226   1 O    8      -0.060000   -1.030000   37.927999       6.0000     15.9994
  227   2 H    1      -1.020000   -0.830000   38.147998       1.0000      1.0079
  228   2 H    1       0.010000   -1.750000   37.208000       1.0000      1.0079
  229   1 O    8       9.260000    0.240000   36.837999       6.0000     15.9994
  230   2 H    1       8.270000    0.170000   36.737998       1.0000      1.0079
  231   2 H    1       9.640000   -0.690000   36.807998       1.0000      1.0079
  232   1 O    8       0.350000    7.290000   39.387998       6.0000     15.9994
  233   2 H    1       0.380000    6.540000   40.007999       1.0000      1.0079
  234   2 H    1       0.910000    8.100000   39.667999       1.0000      1.0079
  235   1 O    8     -15.660001   10.220001   35.218000       6.0000     15.9994
  236   2 H    1     -16.530001    9.830000   35.207999       1.0000      1.0079
  237   2 H    1     -15.570001   10.800000   35.997999       1.0000      1.0079
  238   1 O    8       5.880000    6.010000   34.458000       6.0000     15.9994
  239   2 H    1       5.190001    6.500000   33.968000       1.0000      1.0079
  240   2 H    1       6.470000    6.740000   34.888000       1.0000      1.0079
  241   1 O    8      10.130000    8.050001   30.617999       6.0000     15.9994
  242   2 H    1      10.110001    8.100000   31.597999       1.0000      1.0079
  243   2 H    1       9.140000    8.080000   30.367998       1.0000      1.0079
  244   1 O    8       3.240000   24.670000   30.027999       6.0000     15.9994
  245   2 H    1       3.480000   25.120001   30.847999       1.0000      1.0079
  246   2 H    1       2.690000   23.800001   30.207999       1.0000      1.0079
  247   1 O    8      24.850002   11.570001   36.117999       6.0000     15.9994
  248   2 H    1      25.670002   10.960001   36.097999       1.0000      1.0079
  249   2 H    1      24.690001   11.940001   35.197999       1.0000      1.0079
  250   1 O    8      -4.180000    2.070000   36.647999       6.0000     15.9994
  251   2 H    1      -3.720000    2.860000   36.218000       1.0000      1.0079
  252   2 H    1      -5.030000    1.970000   36.088000       1.0000      1.0079
  253   1 O    8      -2.110000    8.070001   39.347999       6.0000     15.9994
  254   2 H    1      -1.170000    7.850000   39.367999       1.0000      1.0079
  255   2 H    1      -2.260000    9.060000   39.437999       1.0000      1.0079
  256   1 O    8     -10.170001  -12.830001   39.888000       6.0000     15.9994
  257   2 H    1     -10.990001  -13.240002   39.488000       1.0000      1.0079
  258   2 H    1     -10.110001  -13.330001   40.757999       1.0000      1.0079
  259   1 O    8      -6.360001   10.340000   36.157999       6.0000     15.9994
  260   2 H    1      -5.960000    9.430000   36.177999       1.0000      1.0079
  261   2 H    1      -5.840001   10.930000   36.827999       1.0000      1.0079
  262   1 O    8      -5.380001    3.810000   31.527998       6.0000     15.9994
  263   2 H    1      -5.350000    4.550000   30.937999       1.0000      1.0079
  264   2 H    1      -5.390000    2.930000   31.037999       1.0000      1.0079
  265   1 O    8       2.350000   -3.230000   33.867999       6.0000     15.9994
  266   2 H    1       2.440000   -3.220000   34.857999       1.0000      1.0079
  267   2 H    1       1.910000   -4.090000   33.667999       1.0000      1.0079
  268   1 O    8       8.030001   14.720001   32.167999       6.0000     15.9994
  269   2 H    1       7.880001   13.880000   32.727998       1.0000      1.0079
  270   2 H    1       9.010000   14.600000   32.007999       1.0000      1.0079
  271   1 O    8       8.640000    6.600000   37.878000       6.0000     15.9994
  272   2 H    1       7.970000    5.910000   38.208000       1.0000      1.0079
  273   2 H    1       9.280001    6.060000   37.327998       1.0000      1.0079
  274   1 O    8       0.000000    7.290000   32.407999       6.0000     15.9994
  275   2 H    1       0.680000    7.060000   33.128000       1.0000      1.0079
  276   2 H    1       0.600000    7.220001   31.597999       1.0000      1.0079
  277   1 O    8       9.870001   20.710001   37.058000       6.0000     15.9994
  278   2 H    1       9.220000   21.000002   37.767999       1.0000      1.0079
  279   2 H    1      10.660001   20.400002   37.517999       1.0000      1.0079
  280   1 O    8     -12.460001   12.160001   37.147998       6.0000     15.9994
  281   2 H    1       4.840000   11.480000   36.597999       1.0000      1.0079
  282   2 H    1       4.480000   12.940001   36.628000       1.0000      1.0079
  283   1 O    8       7.030000    4.230000   32.627999       6.0000     15.9994
  284   2 H    1       6.680000    4.760000   33.378000       1.0000      1.0079
  285   2 H    1       7.110000    3.300000   32.787999       1.0000      1.0079
  286   1 O    8      -6.300001    5.470000   36.097999       6.0000     15.9994
  287   2 H    1      -6.500000    4.930000   35.237999       1.0000      1.0079
  288   2 H    1      -5.560000    4.850000   36.468000       1.0000      1.0079
  289   1 O    8       1.880000    6.040000   34.067999       6.0000     15.9994
  290   2 H    1       2.620000    6.540000   33.638000       1.0000      1.0079
  291   2 H    1       1.840000    6.310000   35.007999       1.0000      1.0079
  292   1 O    8       5.550000    4.300000   36.607999       6.0000     15.9994
  293   2 H    1       5.290000    3.420000   36.337999       1.0000      1.0079
  294   2 H    1       5.500000    5.000000   35.817998       1.0000      1.0079
  295   1 O    8     -14.790001   11.760000   30.467999       6.0000     15.9994
  296   2 H    1     -15.480001   11.530000   29.797999       1.0000      1.0079
  297   2 H    1       2.620000   12.420001   29.967999       1.0000      1.0079
  298   3 Pt  78       1.720000    0.890000   15.200001      10.0000    195.0840
  299   3 Pt  78       4.420000    0.750000   15.059998      10.0000    195.0840
  300   3 Pt  78       7.250000    0.760000   15.049999      10.0000    195.0840
  301   3 Pt  78       9.930000    0.860000   15.020000      10.0000    195.0840
  302   3 Pt  78      12.890000    0.980000   15.289997      10.0000    195.0840
  303   3 Pt  78      15.770000    0.930000   15.160000      10.0000    195.0840
  304   3 Pt  78       3.200000    3.210000   15.230000      10.0000    195.0840
  305   3 Pt  78       5.920000    3.160000   15.149998      10.0000    195.0840
  306   3 Pt  78       8.580000    3.280000   15.110001      10.0000    195.0840
  307   3 Pt  78      11.310000    3.300000   15.100002      10.0000    195.0840
  308   3 Pt  78      14.290000    3.390000   15.240002      10.0000    195.0840
  309   3 Pt  78       0.260000    3.300000   15.160000      10.0000    195.0840
  310   3 Pt  78       4.400000    5.670000   15.040001      10.0000    195.0840
  311   3 Pt  78       7.300000    5.660000   15.119999      10.0000    195.0840
  312   3 Pt  78       9.930000    5.700001   15.219997      10.0000    195.0840
  313   3 Pt  78      12.830001    5.670000   15.160000      10.0000    195.0840
  314   3 Pt  78      -1.230000    5.720000   15.279999      10.0000    195.0840
  315   3 Pt  78       1.590000    5.700001   15.160000      10.0000    195.0840
  316   3 Pt  78       5.700001    8.130000   15.000000      10.0000    195.0840
  317   3 Pt  78       8.590000    8.120001   15.289997      10.0000    195.0840
  318   3 Pt  78      11.510000    8.110001   15.260002      10.0000    195.0840
  319   3 Pt  78      -2.610000    8.130000   15.240002      10.0000    195.0840
  320   3 Pt  78       0.090000    8.120001   15.260002      10.0000    195.0840
  321   3 Pt  78       2.900000    8.170000   15.189999      10.0000    195.0840
  322   3 Pt  78       7.100000   10.670000   15.119999      10.0000    195.0840
  323   3 Pt  78       9.960001   10.580001   15.040001      10.0000    195.0840
  324   3 Pt  78      -4.150000   10.570001   15.170002      10.0000    195.0840
  325   3 Pt  78      -1.090000   10.650001   15.189999      10.0000    195.0840
  326   3 Pt  78       1.680000   10.610001   15.260002      10.0000    195.0840
  327   3 Pt  78       4.260000   10.480001   15.009998      10.0000    195.0840
  328   3 Pt  78       8.500000   13.170000   15.049999      10.0000    195.0840
  329   3 Pt  78      -5.520000   12.950001   15.139999      10.0000    195.0840
  330   3 Pt  78      -2.640000   12.960000   15.130001      10.0000    195.0840
  331   3 Pt  78       0.240000   13.050001   15.079998      10.0000    195.0840
  332   3 Pt  78       2.940000   13.090000   15.219997      10.0000    195.0840
  333   3 Pt  78       5.760000   13.070001   15.130001      10.0000    195.0840
  334   3 Pt  78       0.270000    1.620000   17.459999      10.0000    195.0840
  335   3 Pt  78       2.900000    1.490000   17.489998      10.0000    195.0840
  336   3 Pt  78       5.750000    1.580000   17.480000      10.0000    195.0840
  337   3 Pt  78       8.590000    1.550000   17.489998      10.0000    195.0840
  338   3 Pt  78      11.380000    1.530000   17.590000      10.0000    195.0840
  339   3 Pt  78      14.370001    1.570000   17.600002      10.0000    195.0840
  340   3 Pt  78       1.690000    4.120000   17.570000      10.0000    195.0840
  341   3 Pt  78       4.520000    4.050000   17.520000      10.0000    195.0840
  342   3 Pt  78       7.280001    4.020000   17.540001      10.0000    195.0840
  343   3 Pt  78       9.970000    3.980000   17.549999      10.0000    195.0840
  344   3 Pt  78      12.880001    3.950000   17.559998      10.0000    195.0840
  345   3 Pt  78      -1.180000    4.030000   17.570000      10.0000    195.0840
  346   3 Pt  78       3.100000    6.440001   17.530003      10.0000    195.0840
  347   3 Pt  78       5.910000    6.450000   17.380001      10.0000    195.0840
  348   3 Pt  78       8.600000    6.390000   17.590000      10.0000    195.0840
  349   3 Pt  78      11.350001    6.410000   17.489998      10.0000    195.0840
  350   3 Pt  78      -2.580000    6.380000   17.670002      10.0000    195.0840
  351   3 Pt  78       0.280000    6.510000   17.570000      10.0000    195.0840
  352   3 Pt  78       4.320000    8.890000   17.530003      10.0000    195.0840
  353   3 Pt  78       7.200000    8.900001   17.530003      10.0000    195.0840
  354   3 Pt  78       9.950001    8.850000   17.549999      10.0000    195.0840
  355   3 Pt  78      -3.970000    8.880001   17.509998      10.0000    195.0840
  356   3 Pt  78      -1.230000    8.890000   17.619999      10.0000    195.0840
  357   3 Pt  78       1.540000    9.040001   17.530003      10.0000    195.0840
  358   3 Pt  78       5.820000   11.310000   17.410000      10.0000    195.0840
  359   3 Pt  78       8.530001   11.400002   17.470001      10.0000    195.0840
  360   3 Pt  78      -5.450000   11.430000   17.470001      10.0000    195.0840
  361   3 Pt  78      -2.480000   11.310000   17.500000      10.0000    195.0840
  362   3 Pt  78       0.220000   11.410000   17.559998      10.0000    195.0840
  363   3 Pt  78       3.110000   11.360001   17.480000      10.0000    195.0840
  364   3 Pt  78       7.220001   13.810000   17.459999      10.0000    195.0840
  365   3 Pt  78      -6.870000   13.780001   17.549999      10.0000    195.0840
  366   3 Pt  78      -4.010000   13.720001   17.509998      10.0000    195.0840
  367   3 Pt  78      -1.170000   13.820001   17.500000      10.0000    195.0840
  368   3 Pt  78       1.650000   13.770000   17.660000      10.0000    195.0840
  369   3 Pt  78       4.480000   13.730000   17.480000      10.0000    195.0840
  370   3 Pt  78      -8.300000   14.530001   19.799999      10.0000    195.0840
  371   3 Pt  78      -5.490000   14.540001   19.759998      10.0000    195.0840
  372   3 Pt  78      -2.620000   14.500000   19.790001      10.0000    195.0840
  373   3 Pt  78       0.110000   14.420000   19.880001      10.0000    195.0840
  374   3 Pt  78       3.030000   14.500000   19.869999      10.0000    195.0840
  375   3 Pt  78       5.830000   14.520000   19.920002      10.0000    195.0840
  376   3 Pt  78       1.550000    2.450000   19.770000      10.0000    195.0840
  377   3 Pt  78       4.430000    2.430000   19.799999      10.0000    195.0840
  378   3 Pt  78       7.230001    2.330000   19.939999      10.0000    195.0840
  379   3 Pt  78       9.980000    2.150000   19.889999      10.0000    195.0840
  380   3 Pt  78      12.840000    2.240000   19.920002      10.0000    195.0840
  381   3 Pt  78      -1.250000    2.360000   19.860001      10.0000    195.0840
  382   3 Pt  78       3.090000    4.810000   19.799999      10.0000    195.0840
  383   3 Pt  78       5.910000    4.800000   19.840000      10.0000    195.0840
  384   3 Pt  78       8.730000    4.740000   19.920002      10.0000    195.0840
  385   3 Pt  78      11.380000    4.760000   19.899998      10.0000    195.0840
  386   3 Pt  78      -2.680000    4.740000   19.880001      10.0000    195.0840
  387   3 Pt  78       0.210000    4.760000   19.799999      10.0000    195.0840
  388   3 Pt  78       4.420000    7.300000   19.880001      10.0000    195.0840
  389   3 Pt  78       7.230001    7.180000   19.860001      10.0000    195.0840
  390   3 Pt  78      10.040001    7.290000   19.850002      10.0000    195.0840
  391   3 Pt  78      -4.090000    7.200000   19.860001      10.0000    195.0840
  392   3 Pt  78      -1.170000    7.140000   19.889999      10.0000    195.0840
  393   3 Pt  78       1.600000    7.200000   19.790001      10.0000    195.0840
  394   3 Pt  78       5.800000    9.730001   19.869999      10.0000    195.0840
  395   3 Pt  78       8.620001    9.650001   19.790001      10.0000    195.0840
  396   3 Pt  78      -5.440001    9.650001   19.730000      10.0000    195.0840
  397   3 Pt  78      -2.640000    9.540001   19.840000      10.0000    195.0840
  398   3 Pt  78       0.230000    9.550000   19.880001      10.0000    195.0840
  399   3 Pt  78       3.020000    9.690001   19.920002      10.0000    195.0840
  400   3 Pt  78       7.180000   12.160001   19.850002      10.0000    195.0840
  401   3 Pt  78      -6.910000   12.150001   19.750000      10.0000    195.0840
  402   3 Pt  78      -4.070000   12.070000   19.860001      10.0000    195.0840
  403   3 Pt  78      -1.280000   11.950001   19.920002      10.0000    195.0840
  404   3 Pt  78       1.580000   12.120000   19.889999      10.0000    195.0840
  405   3 Pt  78       4.310000   12.160001   19.860001      10.0000    195.0840
  406   3 Pt  78       1.530000    0.730000   22.037998      10.0000    195.0840
  407   3 Pt  78       4.380000    0.610000   22.047998      10.0000    195.0840
  408   3 Pt  78       7.200000    0.700000   22.157998      10.0000    195.0840
  409   3 Pt  78       9.890000    0.670000   22.217998      10.0000    195.0840
  410   3 Pt  78      12.820001    0.640000   22.257998      10.0000    195.0840
  411   3 Pt  78      15.600000    0.690000   22.167998      10.0000    195.0840
  412   3 Pt  78       3.060000    3.040000   22.187998      10.0000    195.0840
  413   3 Pt  78       5.670000    3.120000   22.277998      10.0000    195.0840
  414   3 Pt  78       8.500000    3.230000   22.167998      10.0000    195.0840
  415   3 Pt  78      11.290001    3.100000   22.127998      10.0000    195.0840
  416   3 Pt  78      14.170000    3.090000   22.217998      10.0000    195.0840
  417   3 Pt  78       0.200000    3.100000   22.167998      10.0000    195.0840
  418   3 Pt  78       4.360000    5.600000   22.137998      10.0000    195.0840
  419   3 Pt  78       7.120000    5.650000   22.187998      10.0000    195.0840
  420   3 Pt  78       9.890000    5.650000   22.197998      10.0000    195.0840
  421   3 Pt  78      12.720001    5.560000   22.147998      10.0000    195.0840
  422   3 Pt  78      -1.200000    5.560000   22.137998      10.0000    195.0840
  423   3 Pt  78       1.620000    5.460000   22.117998      10.0000    195.0840
  424   3 Pt  78       5.800000    8.070001   22.177998      10.0000    195.0840
  425   3 Pt  78       8.590000    8.040000   22.167998      10.0000    195.0840
  426   3 Pt  78      11.410000    8.000000   22.177998      10.0000    195.0840
  427   3 Pt  78      -2.660000    7.890000   22.127998      10.0000    195.0840
  428   3 Pt  78       0.200000    7.960001   22.137998      10.0000    195.0840
  429   3 Pt  78       2.930000    8.000000   22.157998      10.0000    195.0840
  430   3 Pt  78       7.170000   10.520000   22.097998      10.0000    195.0840
  431   3 Pt  78      10.000000   10.470000   22.017998      10.0000    195.0840
  432   3 Pt  78      -4.040000   10.430001   22.077998      10.0000    195.0840
  433   3 Pt  78      -1.270000   10.370001   22.217998      10.0000    195.0840
  434   3 Pt  78       1.530000   10.460000   22.257998      10.0000    195.0840
  435   3 Pt  78       4.340000   10.450001   22.127998      10.0000    195.0840
  436   3 Pt  78       8.560000   12.890000   22.247998      10.0000    195.0840
  437   3 Pt  78      -5.520000   12.850000   21.977998      10.0000    195.0840
  438   3 Pt  78      -2.640000   12.850000   22.217998      10.0000    195.0840
  439   3 Pt  78       0.050000   12.790001   22.237998      10.0000    195.0840
  440   3 Pt  78       2.870000   12.900001   22.267998      10.0000    195.0840
  441   3 Pt  78       5.750000   12.880001   22.267998      10.0000    195.0840
  442   3 Pt  78       0.010000    1.450000   24.437999      10.0000    195.0840
  443   3 Pt  78       2.880000    1.460000   24.467999      10.0000    195.0840
  444   3 Pt  78       5.690000    1.540000   24.587998      10.0000    195.0840
  445   3 Pt  78       8.390000    1.520000   24.487999      10.0000    195.0840
  446   3 Pt  78      11.330000    1.510000   24.537999      10.0000    195.0840
  447   3 Pt  78      14.030001    1.530000   24.587998      10.0000    195.0840
  448   3 Pt  78       1.520000    3.850000   24.467999      10.0000    195.0840
  449   3 Pt  78       4.270000    3.890000   24.527998      10.0000    195.0840
  450   3 Pt  78       7.060000    4.060000   24.487999      10.0000    195.0840
  451   3 Pt  78       9.900001    3.990000   24.397999      10.0000    195.0840
  452   3 Pt  78      12.770000    3.890000   24.447998      10.0000    195.0840
  453   3 Pt  78      -1.310000    3.870000   24.427998      10.0000    195.0840
  454   3 Pt  78       2.950000    6.320000   24.447998      10.0000    195.0840
  455   3 Pt  78       5.590000    6.410000   24.427998      10.0000    195.0840
  456   3 Pt  78       8.520000    6.420000   24.587998      10.0000    195.0840
  457   3 Pt  78      11.390000    6.310000   24.557998      10.0000    195.0840
  458   3 Pt  78      -2.630000    6.400001   24.447998      10.0000    195.0840
  459   3 Pt  78       0.230000    6.260000   24.387998      10.0000    195.0840
  460   3 Pt  78       4.310000    8.860001   24.497999      10.0000    195.0840
  461   3 Pt  78       7.060000    8.930000   24.387998      10.0000    195.0840
  462   3 Pt  78      10.060000    8.880001   24.467999      10.0000    195.0840
  463   3 Pt  78      -4.020000    8.810000   24.427998      10.0000    195.0840
  464   3 Pt  78      -1.210000    8.760000   24.537999      10.0000    195.0840
  465   3 Pt  78       1.470000    8.830000   24.547998      10.0000    195.0840
  466   3 Pt  78       5.670000   11.310000   24.537999      10.0000    195.0840
  467   3 Pt  78       8.530001   11.290001   24.487999      10.0000    195.0840
  468   3 Pt  78      -5.420001   11.180000   24.277999      10.0000    195.0840
  469   3 Pt  78      -2.590000   11.190001   24.437999      10.0000    195.0840
  470   3 Pt  78       0.140000   11.330000   24.577998      10.0000    195.0840
  471   3 Pt  78       2.940000   11.240001   24.447998      10.0000    195.0840
  472   3 Pt  78       7.060000   13.700001   24.617998      10.0000    195.0840
  473   3 Pt  78      -6.890000   13.700001   24.427998      10.0000    195.0840
  474   3 Pt  78      -4.180000   13.580000   24.397999      10.0000    195.0840
  475   3 Pt  78      -1.390000   13.730000   24.537999      10.0000    195.0840
  476   3 Pt  78       1.440000   13.760000   24.537999      10.0000    195.0840
  477   3 Pt  78       4.240000   13.720001   24.597999      10.0000    195.0840
  478   3 Pt  78      -8.300000   14.380001   26.837999      10.0000    195.0840
  479   3 Pt  78      -5.490000   14.420000   26.737999      10.0000    195.0840
  480   3 Pt  78      -2.800000   14.610001   26.817998      10.0000    195.0840
  481   3 Pt  78       0.080000   14.460001   26.897999      10.0000    195.0840
  482   3 Pt  78       3.000000   14.590001   26.887999      10.0000    195.0840
  483   3 Pt  78       5.720000   14.520000   26.907998      10.0000    195.0840
  484   3 Pt  78       1.440000    2.260000   26.797999      10.0000    195.0840
  485   3 Pt  78       4.240000    2.350000   26.827999      10.0000    195.0840
  486   3 Pt  78       7.150001    2.280000   26.937999      10.0000    195.0840
  487   3 Pt  78       9.980000    2.340000   26.647999      10.0000    195.0840
  488   3 Pt  78      12.690001    2.420000   27.067999      10.0000    195.0840
  489   3 Pt  78      -1.330000    2.210000   26.867998      10.0000    195.0840
  490   3 Pt  78       2.930000    4.810000   26.937999      10.0000    195.0840
  491   3 Pt  78       5.680000    4.810000   26.857998      10.0000    195.0840
  492   3 Pt  78       8.440001    4.790000   26.747999      10.0000    195.0840
  493   3 Pt  78      11.330000    4.750000   26.897999      10.0000    195.0840
  494   3 Pt  78      -2.760000    4.610000   26.697999      10.0000    195.0840
  495   3 Pt  78       0.050000    4.690000   26.757999      10.0000    195.0840
  496   3 Pt  78       4.250000    7.230001   26.817998      10.0000    195.0840
  497   3 Pt  78       7.140000    7.230001   26.837999      10.0000    195.0840
  498   3 Pt  78       9.920000    7.160000   26.967999      10.0000    195.0840
  499   3 Pt  78      -4.030000    7.190001   26.707999      10.0000    195.0840
  500   3 Pt  78      -1.240000    7.070000   26.697999      10.0000    195.0840
  501   3 Pt  78       1.480000    7.220001   26.827999      10.0000    195.0840
  502   3 Pt  78       5.700001    9.510000   26.817998      10.0000    195.0840
  503   3 Pt  78       8.520000    9.600000   26.767999      10.0000    195.0840
  504   3 Pt  78      -5.550000    9.620001   26.767999      10.0000    195.0840
  505   3 Pt  78      -2.810000    9.620001   26.827999      10.0000    195.0840
[...]
 -                                                                             -
 -                                DBCSR STATISTICS                             -
 -                                                                             -
 -------------------------------------------------------------------------------
 COUNTER                                    TOTAL       BLAS       SMM       ACC
 flops     5 x     5 x   120           6027282000       0.0%    100.0%      0.0%
 flops    13 x     5 x   120           7632986400       0.0%    100.0%      0.0%
 flops     5 x    13 x   120           7632986400       0.0%    100.0%      0.0%
 flops    13 x    13 x   120           9093389760       0.0%    100.0%      0.0%
 flops     5 x     5 x    96           9643651200       0.0%    100.0%      0.0%
 flops    13 x     5 x    96          12212778240       0.0%    100.0%      0.0%
 flops     5 x    13 x    96          12212778240       0.0%    100.0%      0.0%
 flops    20 x    13 x   120          12691411200       0.0%    100.0%      0.0%
 flops    13 x    20 x   120          12694593600       0.0%    100.0%      0.0%
 flops     5 x    20 x   120          13702680000       0.0%    100.0%      0.0%
 flops    20 x     5 x   120          13712472000       0.0%    100.0%      0.0%
 flops    13 x    13 x    96          14549423616       0.0%    100.0%      0.0%
 flops    20 x    13 x    96          20306257920       0.0%    100.0%      0.0%
 flops    13 x    20 x    96          20311349760       0.0%    100.0%      0.0%
 flops     5 x    20 x    96          21924288000       0.0%    100.0%      0.0%
 flops    20 x     5 x    96          21939955200       0.0%    100.0%      0.0%
 flops     5 x     5 x   128          83578310400       0.0%    100.0%      0.0%
 flops    13 x     5 x   128         105844078080       0.0%    100.0%      0.0%
 flops     5 x    13 x   128         105844078080       0.0%    100.0%      0.0%
 flops    20 x    20 x   120         114742656000       0.0%    100.0%      0.0%
 flops    13 x    13 x   128         126095004672       0.0%    100.0%      0.0%
 flops    20 x    13 x   128         175987568640       0.0%    100.0%      0.0%
 flops    13 x    20 x   128         176031697920       0.0%    100.0%      0.0%
 flops    20 x    20 x    96         183588249600       0.0%    100.0%      0.0%
 flops     5 x    20 x   128         190010496000       0.0%    100.0%      0.0%
 flops    20 x     5 x   128         190146278400       0.0%    100.0%      0.0%
 flops    20 x    20 x   128        1591098163200       0.0%    100.0%      0.0%
 flops inhomo. stacks                           0       0.0%      0.0%      0.0%
 flops total                         3.259255E+12       0.0%    100.0%      0.0%
 flops max/rank                     29.223831E+09       0.0%    100.0%      0.0%
 matmuls inhomo. stacks                         0       0.0%      0.0%      0.0%
 matmuls total                           79227072       0.0%    100.0%      0.0%
 number of processed stacks                935136       0.0%    100.0%      0.0%
 average stack size                                     0.0      84.7       0.0
 marketing flops                     6.823649E+12
 -------------------------------------------------------------------------------
 # multiplications                             51
 max memory usage/rank               1.637798E+09
 # max total images/rank                        2
 # max 3D layers                                1
 # MPI messages exchanged                  189312
 MPI messages size (bytes):
  total size                       117.008187E+09
  min size                         314.880000E+03
  max size                         845.824000E+03
  average size                     618.070625E+03
 MPI breakdown and total messages size (bytes):
             size <=      128                   0                        0
       128 < size <=     8192                   0                        0
      8192 < size <=    32768                   0                        0
     32768 < size <=   131072                   0                        0
    131072 < size <=  4194304              189312             117008191872
   4194304 < size <= 16777216                   0                        0
  16777216 < size                               0                        0
 -------------------------------------------------------------------------------

 *** WARNING in dbcsr_mm.F:290 :: Using a non-square number of MPI ranks ***
 *** might lead to poor performance. Used ranks: 128 Suggested: 121 256  ***

 -------------------------------------------------------------------------------
 -                                                                             -
 -                      DBCSR MESSAGE PASSING PERFORMANCE                      -
 -                                                                             -
 -------------------------------------------------------------------------------
 ROUTINE             CALLS      AVE VOLUME [Bytes]
 MP_Bcast               28                     12.
 MP_Allreduce          431                     11.
 MP_Alltoall          1440                 578986.
 MP_ISend             3264                 293400.
 MP_IRecv             3264                 286792.
 -------------------------------------------------------------------------------

 -------------------------------------------------------------------------------
 -                                                                             -
 -                                DBM STATISTICS                               -
 -                                                                             -
 -------------------------------------------------------------------------------
    M  x    N  x    K                                          COUNT     PERCENT
 -------------------------------------------------------------------------------

 -------------------------------------------------------------------------------
 -                                                                             -
 -                                GRID STATISTICS                              -
 -                                                                             -
 -------------------------------------------------------------------------------
 LP    KERNEL             BACKEND                              COUNT     PERCENT
 4     collocate general  REF                               20518473      22.42%
 4     integrate general  REF                               20389068      22.28%
 3     collocate general  REF                               13918818      15.21%
 3     integrate general  REF                               13865460      15.15%
 2     collocate general  REF                               11197560      12.23%
 2     integrate general  REF                               10978000      11.99%
 5     integrate general  REF                                 402323       0.44%
 0     collocate general  REF                                 131328       0.14%
 0     integrate general  REF                                  65664       0.07%
 1     integrate general  REF                                  65664       0.07%
 -------------------------------------------------------------------------------

 MEMORY| Estimated peak process memory [MiB]                                1822

 -------------------------------------------------------------------------------
 ----                             MULTIGRID INFO                            ----
 -------------------------------------------------------------------------------
 count for grid        1:        1093847          cutoff [a.u.]          200.00
 count for grid        2:        1088175          cutoff [a.u.]           66.67
 count for grid        3:         710437          cutoff [a.u.]           22.22
 count for grid        4:         547705          cutoff [a.u.]            7.41
 total gridlevel count  :        3440164

 -------------------------------------------------------------------------------
 -                                                                             -
 -                         MESSAGE PASSING PERFORMANCE                         -
 -                                                                             -
 -------------------------------------------------------------------------------

 ROUTINE             CALLS      AVE VOLUME [Bytes]
 MP_Group                4
 MP_Bcast              256                2228108.
 MP_Allreduce         3697                  29192.
 MP_Sync               106
 MP_Alltoall          3052               16011747.
 MP_SendRecv           508                   6075.
 MP_ISendRecv        25908                  61740.
 MP_Wait             45750
 MP_comm_split          51
 MP_ISend            18700                 255985.
 MP_IRecv            18700                 255985.
 MP_Recv               183                1688832.
 MP_Write_All            3                1797408.
 -------------------------------------------------------------------------------


 -------------------------------------------------------------------------------
 -                                                                             -
 -                           R E F E R E N C E S                               -
 -                                                                             -
 -------------------------------------------------------------------------------
 
 CP2K version 2022.1, the CP2K developers group (2022).
 CP2K is freely available from https://www.cp2k.org/ .

 Kuehne,Thomas D.; Iannuzzi,Marcella; Del Ben,Mauro;
 Rybkin,Vladimir V.; Seewald,Patrick; Stein,Frederick; Laino,Teodoro;
 Khaliullin,Rustam Z.; Schuett,Ole; Schiffmann,Florian; Golze,Dorothea;
 Wilhelm,Jan; Chulkov,Sergey; Bani-Hashemian,Mohammad Hossein;
 Weber,Valery; Borstnik,Urban; Taillefumier,Mathieu;
 Jakobovits,Alice Shoshana; Lazzaro,Alfio; Pabst,Hans; Mueller,Tiziano;
 Schade,Robert; Guidon,Manuel; Andermatt,Samuel; Holmberg,Nico;
 Schenter,Gregory K.; Hehn,Anna; Bussy,Augustin; Belleflamme,Fabian;
 Tabacchi,Gloria; Gloess,Andreas; Lass,Michael; Bethune,Iain;
 Mundy,Christopher J.; Plessl,Christian; Watkins,Matt;
 VandeVondele,Joost; Krack,Matthias; Hutter,Juerg. 
 The Journal of Chemical Physics, 152 (19), (2020). 
 CP2K: An electronic structure and molecular dynamics software package -
 Quickstep: Efficient and accurate electronic structure calculations.
 https://doi.org/10.1063/5.0007045

 Goerigk, Lars; Hansen, Andreas; Bauer, Christoph; Ehrlich, Stephan;
 Najibi, Asim; Grimme, Stefan. , 19 (48), (2017). 
 A look at the density functional theory zoo with the advanced GMTKN55 database
 for general main group thermochemistry, kinetics and noncovalent interactions.
 https://doi.org/10.1039/C7CP04913G

 Bani-Hashemian, MH; Bruck, S; Luisier, M; VandeVondele, J. 
 JOURNAL OF CHEMICAL PHYSICS, 144 (4), 044113 (2016). 
 A generalized Poisson solver for first-principles device simulations.
 https://doi.org/10.1063/1.4940796

 Schuett, Ole; Messmer, Peter; Hutter, Juerg; VandeVondele, Joost. 
 Electronic Structure Calculations on Graphics Processing Units, John
 Wiley & Sons, Ltd, 173-190 (2016). 
 GPU-Accelerated Sparse Matrix-Matrix Multiplication for
 Linear Scaling Density Functional Theory.
 https://doi.org/10.1002/9781118670712.ch8

 Heinecke, A; Henry, G; Hutchinson, M; Pabst, H. 
 Proceedings of Intl. Supercomputing Conference, 981-991 (2016). 
 LIBXSMM: Accelerating Small Matrix Multiplications
 by Runtime Code Generation.
 https://doi.org/10.1109/SC.2016.83

 Borstnik, U; VandeVondele, J; Weber, V; Hutter, J. 
 PARALLEL COMPUTING, 40 (5-6), 47-58 (2014). 
 Sparse matrix multiplication: The distributed block-compressed sparse
 row library.
 https://doi.org/10.1016/j.parco.2014.03.012

 Hutter, J; Iannuzzi, M; Schiffmann, F; VandeVondele, J. 
 WIREs Comput Mol Sci., 4 (1), 15-25 (2014). 
 CP2K: atomistic simulations of condensed matter systems.
 https://doi.org/10.1002/wcms.1159

 Marek, A; Blum, V; Johanni, R; Havu, V; Lang, B; Auckenthaler, T;
 Heinecke, A; Bungartz, H; Lederer, H. 
 Journal of Physics: Condensed Matter, 26 (21), (2014). 
 The ELPA library: scalable parallel eigenvalue solutions for
 electronic structure
 theory and computational science.
 https://doi.org/10.1088/0953-8984/26/21/213201

 Grimme, S; Ehrlich, S; Goerigk, L. 
 JOURNAL OF COMPUTATIONAL CHEMISTRY, 32, 1456 (2011). 
 Effect of the damping function in dispersion corrected density functional theory.
 https://doi.org/10.1002/jcc.21759

 Grimme, S; Antony, J; Ehrlich, S; Krieg, H. 
 JOURNAL OF CHEMICAL PHYSICS, 132 (15), 154104 (2010). 
 A consistent and accurate ab initio parametrization of density
 functional dispersion correction (DFT-D) for the 94 elements H-Pu.
 https://doi.org/10.1063/1.3382344

 VandeVondele, J; Hutter, J. 
 JOURNAL OF CHEMICAL PHYSICS, 127 (11), 114105 (2007). 
 Gaussian basis sets for accurate calculations on molecular systems in
 gas and condensed phases.
 https://doi.org/10.1063/1.2770708

 Krack, M. 
 THEORETICAL CHEMISTRY ACCOUNTS, 114 (1-3), 145-152 (2005). 
 Pseudopotentials for H to Kr optimized for gradient-corrected
 exchange-correlation functionals.
 https://doi.org/10.1007/s00214-005-0655-y

 VandeVondele, J; Krack, M; Mohamed, F; Parrinello, M; Chassaing, T;
 Hutter, J. COMPUTER PHYSICS COMMUNICATIONS, 167 (2), 103-128 (2005). 
 QUICKSTEP: Fast and accurate density functional calculations using a
 mixed Gaussian and plane waves approach.
 https://doi.org/10.1016/j.cpc.2004.12.014

 Frigo, M; Johnson, SG. 
 PROCEEDINGS OF THE IEEE, 93 (2), 216-231 (2005). 
 The design and implementation of FFTW3.
 https://doi.org/10.1109/JPROC.2004.840301

 Hartwigsen, C; Goedecker, S; Hutter, J. 
 PHYSICAL REVIEW B, 58 (7), 3641-3662 (1998). 
 Relativistic separable dual-space Gaussian pseudopotentials from H to Rn.
 https://doi.org/10.1103/PhysRevB.58.3641

 Lippert, G; Hutter, J; Parrinello, M. 
 MOLECULAR PHYSICS, 92 (3), 477-487 (1997). 
 A hybrid Gaussian and plane wave density functional scheme.
 https://doi.org/10.1080/002689797170220

 Perdew, JP; Burke, K; Ernzerhof, M. 
 PHYSICAL REVIEW LETTERS, 77 (18), 3865-3868 (1996). 
 Generalized gradient approximation made simple.
 https://doi.org/10.1103/PhysRevLett.77.3865

 Goedecker, S; Teter, M; Hutter, J. 
 PHYSICAL REVIEW B, 54 (3), 1703-1710 (1996). 
 Separable dual-space Gaussian pseudopotentials.
 https://doi.org/10.1103/PhysRevB.54.1703


 -------------------------------------------------------------------------------
 -                                                                             -
 -                                T I M I N G                                  -
 -                                                                             -
 -------------------------------------------------------------------------------
 SUBROUTINE                       CALLS  ASD         SELF TIME        TOTAL TIME
                                MAXIMUM       AVERAGE  MAXIMUM  AVERAGE  MAXIMUM
 CP2K                                 1  1.0    0.020    0.034  356.540  356.543
 qs_forces                            1  2.0    0.002    0.002  356.205  356.208
 qs_energies                          1  3.0    0.000    0.001  350.056  350.060
 scf_env_do_scf                       1  4.0    0.000    0.000  341.823  341.963
 scf_env_do_scf_inner_loop           50  5.0    0.003    0.007  341.822  341.962
 rebuild_ks_matrix                   51  6.9    0.000    0.000  182.654  182.703
 qs_ks_build_kohn_sham_matrix        51  7.9    0.008    0.009  182.654  182.703
 qs_ks_update_qs_env                 50  6.0    0.000    0.000  178.606  178.655
 pw_transfer                       2626 12.2    0.191    0.237  113.155  115.591
 fft_wrap_pw1pw2                   2626 13.2    0.026    0.032  112.964  115.361
 fft_wrap_pw1pw2_200               2320 14.4    7.681    9.069  111.428  113.714
 qs_scf_new_mos                      50  6.0    0.002    0.006   97.136   97.282
 pw_poisson_solve                    51  8.9    0.005    0.014   96.865   96.920
 fft3d_ps                          2626 15.2   32.762   36.535   90.682   94.227
 eigensolver                         50  7.0    0.004    0.006   91.572   91.867
 implicit_poisson_solver_mixed_      51  9.9    2.064    2.507   91.681   91.744
 cp_fm_diag_elpa                     51  8.0    0.001    0.001   64.447   64.617
 derive_fft                         300 12.1    0.019    0.025   64.193   64.419
 cp_fm_redistribute_end              51  9.0    8.419   63.880    8.516   63.937
 cp_fm_diag_elpa_base                51  9.0   54.569   62.480   55.108   63.092
 mp_alltoall_z22v                  2626 17.2   48.402   59.609   48.402   59.609
 qs_rho_update_rho_low               51  6.0    0.000    0.001   58.276   58.289
 calculate_rho_elec                  51  7.0    0.099    0.122   58.276   58.289
 sum_up_and_integrate                51  8.9    0.277    0.342   57.554   57.609
 integrate_v_rspace                  51  9.9    0.002    0.003   57.277   57.393
 apply_P_operator                   249 11.1    1.327    1.467   54.640   54.838
 grid_collocate_task_list            51  8.0   36.426   46.115   36.426   46.115
 grid_integrate_task_list            51 10.9   33.750   42.056   33.750   42.056
 x_to_yz                           1510 16.4    6.349    8.152   36.105   37.556
 rs_pw_transfer                     412 10.4    0.005    0.006   26.961   32.089
 cp_fm_triangular_multiply          150  8.0   28.325   28.686   28.325   28.686
 yz_to_x                            810 16.4    2.194    2.546   20.641   27.966
 density_rs2pw                       51  8.0    0.003    0.004   20.622   25.925
 qs_vxc_create                       51  8.9    0.001    0.002   25.345   25.656
 xc_vxc_pw_create                    51  9.9    0.434    0.531   25.344   25.655
 xc_pw_derive                       306 11.9    0.005    0.006   17.929   19.792
 mp_waitany                       18700 12.4   13.022   18.338   13.022   18.338
 rs_pw_transfer_RS2PW_200            53  9.9    3.437    3.869   12.906   18.022
 apply_poisson_operator_fft          51 10.9    0.001    0.001   16.398   16.685
 apply_inv_laplace_operator_fft     152 11.6    0.378    0.427   14.643   15.168
 mp_alltoall_d11v                   721 10.2   10.447   14.978   10.447   14.978
 potential_pw2rs                     51 10.9    0.015    0.017   14.668   14.783
 xc_pw_divergence                    51 10.9    0.003    0.003   12.229   13.673
 rs_gather_matrices                  51 10.9    0.061    0.076    8.846   13.423
 xc_rho_set_and_dset_create          51 10.9    0.253    0.304   12.182   12.918
 ps_implicit_compute_error_fft       99 10.9    0.622    0.789   10.779   11.566
 ps_implicit_compute_veps            51 10.9    0.297    0.349   11.181   11.370
 pw_scatter_p                      1663 15.4    9.271   10.708    9.271   10.708
 rs_pw_transfer_PW2RS_200            53 12.8    3.969    4.160    8.442    8.682
 gspace_mixing                       49  6.0    0.094    0.127    8.602    8.602
 pw_derive                         1206 13.1    7.646    8.120    7.646    8.120
 -------------------------------------------------------------------------------

 The number of warnings for this run is : 1
 
 -------------------------------------------------------------------------------
  **** **** ******  **  PROGRAM ENDED AT                 2023-12-02 03:39:20.323
 ***** ** ***  *** **   PROGRAM RAN ON                                     cu039
 **    ****   ******    PROGRAM RAN BY                                     jxzhu
 ***** **    ** ** **   PROGRAM PROCESS ID                                 37044
  **** **  *******  **  PROGRAM STOPPED IN /public/home/jxzhu/tmp_calc/9a04a2093
                                           1b9a5164e8660ba8ffc65a4c60def75/calc/
                                           000600.000/search_lo.000000
