 DBCSR| CPU Multiplication driver                                           XSMM
 DBCSR| Multrec recursion limit                                              512
 DBCSR| Multiplication stack size                                           1000
 DBCSR| Maximum elements for images                                    UNLIMITED
 DBCSR| Multiplicative factor virtual images                                   1
 DBCSR| Use multiplication densification                                       T
 DBCSR| Multiplication size stacks                                             3
 DBCSR| Use memory pool for CPU allocation                                     F
 DBCSR| Number of 3D layers                                               SINGLE
 DBCSR| Use MPI memory allocation                                              F
 DBCSR| Use RMA algorithm                                                      F
 DBCSR| Use Communication thread                                               T
 DBCSR| Communication thread load                                             87
 DBCSR| MPI: My node id                                                        0
 DBCSR| MPI: Number of nodes                                                  64
 DBCSR| OMP: Current number of threads                                         1
 DBCSR| OMP: Max number of threads                                             1
 DBCSR| Split modifier for TAS multiplication algorithm                  1.0E+00


  **** **** ******  **  PROGRAM STARTED AT               2023-11-26 21:46:03.142
 ***** ** ***  *** **   PROGRAM STARTED ON                                 cu054
 **    ****   ******    PROGRAM STARTED BY                                 jxzhu
 ***** **    ** ** **   PROGRAM PROCESS ID                                 25624
  **** **  *******  **  PROGRAM STARTED IN /public/home/jxzhu/tmp_calc/af2075565
                                           805657d94fa4669dad6f4b174b0a4fb/calc/
                                           001600.000/pbc

 CP2K| version string:                                       CP2K version 2022.1
 CP2K| source code revision number:                                  git:2caeb6f
 CP2K| cp2kflags: omp libint fftw3 libxc elpa parallel mpi3 scalapack cosma xsmm
 CP2K|             plumed2 spglib mkl sirius libvori libbqb
 CP2K| is freely available from                            https://www.cp2k.org/
 CP2K| Program compiled at                           Mon Jul 3 17:37:06 CST 2023
 CP2K| Program compiled on                                                 mu003
 CP2K| Program compiled for                                                local
 CP2K| Data directory path                             /public/home/jxzhu/basis/
 CP2K| Input file name                                                 input.inp
 
 GLOBAL| Force Environment number                                              1
 GLOBAL| Basis set file name                                        BASIS_MOLOPT
 GLOBAL| Potential file name                                      GTH_POTENTIALS
 GLOBAL| MM Potential file name                                     MM_POTENTIAL
 GLOBAL| Coordinate file name                                          coord.xyz
 GLOBAL| Method name                                                        CP2K
 GLOBAL| Project name                                                       cp2k
 GLOBAL| Run type                                                   ENERGY_FORCE
 GLOBAL| FFT library                                                       FFTW3
 GLOBAL| Diagonalization library                                            ELPA
 GLOBAL| Minimum number of eigenvectors for ELPA usage                        16
 GLOBAL| Orthonormality check for eigenvectors                          DISABLED
 GLOBAL| Matrix multiplication library                                     COSMA
 GLOBAL| All-to-all communication in single precision                          F
 GLOBAL| FFTs using library dependent lengths                                  F
 GLOBAL| Grid backend                                                       AUTO
 GLOBAL| Global print level                                               MEDIUM
 GLOBAL| MPI I/O enabled                                                       T
 GLOBAL| Total number of message passing processes                            64
 GLOBAL| Number of threads for this process                                    1
 GLOBAL| This output is from process                                           0
 GLOBAL| Stack size for threads created by OpenMP (OMP_STACKSIZE)        default
 GLOBAL| CPU model name                 Intel(R) Xeon(R) Gold 6338 CPU @ 2.00GHz
 GLOBAL| CPUID                                                              1003

 MEMORY| system memory details [Kb]
 MEMORY|                        rank 0           min           max       average
 MEMORY| MemTotal            263619172     263619172     263619172     263619172
 MEMORY| MemFree             210506888     210506888     210509368     210507013
 MEMORY| Buffers                  3320          3320          3320          3320
 MEMORY| Cached                4199436       4199436       4199436       4199436
 MEMORY| Slab                  1802732       1802732       1802732       1802732
 MEMORY| SReclaimable           242264        242264        242264        242264
 MEMORY| MemLikelyFree       214951908     214951908     214954388     214952033


 *** Fundamental physical constants (SI units) ***

 *** Literature: B. J. Mohr and B. N. Taylor,
 ***             CODATA recommended values of the fundamental physical
 ***             constants: 2006, Web Version 5.1
 ***             http://physics.nist.gov/constants

 Speed of light in vacuum [m/s]                             2.99792458000000E+08
 Magnetic constant or permeability of vacuum [N/A**2]       1.25663706143592E-06
 Electric constant or permittivity of vacuum [F/m]          8.85418781762039E-12
 Planck constant (h) [J*s]                                  6.62606896000000E-34
 Planck constant (h-bar) [J*s]                              1.05457162825177E-34
 Elementary charge [C]                                      1.60217648700000E-19
 Electron mass [kg]                                         9.10938215000000E-31
 Electron g factor [ ]                                     -2.00231930436220E+00
 Proton mass [kg]                                           1.67262163700000E-27
 Fine-structure constant                                    7.29735253760000E-03
 Rydberg constant [1/m]                                     1.09737315685270E+07
 Avogadro constant [1/mol]                                  6.02214179000000E+23
 Boltzmann constant [J/K]                                   1.38065040000000E-23
 Atomic mass unit [kg]                                      1.66053878200000E-27
 Bohr radius [m]                                            5.29177208590000E-11

 *** Conversion factors ***

 [u] -> [a.u.]                                              1.82288848426455E+03
 [Angstrom] -> [Bohr] = [a.u.]                              1.88972613288564E+00
 [a.u.] = [Bohr] -> [Angstrom]                              5.29177208590000E-01
 [a.u.] -> [s]                                              2.41888432650478E-17
 [a.u.] -> [fs]                                             2.41888432650478E-02
 [a.u.] -> [J]                                              4.35974393937059E-18
 [a.u.] -> [N]                                              8.23872205491840E-08
 [a.u.] -> [K]                                              3.15774647902944E+05
 [a.u.] -> [kJ/mol]                                         2.62549961709828E+03
 [a.u.] -> [kcal/mol]                                       6.27509468713739E+02
 [a.u.] -> [Pa]                                             2.94210107994716E+13
 [a.u.] -> [bar]                                            2.94210107994716E+08
 [a.u.] -> [atm]                                            2.90362800883016E+08
 [a.u.] -> [eV]                                             2.72113838565563E+01
 [a.u.] -> [Hz]                                             6.57968392072181E+15
 [a.u.] -> [1/cm] (wave numbers)                            2.19474631370540E+05
 [a.u./Bohr**2] -> [1/cm]                                   5.14048714338585E+03
 

 CELL_TOP| Volume [angstrom^3]:                                     10221.806009
 CELL_TOP| Vector a [angstrom    16.869     0.000     0.000   |a| =    16.869000
 CELL_TOP| Vector b [angstrom    -8.434    14.609     0.000   |b| =    16.869015
 CELL_TOP| Vector c [angstrom     0.000     0.000    41.478   |c| =    41.478000
 CELL_TOP| Angle (b,c), alpha [degree]:                                90.000000
 CELL_TOP| Angle (a,c), beta  [degree]:                                90.000000
 CELL_TOP| Angle (a,b), gamma [degree]:                               119.999970
 CELL_TOP| Numerically orthorhombic:                                          NO
 
 GENERATE|  Preliminary Number of Bonds generated:                             0
 GENERATE|  Achieved consistency in connectivity generation.

 CELL| Volume [angstrom^3]:                                         10221.806009
 CELL| Vector a [angstrom]:      16.869     0.000     0.000   |a| =    16.869000
 CELL| Vector b [angstrom]:      -8.434    14.609     0.000   |b| =    16.869015
 CELL| Vector c [angstrom]:       0.000     0.000    41.478   |c| =    41.478000
 CELL| Angle (b,c), alpha [degree]:                                    90.000000
 CELL| Angle (a,c), beta  [degree]:                                    90.000000
 CELL| Angle (a,b), gamma [degree]:                                   119.999970
 CELL| Numerically orthorhombic:                                              NO

 CELL_REF| Volume [angstrom^3]:                                     10221.806009
 CELL_REF| Vector a [angstrom    16.869     0.000     0.000   |a| =    16.869000
 CELL_REF| Vector b [angstrom    -8.434    14.609     0.000   |b| =    16.869015
 CELL_REF| Vector c [angstrom     0.000     0.000    41.478   |c| =    41.478000
 CELL_REF| Angle (b,c), alpha [degree]:                                90.000000
 CELL_REF| Angle (a,c), beta  [degree]:                                90.000000
 CELL_REF| Angle (a,b), gamma [degree]:                               119.999970
 CELL_REF| Numerically orthorhombic:                                          NO

 *******************************************************************************
 *******************************************************************************
 **                                                                           **
 **     #####                         ##              ##                      **
 **    ##   ##            ##          ##              ##                      **
 **   ##     ##                       ##            ######                    **
 **   ##     ##  ##   ##  ##   #####  ##  ##   ####   ##    #####    #####    **
 **   ##     ##  ##   ##  ##  ##      ## ##   ##      ##   ##   ##  ##   ##   **
 **   ##  ## ##  ##   ##  ##  ##      ####     ###    ##   ######   ######    **
 **    ##  ###   ##   ##  ##  ##      ## ##      ##   ##   ##       ##        **
 **     #######   #####   ##   #####  ##  ##  ####    ##    #####   ##        **
 **           ##                                                    ##        **
 **                                                                           **
 **                                                ... make the atoms dance   **
 **                                                                           **
 **            Copyright (C) by CP2K developers group (2000-2022)             **
 **                      J. Chem. Phys. 152, 194103 (2020)                    **
 **                                                                           **
 *******************************************************************************

 DFT| Spin restricted Kohn-Sham (RKS) calculation                            RKS
 DFT| Multiplicity                                                             1
 DFT| Number of spin states                                                    1
 DFT| Charge                                                                   0
 DFT| Self-interaction correction (SIC)                                       NO
 DFT| Cutoffs: density                                              1.000000E-10
 DFT|          gradient                                             1.000000E-10
 DFT|          tau                                                  1.000000E-10
 DFT|          cutoff_smoothing_range                               0.000000E+00
 DFT| XC density smoothing                                                  NONE
 DFT| XC derivatives                                                          PW

 FUNCTIONAL| PBE:
 FUNCTIONAL| J.P.Perdew, K.Burke, M.Ernzerhof, Phys. Rev. Letter, vol. 77, n 18,
 FUNCTIONAL|  pp. 3865-3868, (1996){spin unpolarized}                           

 vdW POTENTIAL|                                                   Pair Potential
 vdW POTENTIAL|          DFT-D3 (Version 3.1)
 vdW POTENTIAL|          Potential Form: S. Grimme et al, JCP 132: 154104 (2010)
 vdW POTENTIAL|          Zero Damping
 vdW POTENTIAL|          Cutoff Radius [Bohr]:                             20.00
 vdW POTENTIAL|          s6 Scaling Factor:                               1.0000
 vdW POTENTIAL|          sr6 Scaling Factor:                              1.2170
 vdW POTENTIAL|          s8 Scaling Factor:                               0.7220
 vdW POTENTIAL|          Cutoff for CN calculation:                   0.1000E-05

 QS| Method:                                                                 GPW
 QS| Density plane wave grid type                        NON-SPHERICAL FULLSPACE
 QS| Number of grid levels:                                                    4
 QS| Density cutoff [a.u.]:                                                200.0
 QS| Multi grid cutoff [a.u.]: 1) grid level                               200.0
 QS|                           2) grid level                                66.7
 QS|                           3) grid level                                22.2
 QS|                           4) grid level                                 7.4
 QS| Grid level progression factor:                                          3.0
 QS| Relative density cutoff [a.u.]:                                        20.0
 QS| Interaction thresholds: eps_pgf_orb:                                3.2E-07
 QS|                         eps_filter_matrix:                          0.0E+00
 QS|                         eps_core_charge:                            1.0E-15
 QS|                         eps_rho_gspace:                             1.0E-13
 QS|                         eps_rho_rspace:                             1.0E-13
 QS|                         eps_gvg_rspace:                             3.2E-07
 QS|                         eps_ppl:                                    1.0E-02
 QS|                         eps_ppnl:                                   3.2E-09


 ATOMIC KIND INFORMATION

  1. Atomic kind: O                                     Number of atoms:     230

     Orbital Basis Set                                        DZVP-MOLOPT-SR-GTH

       Number of orbital shell sets:                                           1
       Number of orbital shells:                                               5
       Number of primitive Cartesian functions:                                5
       Number of Cartesian basis functions:                                   14
       Number of spherical basis functions:                                   13
       Norm type:                                                              2

       Normalised Cartesian orbitals:

                        Set   Shell   Orbital            Exponent    Coefficient

                          1       1    2s               10.389228       0.396646
                                                         3.849621       0.208811
                                                         1.388401      -0.301641
                                                         0.496955      -0.274061
                                                         0.162492      -0.033677

                          1       2    3s               10.389228       0.303673
                                                         3.849621       0.240943
                                                         1.388401      -0.313066
                                                         0.496955      -0.043055
                                                         0.162492       0.213991

                          1       3    3px              10.389228      -1.530415
                                                         3.849621      -1.371928
                                                         1.388401      -0.761951
                                                         0.496955      -0.253695
                                                         0.162492      -0.035541
                          1       3    3py              10.389228      -1.530415
                                                         3.849621      -1.371928
                                                         1.388401      -0.761951
                                                         0.496955      -0.253695
                                                         0.162492      -0.035541
                          1       3    3pz              10.389228      -1.530415
                                                         3.849621      -1.371928
                                                         1.388401      -0.761951
                                                         0.496955      -0.253695
                                                         0.162492      -0.035541

                          1       4    4px              10.389228      -0.565392
                                                         3.849621      -0.038231
                                                         1.388401      -0.382373
                                                         0.496955       0.179070
                                                         0.162492       0.122714
                          1       4    4py              10.389228      -0.565392
                                                         3.849621      -0.038231
                                                         1.388401      -0.382373
                                                         0.496955       0.179070
                                                         0.162492       0.122714
                          1       4    4pz              10.389228      -0.565392
                                                         3.849621      -0.038231
                                                         1.388401      -0.382373
                                                         0.496955       0.179070
                                                         0.162492       0.122714

                          1       5    4dx2             10.389228       1.867377
                                                         3.849621       0.670994
                                                         1.388401       1.353441
                                                         0.496955       0.273538
                                                         0.162492       0.006620
                          1       5    4dxy             10.389228       3.234392
                                                         3.849621       1.162195
                                                         1.388401       2.344229
                                                         0.496955       0.473781
                                                         0.162492       0.011466
                          1       5    4dxz             10.389228       3.234392
                                                         3.849621       1.162195
                                                         1.388401       2.344229
                                                         0.496955       0.473781
                                                         0.162492       0.011466
                          1       5    4dy2             10.389228       1.867377
                                                         3.849621       0.670994
                                                         1.388401       1.353441
                                                         0.496955       0.273538
                                                         0.162492       0.006620
                          1       5    4dyz             10.389228       3.234392
                                                         3.849621       1.162195
                                                         1.388401       2.344229
                                                         0.496955       0.473781
                                                         0.162492       0.011466
                          1       5    4dz2             10.389228       1.867377
                                                         3.849621       0.670994
                                                         1.388401       1.353441
                                                         0.496955       0.273538
                                                         0.162492       0.006620

       Atomic covalent radius [Angstrom]:                                  0.730

       Atomic van der Waals radius [Angstrom]:                             1.520

     GTH Potential information for                                    GTH-PBE-q6

       Description:                       Goedecker-Teter-Hutter pseudopotential
                                           Goedecker et al., PRB 54, 1703 (1996)
                                          Hartwigsen et al., PRB 58, 3641 (1998)
                                                      Krack, TCA 114, 145 (2005)

       Gaussian exponent of the core charge distribution:               8.360253
       Electronic configuration (s p d ...):                               2   4

       Parameters of the local part of the GTH pseudopotential:

                          rloc        C1          C2          C3          C4
                        0.244554  -16.667215    2.487311

       Parameters of the non-local part of the GTH pseudopotential:

                   l      r(l)      h(i,j,l)

                   0    0.220956   18.337458
                   1    0.211332

  2. Atomic kind: H                                     Number of atoms:     460

     Orbital Basis Set                                        DZVP-MOLOPT-SR-GTH

       Number of orbital shell sets:                                           1
       Number of orbital shells:                                               3
       Number of primitive Cartesian functions:                                5
       Number of Cartesian basis functions:                                    5
       Number of spherical basis functions:                                    5
       Norm type:                                                              2

       Normalised Cartesian orbitals:

                        Set   Shell   Orbital            Exponent    Coefficient

                          1       1    2s               10.068468      -0.133023
                                                         2.680223      -0.177618
                                                         0.791502      -0.258419
                                                         0.239116      -0.107525
                                                         0.082193      -0.014019

                          1       2    3s               10.068468       0.344673
                                                         2.680223       1.819821
                                                         0.791502      -0.999069
                                                         0.239116       0.017430
                                                         0.082193       0.082660

                          1       3    3px              10.068468       0.155326
                                                         2.680223       0.367157
                                                         0.791502       0.311480
                                                         0.239116       0.080105
                                                         0.082193       0.033440
                          1       3    3py              10.068468       0.155326
                                                         2.680223       0.367157
                                                         0.791502       0.311480
                                                         0.239116       0.080105
                                                         0.082193       0.033440
                          1       3    3pz              10.068468       0.155326
                                                         2.680223       0.367157
                                                         0.791502       0.311480
                                                         0.239116       0.080105
                                                         0.082193       0.033440

       Atomic covalent radius [Angstrom]:                                  0.320

       Atomic van der Waals radius [Angstrom]:                             1.090

     GTH Potential information for                                    GTH-PBE-q1

       Description:                       Goedecker-Teter-Hutter pseudopotential
                                           Goedecker et al., PRB 54, 1703 (1996)
                                          Hartwigsen et al., PRB 58, 3641 (1998)
                                                      Krack, TCA 114, 145 (2005)

       Gaussian exponent of the core charge distribution:              12.500000
       Electronic configuration (s p d ...):                                   1

       Parameters of the local part of the GTH pseudopotential:

                          rloc        C1          C2          C3          C4
                        0.200000   -4.178900    0.724463

  3. Atomic kind: Pt                                    Number of atoms:     216

     Orbital Basis Set                      DZVP-A5-Q10-323-MOL-T1-DERIVED_SET-1

       Number of orbital shell sets:                                           1
       Number of orbital shells:                                               6
       Number of primitive Cartesian functions:                                5
       Number of Cartesian basis functions:                                   23
       Number of spherical basis functions:                                   20
       Norm type:                                                              2

       Normalised Cartesian orbitals:

                        Set   Shell   Orbital            Exponent    Coefficient

                          1       1    2s                2.521825       0.177473
                                                         1.453920      -0.063399
                                                         0.614053      -0.407089
                                                         0.232656       0.262254
                                                         0.074788       0.047371

                          1       2    3s                2.521825      -0.049056
                                                         1.453920       0.044904
                                                         0.614053      -0.009756
                                                         0.232656      -0.144709
                                                         0.074788       0.144085

                          1       3    3px               2.521825      -0.317572
                                                         1.453920       0.534826
                                                         0.614053      -0.489458
                                                         0.232656       0.245631
                                                         0.074788       0.018221
                          1       3    3py               2.521825      -0.317572
                                                         1.453920       0.534826
                                                         0.614053      -0.489458
                                                         0.232656       0.245631
                                                         0.074788       0.018221
                          1       3    3pz               2.521825      -0.317572
                                                         1.453920       0.534826
                                                         0.614053      -0.489458
                                                         0.232656       0.245631
                                                         0.074788       0.018221

                          1       4    4dx2              2.521825       3.008522
                                                         1.453920      -1.224251
                                                         0.614053       0.225691
                                                         0.232656       0.125144
                                                         0.074788      -0.015348
                          1       4    4dxy              2.521825       5.210912
                                                         1.453920      -2.120465
                                                         0.614053       0.390909
                                                         0.232656       0.216756
                                                         0.074788      -0.026584
                          1       4    4dxz              2.521825       5.210912
                                                         1.453920      -2.120465
                                                         0.614053       0.390909
                                                         0.232656       0.216756
                                                         0.074788      -0.026584
                          1       4    4dy2              2.521825       3.008522
                                                         1.453920      -1.224251
                                                         0.614053       0.225691
                                                         0.232656       0.125144
                                                         0.074788      -0.015348
                          1       4    4dyz              2.521825       5.210912
                                                         1.453920      -2.120465
                                                         0.614053       0.390909
                                                         0.232656       0.216756
                                                         0.074788      -0.026584
                          1       4    4dz2              2.521825       3.008522
                                                         1.453920      -1.224251
                                                         0.614053       0.225691
                                                         0.232656       0.125144
                                                         0.074788      -0.015348

                          1       5    5dx2              2.521825       0.698026
                                                         1.453920      -1.511486
                                                         0.614053      -0.335394
                                                         0.232656      -0.025564
                                                         0.074788      -0.002699
                          1       5    5dxy              2.521825       1.209017
                                                         1.453920      -2.617970
                                                         0.614053      -0.580920
                                                         0.232656      -0.044277
                                                         0.074788      -0.004674
                          1       5    5dxz              2.521825       1.209017
                                                         1.453920      -2.617970
                                                         0.614053      -0.580920
                                                         0.232656      -0.044277
                                                         0.074788      -0.004674
                          1       5    5dy2              2.521825       0.698026
                                                         1.453920      -1.511486
                                                         0.614053      -0.335394
                                                         0.232656      -0.025564
                                                         0.074788      -0.002699
                          1       5    5dyz              2.521825       1.209017
                                                         1.453920      -2.617970
                                                         0.614053      -0.580920
                                                         0.232656      -0.044277
                                                         0.074788      -0.004674
                          1       5    5dz2              2.521825       0.698026
                                                         1.453920      -1.511486
                                                         0.614053      -0.335394
                                                         0.232656      -0.025564
                                                         0.074788      -0.002699

                          1       6    6dx2              2.521825       0.831079
                                                         1.453920      -0.709226
                                                         0.614053      -0.137351
                                                         0.232656       0.068642
                                                         0.074788       0.011745
                          1       6    6dxy              2.521825       1.439472
                                                         1.453920      -1.228415
                                                         0.614053      -0.237899
                                                         0.232656       0.118891
                                                         0.074788       0.020343
                          1       6    6dxz              2.521825       1.439472
                                                         1.453920      -1.228415
                                                         0.614053      -0.237899
                                                         0.232656       0.118891
                                                         0.074788       0.020343
                          1       6    6dy2              2.521825       0.831079
                                                         1.453920      -0.709226
                                                         0.614053      -0.137351
                                                         0.232656       0.068642
                                                         0.074788       0.011745
                          1       6    6dyz              2.521825       1.439472
                                                         1.453920      -1.228415
                                                         0.614053      -0.237899
                                                         0.232656       0.118891
                                                         0.074788       0.020343
                          1       6    6dz2              2.521825       0.831079
                                                         1.453920      -0.709226
                                                         0.614053      -0.137351
                                                         0.232656       0.068642
                                                         0.074788       0.011745

       Atomic covalent radius [Angstrom]:                                  1.300

       Atomic van der Waals radius [Angstrom]:                             1.750

     GTH Potential information for                                   GTH-PBE-q10

       Description:                       Goedecker-Teter-Hutter pseudopotential
                                           Goedecker et al., PRB 54, 1703 (1996)
                                          Hartwigsen et al., PRB 58, 3641 (1998)
                                                      Krack, TCA 114, 145 (2005)

       Gaussian exponent of the core charge distribution:               1.317676
       Electronic configuration (s p d ...):                           1   0   9

       Parameters of the local part of the GTH pseudopotential:

                          rloc        C1          C2          C3          C4
                        0.616000   11.313635

       Parameters of the non-local part of the GTH pseudopotential:

                   l      r(l)      h(i,j,l)

                   0    0.550904    4.733491   -1.784594
                                   -1.784594    2.303901
                   1    0.674138    2.534798   -1.778066
                                   -1.778066    2.103836
                   2    0.457392   -7.264011    2.558665
                                    2.558665   -2.901253


 MOLECULE KIND INFORMATION


 All atoms are their own molecule, skipping detailed information


 TOTAL NUMBERS AND MAXIMUM NUMBERS

  Total number of            - Atomic kinds:                                   3
                             - Atoms:                                        906
                             - Shell sets:                                   906
                             - Shells:                                      3826
                             - Primitive Cartesian functions:               4530
                             - Cartesian basis functions:                  10488
                             - Spherical basis functions:                   9610

  Maximum angular momentum of- Orbital basis functions:                        2
                             - Local part of the GTH pseudopotential:          2
                             - Non-local part of the GTH pseudopotential:      4


 MODULE QUICKSTEP:  ATOMIC COORDINATES IN angstrom

 Atom  Kind  Element       X           Y           Z          Z(eff)       Mass
    1   1 O    8       1.320000   -9.360001    9.160001       6.0000     15.9994
    2   2 H    1       1.200000   -8.410000    9.340000       1.0000      1.0079
    3   2 H    1       1.000000   -9.540001    8.230000       1.0000      1.0079
    4   1 O    8       2.970000    2.600000   12.140001       6.0000     15.9994
    5   2 H    1       3.600000    3.190000   11.870001       1.0000      1.0079
    6   2 H    1       3.200000    2.110000   12.960000       1.0000      1.0079
    7   1 O    8      -7.600000  -18.420002   19.150002       6.0000     15.9994
    8   2 H    1      -7.570000  -19.250000   18.600002       1.0000      1.0079
    9   2 H    1      -6.700000  -18.350000   19.670002       1.0000      1.0079
   10   1 O    8       7.130001    6.970000    8.110001       6.0000     15.9994
   11   2 H    1       6.420000    7.680000    8.470000       1.0000      1.0079
   12   2 H    1       6.790000    6.060000    8.330001       1.0000      1.0079
   13   1 O    8       6.880000  -18.460001   20.400002       6.0000     15.9994
   14   2 H    1       7.800000  -18.440001   20.070002       1.0000      1.0079
   15   2 H    1       6.770000  -19.450001   20.459999       1.0000      1.0079
   16   1 O    8       8.840000   30.630001   15.460001       6.0000     15.9994
   17   2 H    1       8.390000   30.740002   14.580001       1.0000      1.0079
   18   2 H    1       9.740001   30.450001   15.120001       1.0000      1.0079
   19   1 O    8      -7.250000   33.370003   15.680000       6.0000     15.9994
   20   2 H    1      -7.750000   32.490002   15.700001       1.0000      1.0079
   21   2 H    1      -6.470000   33.110001   15.260000       1.0000      1.0079
   22   1 O    8      -2.740000   29.360001    8.160001       6.0000     15.9994
   23   2 H    1      -2.260000   28.670002    8.710001       1.0000      1.0079
   24   2 H    1       4.720000   14.530001    8.350000       1.0000      1.0079
   25   1 O    8     -32.280003  -23.730001   25.520000       6.0000     15.9994
   26   2 H    1     -31.580002  -24.380001   25.910000       1.0000      1.0079
   27   2 H    1     -32.880001  -24.390001   25.190001       1.0000      1.0079
   28   1 O    8      10.559999    5.350000   23.020000       6.0000     15.9994
   29   2 H    1      10.820000    4.770000   22.290001       1.0000      1.0079
   30   2 H    1       9.830000    4.920000   23.510000       1.0000      1.0079
   31   1 O    8       8.950001   -5.310000   18.420002       6.0000     15.9994
   32   2 H    1       8.140000   -4.760000   18.450001       1.0000      1.0079
   33   2 H    1       9.260000   -5.180000   17.440001       1.0000      1.0079
   34   1 O    8      -9.210001  -27.870003   18.000000       6.0000     15.9994
   35   2 H    1      -8.940001  -27.940002   17.040001       1.0000      1.0079
   36   2 H    1      -9.410001  -26.860001   18.090002       1.0000      1.0079
   37   1 O    8     -10.180000  -19.740002   29.100000       6.0000     15.9994
   38   2 H    1      -9.840000  -18.860001   29.490002       1.0000      1.0079
   39   2 H    1      -9.350000  -20.310001   28.990002       1.0000      1.0079
   40   1 O    8      19.770000   14.840001    8.270000       6.0000     15.9994
   41   2 H    1      19.100000   14.210001    8.760000       1.0000      1.0079
   42   2 H    1      19.610001   15.780001    8.600000       1.0000      1.0079
   43   1 O    8       0.480000  -10.900001   24.890001       6.0000     15.9994
   44   2 H    1      -0.040000  -10.630001   25.730001       1.0000      1.0079
   45   2 H    1       1.410000  -11.110001   25.220001       1.0000      1.0079
   46   1 O    8      -0.010000   15.670000   28.890001       6.0000     15.9994
   47   2 H    1      -0.010000   16.100002   29.720001       1.0000      1.0079
   48   2 H    1      -0.670000   16.010000   28.320000       1.0000      1.0079
   49   1 O    8      -6.860001   11.470001   26.800001       6.0000     15.9994
   50   2 H    1      -6.040000   11.010000   27.110003       1.0000      1.0079
   51   2 H    1      -6.560000   11.770000   25.950001       1.0000      1.0079
   52   1 O    8      -5.070000   15.290001   14.180001       6.0000     15.9994
   53   2 H    1      -5.930000   15.500001   14.610001       1.0000      1.0079
   54   2 H    1      -4.410000   15.590000   14.930000       1.0000      1.0079
   55   1 O    8      -3.860000  -11.640000   23.950003       6.0000     15.9994
   56   2 H    1      -4.010000  -11.380000   24.900000       1.0000      1.0079
   57   2 H    1      -4.210001  -12.530001   23.730001       1.0000      1.0079
   58   1 O    8      21.450003    0.550000   22.220001       6.0000     15.9994
   59   2 H    1      22.250002    0.270000   22.730000       1.0000      1.0079
   60   2 H    1      21.570000   -0.020000   21.390001       1.0000      1.0079
   61   1 O    8     -13.840000   33.410000   32.450001       6.0000     15.9994
   62   2 H    1     -13.020000   32.840000   32.490002       1.0000      1.0079
   63   2 H    1       2.580000   33.420002   33.350002       1.0000      1.0079
   64   1 O    8      26.280001  -23.059999   12.350000       6.0000     15.9994
   65   2 H    1      25.960003  -22.710001   13.200001       1.0000      1.0079
   66   2 H    1      43.010002  -22.310001   11.690001       1.0000      1.0079
   67   1 O    8       5.470000    0.410000    9.450001       6.0000     15.9994
   68   2 H    1      -3.030000   14.130001    9.010000       1.0000      1.0079
   69   2 H    1       6.440001    0.770000    9.430000       1.0000      1.0079
   70   1 O    8     -13.350000   19.940001   26.240002       6.0000     15.9994
   71   2 H    1     -12.440001   19.830000   25.850000       1.0000      1.0079
   72   2 H    1     -13.170000   19.920002   27.240002       1.0000      1.0079
   73   1 O    8     -20.240002   -1.750000   26.450003       6.0000     15.9994
   74   2 H    1     -20.600002   -1.680000   25.480001       1.0000      1.0079
   75   2 H    1     -20.360001   -2.680000   26.600000       1.0000      1.0079
   76   1 O    8      -9.640000    6.030001   32.020000       6.0000     15.9994
   77   2 H    1     -10.580001    6.050000   32.270004       1.0000      1.0079
   78   2 H    1      -9.270000    5.790000   32.880001       1.0000      1.0079
   79   1 O    8     -14.710001  -39.190002   18.120001       6.0000     15.9994
   80   2 H    1     -13.840000  -39.480003   18.030001       1.0000      1.0079
   81   2 H    1     -15.110001  -39.420002   17.180000       1.0000      1.0079
   82   1 O    8      10.020000   -7.980001   11.500001       6.0000     15.9994
   83   2 H    1      10.150002   -7.730001   12.410001       1.0000      1.0079
   84   2 H    1      10.180000   -7.180000   10.980000       1.0000      1.0079
   85   1 O    8      -3.900000   17.150000    8.180000       6.0000     15.9994
   86   2 H    1      -4.820000   17.020000    8.410000       1.0000      1.0079
   87   2 H    1      -3.450000   16.400002    8.660001       1.0000      1.0079
   88   1 O    8      12.020000   -8.450001   23.260002       6.0000     15.9994
   89   2 H    1      -5.440001   -8.640000   23.980000       1.0000      1.0079
   90   2 H    1      12.000000   -9.240000   22.600000       1.0000      1.0079
   91   1 O    8       7.190001   -4.510000   12.890000       6.0000     15.9994
   92   2 H    1       6.300001   -4.640000   12.520000       1.0000      1.0079
   93   2 H    1       6.960001   -4.620000   13.800001       1.0000      1.0079
   94   1 O    8      17.510000   23.220001   26.040001       6.0000     15.9994
   95   2 H    1      18.380001   22.920000   25.600002       1.0000      1.0079
   96   2 H    1      17.810001   24.150002   26.280001       1.0000      1.0079
   97   1 O    8     -24.370001  -10.340000    8.750001       6.0000     15.9994
   98   2 H    1     -23.590002   -9.700001    8.720000       1.0000      1.0079
   99   2 H    1     -25.150002   -9.830000    9.190001       1.0000      1.0079
  100   1 O    8       1.420000   -2.620000   14.010000       6.0000     15.9994
  101   2 H    1       1.560000   -3.520000   14.330001       1.0000      1.0079
  102   2 H    1       1.680000   -1.930000   14.750000       1.0000      1.0079
  103   1 O    8      22.170000    7.280001   16.900002       6.0000     15.9994
  104   2 H    1      22.110003    7.190001   17.840000       1.0000      1.0079
  105   2 H    1       5.340000    8.190001   16.580002       1.0000      1.0079
  106   1 O    8      -4.380000    8.090000    9.060000       6.0000     15.9994
  107   2 H    1      -5.130000    8.500000    8.580000       1.0000      1.0079
  108   2 H    1      -4.290000    7.140000    8.830000       1.0000      1.0079
  109   1 O    8      26.000002   18.540001   12.180000       6.0000     15.9994
  110   2 H    1      26.750002   17.889999   12.020000       1.0000      1.0079
  111   2 H    1      26.400002   19.400002   11.820001       1.0000      1.0079
  112   1 O    8     -19.850002    8.590000   26.250002       6.0000     15.9994
  113   2 H    1     -19.420002    7.880001   26.840000       1.0000      1.0079
  114   2 H    1     -19.200001    9.390000   26.160002       1.0000      1.0079
  115   1 O    8      15.480001   19.200001   12.410001       6.0000     15.9994
  116   2 H    1      16.250002   19.670002   12.180000       1.0000      1.0079
  117   2 H    1      15.190001   19.610001   13.280001       1.0000      1.0079
  118   1 O    8     -23.910000   15.130001   30.380001       6.0000     15.9994
  119   2 H    1     -23.990002   14.490002   29.600000       1.0000      1.0079
  120   2 H    1     -23.150002   14.950001   30.970001       1.0000      1.0079
  121   1 O    8      16.450001    6.290000   21.310001       6.0000     15.9994
  122   2 H    1      15.550001    6.010000   21.600000       1.0000      1.0079
  123   2 H    1      16.390001    6.550000   20.310001       1.0000      1.0079
  124   1 O    8     -25.120001    7.790000   28.549999       6.0000     15.9994
  125   2 H    1     -32.650002   22.710001   28.890001       1.0000      1.0079
  126   2 H    1     -25.090000    8.150001   27.600002       1.0000      1.0079
  127   1 O    8      15.650001   -1.710000   13.580000       6.0000     15.9994
  128   2 H    1      15.460001   -1.390000   14.500000       1.0000      1.0079
  129   2 H    1       8.190001   12.710000   13.600000       1.0000      1.0079
  130   1 O    8      -5.230000    2.350000   32.490002       6.0000     15.9994
  131   2 H    1      -5.460000    2.510000   33.430000       1.0000      1.0079
  132   2 H    1      -5.660000    2.890000   31.800001       1.0000      1.0079
  133   1 O    8       1.940000   24.480001    8.490001       6.0000     15.9994
  134   2 H    1       1.080000   24.640003    8.080000       1.0000      1.0079
  135   2 H    1       2.400000   25.360001    8.840000       1.0000      1.0079
  136   1 O    8     -22.030001   11.440001   24.330002       6.0000     15.9994
  137   2 H    1     -21.020000   11.660000   24.340000       1.0000      1.0079
  138   2 H    1     -22.060001   10.870000   23.530003       1.0000      1.0079
  139   1 O    8      -2.300000    6.980000   28.260002       6.0000     15.9994
  140   2 H    1      -1.960000    7.520000   29.070000       1.0000      1.0079
  141   2 H    1      -1.470000    6.390000   27.889999       1.0000      1.0079
  142   1 O    8       2.410000   11.210001   18.810001       6.0000     15.9994
  143   2 H    1       1.700000   10.559999   18.900002       1.0000      1.0079
  144   2 H    1       2.220000   11.410000   17.810001       1.0000      1.0079
  145   1 O    8     -17.830002   31.300001    7.940001       6.0000     15.9994
  146   2 H    1      -1.750000   30.690002    7.970000       1.0000      1.0079
  147   2 H    1     -17.980001   32.140003    8.520000       1.0000      1.0079
  148   1 O    8     -34.850002   17.190001   31.120003       6.0000     15.9994
  149   2 H    1     -35.210003   16.460001   31.550003       1.0000      1.0079
  150   2 H    1     -35.560001   17.830002   30.800001       1.0000      1.0079
  151   1 O    8      -6.730001    7.180000   21.119999       6.0000     15.9994
  152   2 H    1      -6.790000    6.370000   21.660002       1.0000      1.0079
  153   2 H    1      -7.120000    6.880000   20.250000       1.0000      1.0079
  154   1 O    8     -18.970001  -14.890001   24.220001       6.0000     15.9994
  155   2 H    1     -18.120001  -14.370001   24.200001       1.0000      1.0079
  156   2 H    1     -19.370001  -14.490002   25.050001       1.0000      1.0079
  157   1 O    8       4.210001   -5.270000   11.830001       6.0000     15.9994
  158   2 H    1       3.960000   -4.300000   11.710000       1.0000      1.0079
  159   2 H    1       4.020000   -5.550000   10.860001       1.0000      1.0079
  160   1 O    8       5.330000   -2.300000    9.090000       6.0000     15.9994
  161   2 H    1       4.300000   -2.350000    9.130000       1.0000      1.0079
  162   2 H    1       5.510000   -3.160000    8.570001       1.0000      1.0079
  163   1 O    8      38.260002  -14.880000   28.890001       6.0000     15.9994
  164   2 H    1      39.060001  -15.200001   29.450001       1.0000      1.0079
  165   2 H    1      38.380005  -15.390000   28.000002       1.0000      1.0079
  166   1 O    8       3.470000   -2.700000   12.200001       6.0000     15.9994
  167   2 H    1       4.060000   -1.850000   12.220000       1.0000      1.0079
  168   2 H    1       2.780000   -2.560000   12.860001       1.0000      1.0079
  169   1 O    8     -40.510002   -3.030000   25.410002       6.0000     15.9994
  170   2 H    1     -24.470001   -3.520000   25.190001       1.0000      1.0079
  171   2 H    1     -24.040001   -2.220000   25.750000       1.0000      1.0079
  172   1 O    8       3.410000  -20.470001    9.030001       6.0000     15.9994
  173   2 H    1       2.860000  -19.860001    9.550000       1.0000      1.0079
  174   2 H    1       3.440000  -20.180000    8.090000       1.0000      1.0079
  175   1 O    8       6.730001   -3.790000   18.430000       6.0000     15.9994
  176   2 H    1       6.670001   -4.280000   17.510000       1.0000      1.0079
  177   2 H    1       6.630001   -2.800000   18.260000       1.0000      1.0079
  178   1 O    8      -8.970000   18.810001   29.650002       6.0000     15.9994
  179   2 H    1      -9.540001   18.000000   29.740002       1.0000      1.0079
  180   2 H    1      -8.040000   18.550001   29.890001       1.0000      1.0079
  181   1 O    8      21.230001    2.720000   29.010000       6.0000     15.9994
  182   2 H    1      20.650002    2.990000   29.730000       1.0000      1.0079
  183   2 H    1      21.230001    1.750000   28.830002       1.0000      1.0079
  184   1 O    8       5.930000   -2.840000   24.260002       6.0000     15.9994
  185   2 H    1       6.490001   -3.290000   24.910002       1.0000      1.0079
  186   2 H    1       6.070001   -1.850000   24.270000       1.0000      1.0079
  187   1 O    8     -19.380001   34.580002   25.140001       6.0000     15.9994
  188   2 H    1     -19.460001   34.850002   24.160002       1.0000      1.0079
  189   2 H    1     -18.730001   33.800003   25.100002       1.0000      1.0079
  190   1 O    8       6.460000   13.400001   30.330002       6.0000     15.9994
  191   2 H    1       7.280001   12.990000   29.910002       1.0000      1.0079
  192   2 H    1       6.230001   12.720001   31.010000       1.0000      1.0079
  193   1 O    8      12.930001    7.380000   20.540001       6.0000     15.9994
  194   2 H    1      12.020000    7.280001   20.870001       1.0000      1.0079
  195   2 H    1      13.310001    8.330001   20.710001       1.0000      1.0079
  196   1 O    8     -30.680000   -3.110000   20.470001       6.0000     15.9994
  197   2 H    1     -31.100002   -2.500000   21.170002       1.0000      1.0079
  198   2 H    1     -30.020000   -3.770000   20.870001       1.0000      1.0079
  199   1 O    8     -15.500001   20.550001   33.330002       6.0000     15.9994
  200   2 H    1     -15.680000   21.490002   33.360001       1.0000      1.0079
  201   2 H    1     -14.780001   20.520000   32.610001       1.0000      1.0079
  202   1 O    8       9.530001   14.140000    8.760000       6.0000     15.9994
  203   2 H    1       9.820001   15.060000    8.940001       1.0000      1.0079
  204   2 H    1       9.220000   14.000001    7.810000       1.0000      1.0079
  205   1 O    8      24.180002   -8.450001    9.820001       6.0000     15.9994
  206   2 H    1      15.860001    6.180000   10.820000       1.0000      1.0079
  207   2 H    1      23.630001   -9.200000    9.570000       1.0000      1.0079
  208   1 O    8      -3.680000  -11.060000   17.640001       6.0000     15.9994
  209   2 H    1      -3.610000  -10.980000   18.610001       1.0000      1.0079
  210   2 H    1      -4.370000  -10.510000   17.270000       1.0000      1.0079
  211   1 O    8      -4.540000  -10.570001   26.600000       6.0000     15.9994
  212   2 H    1      -4.320000  -11.050000   27.430000       1.0000      1.0079
  213   2 H    1      -3.990000   -9.750000   26.600000       1.0000      1.0079
  214   1 O    8       2.890000   10.890001   27.710001       6.0000     15.9994
  215   2 H    1       3.740000   10.400001   27.630003       1.0000      1.0079
  216   2 H    1       2.370000   10.810001   26.910002       1.0000      1.0079
  217   1 O    8     -28.230001    2.880000   20.440002       6.0000     15.9994
  218   2 H    1     -27.290001    3.030000   20.520000       1.0000      1.0079
  219   2 H    1     -28.520002    2.300000   21.150000       1.0000      1.0079
  220   1 O    8      33.530003   12.710000   14.250001       6.0000     15.9994
  221   2 H    1      33.610001   13.470001   13.610001       1.0000      1.0079
  222   2 H    1      32.950001   11.980001   13.890000       1.0000      1.0079
  223   1 O    8      -4.670000    2.960000   15.410002       6.0000     15.9994
  224   2 H    1      12.540001    3.500000   14.630001       1.0000      1.0079
  225   2 H    1      -4.870000    2.100000   15.060000       1.0000      1.0079
  226   1 O    8      10.530001   32.870003   11.880001       6.0000     15.9994
  227   2 H    1      10.240001   33.760002   11.920000       1.0000      1.0079
  228   2 H    1      28.340000   32.890003   12.230001       1.0000      1.0079
  229   1 O    8      -9.180000   13.620001   26.550003       6.0000     15.9994
  230   2 H    1     -10.130000   13.360001   26.530001       1.0000      1.0079
  231   2 H    1      -8.750001   12.890000   25.990002       1.0000      1.0079
  232   1 O    8       3.270000    0.530000   32.430004       6.0000     15.9994
  233   2 H    1       3.170000    0.580000   33.410000       1.0000      1.0079
  234   2 H    1       3.730000   -0.350000   32.110001       1.0000      1.0079
  235   1 O    8      -2.670000   34.860001   22.150002       6.0000     15.9994
  236   2 H    1      -3.220000   35.340000   21.510000       1.0000      1.0079
  237   2 H    1      -2.940000   33.840000   22.180002       1.0000      1.0079
  238   1 O    8       0.040000   -3.100000   29.820002       6.0000     15.9994
  239   2 H    1      -7.950000   11.760000   30.640001       1.0000      1.0079
  240   2 H    1       0.680000   -3.020000   29.070000       1.0000      1.0079
  241   1 O    8      14.720001   -3.180000   32.470001       6.0000     15.9994
  242   2 H    1      14.120001   -3.100000   33.279999       1.0000      1.0079
  243   2 H    1      14.830000   -4.150000   32.370003       1.0000      1.0079
  244   1 O    8       0.410000   -6.370000   15.220001       6.0000     15.9994
  245   2 H    1      -0.100000   -5.780000   14.630001       1.0000      1.0079
  246   2 H    1      -0.120000   -7.230001   15.260000       1.0000      1.0079
  247   1 O    8      17.470001    2.950000   33.440002       6.0000     15.9994
  248   2 H    1      17.020000    3.780000   32.940002       1.0000      1.0079
  249   2 H    1      16.910002    2.200000   33.240002       1.0000      1.0079
  250   1 O    8      24.910002    1.950000   20.960003       6.0000     15.9994
  251   2 H    1      25.700001    2.600000   20.960003       1.0000      1.0079
  252   2 H    1      24.960001    1.430000   20.090000       1.0000      1.0079
  253   1 O    8      -5.800000    2.720000    9.100000       6.0000     15.9994
  254   2 H    1      -5.620000    3.430000    8.450001       1.0000      1.0079
  255   2 H    1      -5.820000    3.180000    9.990001       1.0000      1.0079
  256   1 O    8      12.910000   -9.710001   11.400002       6.0000     15.9994
  257   2 H    1      12.540001   -9.110001   10.730000       1.0000      1.0079
  258   2 H    1      13.840000   -9.900001   11.200000       1.0000      1.0079
  259   1 O    8      -3.480000   33.080002   17.630001       6.0000     15.9994
  260   2 H    1      -3.040000   32.380001   18.170000       1.0000      1.0079
  261   2 H    1      -3.820000   32.640003   16.780001       1.0000      1.0079
  262   1 O    8      10.040001    1.130000   11.040001       6.0000     15.9994
  263   2 H    1      10.040001    2.080000   11.470001       1.0000      1.0079
  264   2 H    1       9.320001    0.700000   11.530000       1.0000      1.0079
  265   1 O    8      10.490000   -1.740000   16.670000       6.0000     15.9994
  266   2 H    1      10.400001   -0.940000   17.260000       1.0000      1.0079
  267   2 H    1      18.300001   13.150001   16.010000       1.0000      1.0079
  268   1 O    8      -4.140000  -14.430000   27.440002       6.0000     15.9994
  269   2 H    1      -5.130000  -14.480001   27.420002       1.0000      1.0079
  270   2 H    1      -3.880000  -15.310000   27.720001       1.0000      1.0079
  271   1 O    8       6.080000   -5.070000    8.280001       6.0000     15.9994
  272   2 H    1       7.040000   -5.360000    8.470000       1.0000      1.0079
  273   2 H    1       5.610001   -5.740000    8.830000       1.0000      1.0079
  274   1 O    8      -9.290000    5.820000   15.120001       6.0000     15.9994
  275   2 H    1     -10.110001    5.350000   15.410002       1.0000      1.0079
  276   2 H    1      -8.620001    5.090000   15.320001       1.0000      1.0079
  277   1 O    8      11.090001    9.570000   14.470000       6.0000     15.9994
  278   2 H    1      -6.390000    8.830000   14.590001       1.0000      1.0079
  279   2 H    1      11.640000    9.480001   13.720001       1.0000      1.0079
  280   1 O    8      26.610001    0.040000   32.560001       6.0000     15.9994
  281   2 H    1      27.050001    0.880000   32.370003       1.0000      1.0079
  282   2 H    1      25.640001    0.230000   32.740002       1.0000      1.0079
  283   1 O    8      21.000002   -1.620000   17.300001       6.0000     15.9994
  284   2 H    1      12.770000   13.300000   18.230001       1.0000      1.0079
  285   2 H    1      20.820000   -2.590000   17.330000       1.0000      1.0079
  286   1 O    8     -26.510000   28.110001   19.170000       6.0000     15.9994
  287   2 H    1      -8.790001   28.020000   19.690001       1.0000      1.0079
  288   2 H    1     -26.250002   28.610001   18.400000       1.0000      1.0079
  289   1 O    8      -6.490001    3.670000   30.520000       6.0000     15.9994
  290   2 H    1      -7.230001    4.300000   30.240002       1.0000      1.0079
  291   2 H    1      -6.090000    3.260000   29.720001       1.0000      1.0079
  292   1 O    8      16.680000   -0.320000   22.320002       6.0000     15.9994
  293   2 H    1      15.990001   -0.780000   22.860001       1.0000      1.0079
  294   2 H    1      17.580002   -0.870000   22.310001       1.0000      1.0079
  295   1 O    8       4.300000   19.760000   28.880003       6.0000     15.9994
  296   2 H    1       4.760000   18.930000   29.150002       1.0000      1.0079
  297   2 H    1       5.020000   20.470001   28.860001       1.0000      1.0079
  298   1 O    8      -8.320000   20.600002   27.730003       6.0000     15.9994
  299   2 H    1      -8.470000   19.910000   28.410000       1.0000      1.0079
  300   2 H    1      -7.730001   20.190001   27.010002       1.0000      1.0079
  301   1 O    8     -17.190001   16.330002    9.010000       6.0000     15.9994
  302   2 H    1     -16.820000   16.220001    8.080000       1.0000      1.0079
  303   2 H    1     -16.310001   16.090000    9.460000       1.0000      1.0079
  304   1 O    8     -10.700001    7.290000   22.959999       6.0000     15.9994
  305   2 H    1     -11.690001    6.870000   22.959999       1.0000      1.0079
  306   2 H    1     -10.180000    6.410000   22.940002       1.0000      1.0079
  307   1 O    8     -15.250001   10.380001   10.130000       6.0000     15.9994
  308   2 H    1     -15.300001   11.280001    9.750000       1.0000      1.0079
  309   2 H    1     -16.010000    9.870001    9.800000       1.0000      1.0079
  310   1 O    8     -21.550003   24.820002   24.080002       6.0000     15.9994
  311   2 H    1     -21.870001   24.560001   23.210001       1.0000      1.0079
  312   2 H    1     -22.070000   25.600002   24.410002       1.0000      1.0079
  313   1 O    8      -3.450000    1.700000   24.300001       6.0000     15.9994
  314   2 H    1      -4.150000    2.240000   24.790001       1.0000      1.0079
  315   2 H    1      -3.930000    0.850000   24.060001       1.0000      1.0079
  316   1 O    8       3.080000  -17.270000   30.190001       6.0000     15.9994
  317   2 H    1       3.670000  -16.560001   29.950001       1.0000      1.0079
  318   2 H    1       2.840000  -17.790001   29.350002       1.0000      1.0079
  319   1 O    8      -2.220000    0.040000   11.680001       6.0000     15.9994
  320   2 H    1      -1.970000   -0.540000   12.440001       1.0000      1.0079
  321   2 H    1      -3.270000   -0.050000   11.620001       1.0000      1.0079
  322   1 O    8      20.389999    4.510000   21.049999       6.0000     15.9994
  323   2 H    1      19.540001    4.110000   20.700001       1.0000      1.0079
  324   2 H    1      21.210001    3.970000   20.730001       1.0000      1.0079
  325   1 O    8      -2.400000   26.310001   22.860001       6.0000     15.9994
  326   2 H    1      -3.130000   25.710001   23.080002       1.0000      1.0079
  327   2 H    1      -2.100000   26.049999   21.950001       1.0000      1.0079
  328   1 O    8      -0.410000   14.520000   12.350000       6.0000     15.9994
  329   2 H    1      -0.950000   15.280001   12.660000       1.0000      1.0079
  330   2 H    1      -0.920000   13.930000   11.750001       1.0000      1.0079
  331   1 O    8     -34.210003   32.850002   24.840002       6.0000     15.9994
  332   2 H    1     -34.370003   32.080002   25.500002       1.0000      1.0079
  333   2 H    1     -34.040001   32.389999   23.990002       1.0000      1.0079
  334   1 O    8     -16.060001    4.110000   20.160000       6.0000     15.9994
  335   2 H    1     -16.639999    4.750000   20.550001       1.0000      1.0079
  336   2 H    1     -16.700001    3.400000   19.700001       1.0000      1.0079
  337   1 O    8       3.070000   20.850000   31.390001       6.0000     15.9994
  338   2 H    1      11.460000    5.740000   30.610001       1.0000      1.0079
  339   2 H    1     -12.860001   20.730001   31.760002       1.0000      1.0079
  340   1 O    8       7.360001   26.920002   10.890001       6.0000     15.9994
  341   2 H    1       6.540000   26.760002   10.340000       1.0000      1.0079
  342   2 H    1       7.590001   26.290001   11.600000       1.0000      1.0079
  343   1 O    8      12.080001    7.020000   17.790001       6.0000     15.9994
  344   2 H    1      11.550001    6.200000   17.889999       1.0000      1.0079
  345   2 H    1      12.470001    7.230001   18.710001       1.0000      1.0079
  346   1 O    8      -3.390000  -12.000000   32.580002       6.0000     15.9994
  347   2 H    1      -3.020000  -12.340001   33.390003       1.0000      1.0079
  348   2 H    1      -4.070000  -12.740001   32.430004       1.0000      1.0079
  349   1 O    8       8.210000   -4.580000   32.570004       6.0000     15.9994
  350   2 H    1       9.130000   -4.300000   32.770000       1.0000      1.0079
  351   2 H    1       7.840000   -4.700000   33.480000       1.0000      1.0079
  352   1 O    8       2.890000   13.030001   33.470001       6.0000     15.9994
  353   2 H    1       2.160000   13.790001   33.110001       1.0000      1.0079
  354   2 H    1       3.750000   13.430000   33.270000       1.0000      1.0079
  355   1 O    8       8.640000    1.040000   23.460003       6.0000     15.9994
  356   2 H    1       8.370000    1.320000   22.520000       1.0000      1.0079
  357   2 H    1       8.630000    1.900000   23.960001       1.0000      1.0079
  358   1 O    8      -3.020000   24.460001   16.040001       6.0000     15.9994
  359   2 H    1      -3.670000   24.960001   15.490000       1.0000      1.0079
  360   2 H    1      -3.000000   25.010002   16.860001       1.0000      1.0079
  361   1 O    8     -26.950001    4.630000   22.930002       6.0000     15.9994
  362   2 H    1     -26.320002    4.200000   23.549999       1.0000      1.0079
  363   2 H    1     -27.810001    4.100000   23.070002       1.0000      1.0079
  364   1 O    8      -3.260000   26.230001   18.330000       6.0000     15.9994
  365   2 H    1      -4.170000   26.100002   18.690001       1.0000      1.0079
  366   2 H    1      -2.600000   25.960003   19.070000       1.0000      1.0079
  367   1 O    8       8.810000   13.240002   17.880001       6.0000     15.9994
  368   2 H    1       9.370001   13.820001   18.380001       1.0000      1.0079
  369   2 H    1       9.080001   12.360001   18.140001       1.0000      1.0079
  370   1 O    8     -22.490002   -5.870000   22.090000       6.0000     15.9994
  371   2 H    1     -23.480000   -5.810000   22.100000       1.0000      1.0079
  372   2 H    1     -22.330000   -6.760001   22.560001       1.0000      1.0079
  373   1 O    8       1.870000   -2.730000   31.820002       6.0000     15.9994
  374   2 H    1       1.260000   -2.210000   32.440002       1.0000      1.0079
  375   2 H    1       1.830000   -3.610000   32.230000       1.0000      1.0079
  376   1 O    8     -13.270000   10.620001   12.100000       6.0000     15.9994
  377   2 H    1     -13.860001   10.390000   11.390000       1.0000      1.0079
  378   2 H    1     -12.570001    9.900001   12.190001       1.0000      1.0079
  379   1 O    8       1.600000   -0.560000   27.960003       6.0000     15.9994
  380   2 H    1       1.870000   -1.500000   27.750000       1.0000      1.0079
  381   2 H    1       0.750000   -0.640000   27.500002       1.0000      1.0079
  382   1 O    8      -8.080000   -2.210000   30.000002       6.0000     15.9994
  383   2 H    1      -7.090001   -2.180000   29.920002       1.0000      1.0079
  384   2 H    1      -8.420001   -1.430000   30.470001       1.0000      1.0079
  385   1 O    8       2.260000   29.950001   19.260002       6.0000     15.9994
  386   2 H    1       3.140000   29.530001   19.470001       1.0000      1.0079
  387   2 H    1       2.220000   30.310001   18.360001       1.0000      1.0079
  388   1 O    8       4.050000   12.270001    9.200000       6.0000     15.9994
  389   2 H    1       3.700000   12.050000    8.250000       1.0000      1.0079
  390   2 H    1       4.820000   11.710000    9.310000       1.0000      1.0079
  391   1 O    8       4.490000   21.580000   13.010001       6.0000     15.9994
  392   2 H    1       4.890000   21.840000   13.860001       1.0000      1.0079
  393   2 H    1       4.670000   22.350002   12.440001       1.0000      1.0079
  394   1 O    8       6.690001   30.700001   26.610001       6.0000     15.9994
  395   2 H    1      15.210000   17.050001   26.770000       1.0000      1.0079
  396   2 H    1       5.840001   30.450001   26.890001       1.0000      1.0079
  397   1 O    8      -3.230000   10.000000   20.650002       6.0000     15.9994
  398   2 H    1      -2.740000   10.270000   19.830000       1.0000      1.0079
  399   2 H    1      -2.590000   10.170001   21.400002       1.0000      1.0079
  400   1 O    8       5.900001   17.080000   28.890001       6.0000     15.9994
  401   2 H    1       5.500000   16.180000   29.050003       1.0000      1.0079
  402   2 H    1       6.180000   16.910002   28.020000       1.0000      1.0079
  403   1 O    8      19.410002   45.870003   28.130001       6.0000     15.9994
  404   2 H    1      20.020000   45.130001   28.240002       1.0000      1.0079
  405   2 H    1      18.480000   45.570000   28.320000       1.0000      1.0079
  406   1 O    8      13.680000   -0.430000   17.580002       6.0000     15.9994
  407   2 H    1      13.810000   -1.440000   17.770000       1.0000      1.0079
  408   2 H    1      14.000001   -0.060000   18.400000       1.0000      1.0079
  409   1 O    8      18.980001    1.950000    9.070001       6.0000     15.9994
  410   2 H    1      19.370001    1.990000   10.000000       1.0000      1.0079
  411   2 H    1      18.390001    2.830000    9.040001       1.0000      1.0079
  412   1 O    8     -24.910002  -12.190001   22.540001       6.0000     15.9994
  413   2 H    1     -25.210001  -13.170000   22.400000       1.0000      1.0079
  414   2 H    1     -24.590000  -11.870001   21.680002       1.0000      1.0079
  415   1 O    8     -28.310001    8.360001   12.330000       6.0000     15.9994
  416   2 H    1     -27.990000    8.280001   11.410000       1.0000      1.0079
  417   2 H    1     -27.740002    9.000000   12.840000       1.0000      1.0079
  418   1 O    8      22.340002   35.440002   27.080002       6.0000     15.9994
  419   2 H    1      22.050001   36.080002   27.790001       1.0000      1.0079
  420   2 H    1      22.730000   36.100002   26.510000       1.0000      1.0079
  421   1 O    8      19.600000   -2.360000    9.490001       6.0000     15.9994
  422   2 H    1      19.180000   -1.490000    9.380000       1.0000      1.0079
  423   2 H    1      19.830000   -2.430000   10.500001       1.0000      1.0079
  424   1 O    8      -7.010000    9.160001   32.389999       6.0000     15.9994
  425   2 H    1      -7.980001    9.060000   32.730003       1.0000      1.0079
  426   2 H    1       1.970000   -5.450000   33.250000       1.0000      1.0079
  427   1 O    8      -5.750000    8.460000   29.670002       6.0000     15.9994
  428   2 H    1      -6.160001    9.150001   30.280001       1.0000      1.0079
  429   2 H    1      -5.450000    7.780001   30.360003       1.0000      1.0079
  430   1 O    8     -16.049999    7.360001   31.730001       6.0000     15.9994
  431   2 H    1     -16.560001    8.190001   31.530001       1.0000      1.0079
  432   2 H    1     -15.330001    7.720000   32.240002       1.0000      1.0079
  433   1 O    8      -1.230000  -23.270000   12.480001       6.0000     15.9994
  434   2 H    1      -0.700000  -22.800003   13.130001       1.0000      1.0079
  435   2 H    1      -2.150000  -22.950001   12.490001       1.0000      1.0079
  436   1 O    8       7.900000   19.690001   32.330002       6.0000     15.9994
  437   2 H    1       8.450001   20.590000   32.200005       1.0000      1.0079
  438   2 H    1      16.150002    4.680000   31.410000       1.0000      1.0079
  439   1 O    8      -1.120000    2.710000   19.110001       6.0000     15.9994
  440   2 H    1      -0.710000    2.650000   18.180000       1.0000      1.0079
  441   2 H    1      -1.150000    1.770000   19.390001       1.0000      1.0079
  442   1 O    8       5.300000   10.090000   26.980001       6.0000     15.9994
  443   2 H    1       5.900001    9.910001   27.740002       1.0000      1.0079
  444   2 H    1       5.690000    9.660000   26.190002       1.0000      1.0079
  445   1 O    8     -15.040001   -0.930000   15.810001       6.0000     15.9994
  446   2 H    1     -15.690001   -1.210000   16.520000       1.0000      1.0079
  447   2 H    1     -14.150001   -0.970000   16.350000       1.0000      1.0079
  448   1 O    8      -7.290000    8.470000   17.710001       6.0000     15.9994
  449   2 H    1      -7.760000    8.400001   16.810001       1.0000      1.0079
  450   2 H    1      10.380001    7.960001   17.510000       1.0000      1.0079
  451   1 O    8      16.120001   10.430001   25.880001       6.0000     15.9994
  452   2 H    1      16.390001    9.430000   25.790003       1.0000      1.0079
  453   2 H    1      16.049999   10.510000   26.880001       1.0000      1.0079
  454   1 O    8       2.460000   10.670000   32.410004       6.0000     15.9994
  455   2 H    1       2.860000   11.400002   32.880001       1.0000      1.0079
  456   2 H    1       2.750000   10.840001   31.500000       1.0000      1.0079
  457   1 O    8       5.900001  -20.610001    9.690001       6.0000     15.9994
  458   2 H    1       4.940000  -20.660000    9.250001       1.0000      1.0079
  459   2 H    1       6.240000  -19.710001    9.410001       1.0000      1.0079
  460   1 O    8      12.170000   10.210000   17.120001       6.0000     15.9994
  461   2 H    1      11.740000   10.180000   16.200001       1.0000      1.0079
  462   2 H    1      -5.450000    9.860001   17.680000       1.0000      1.0079
  463   1 O    8     -10.320001  -24.630001    9.100000       6.0000     15.9994
  464   2 H    1      -9.600000  -25.250000    9.180000       1.0000      1.0079
  465   2 H    1     -10.970000  -25.200003    8.630000       1.0000      1.0079
  466   1 O    8       6.920000   -8.890000   16.530001       6.0000     15.9994
  467   2 H    1       6.230001   -9.560000   16.710001       1.0000      1.0079
  468   2 H    1       7.470000   -8.720000   17.320002       1.0000      1.0079
  469   1 O    8     -12.140001   -5.440001   32.350002       6.0000     15.9994
  470   2 H    1     -11.880001   -6.300001   32.700001       1.0000      1.0079
  471   2 H    1     -12.270001   -4.820000   33.070000       1.0000      1.0079
  472   1 O    8      -1.300000    1.520000   26.160002       6.0000     15.9994
  473   2 H    1      -2.160000    1.270000   25.690001       1.0000      1.0079
  474   2 H    1      -0.910000    0.680000   26.540001       1.0000      1.0079
  475   1 O    8      14.820002   -6.760001   20.180000       6.0000     15.9994
  476   2 H    1      14.000001   -7.210000   19.920002       1.0000      1.0079
  477   2 H    1      14.820002   -6.950001   21.110001       1.0000      1.0079
  478   1 O    8     -18.680000   32.110001   11.650001       6.0000     15.9994
  479   2 H    1     -17.840000   32.350002   12.020000       1.0000      1.0079
  480   2 H    1     -18.800001   31.130001   11.670000       1.0000      1.0079
  481   1 O    8       1.650000    3.200000   30.460003       6.0000     15.9994
  482   2 H    1       2.140000    3.600000   31.250002       1.0000      1.0079
  483   2 H    1       1.520000    2.170000   30.480001       1.0000      1.0079
  484   1 O    8      -6.490001   38.670002   22.760000       6.0000     15.9994
  485   2 H    1      -6.480000   37.900002   23.410000       1.0000      1.0079
  486   2 H    1      -6.800000   38.190002   21.970001       1.0000      1.0079
  487   1 O    8       3.760000   36.030003   19.670002       6.0000     15.9994
  488   2 H    1       3.400000   36.850002   20.050001       1.0000      1.0079
  489   2 H    1       3.680000   35.330002   20.440002       1.0000      1.0079
  490   1 O    8      -1.600000   29.730000   15.630001       6.0000     15.9994
  491   2 H    1      -2.190000   29.330002   16.300001       1.0000      1.0079
  492   2 H    1      -2.060000   30.130003   14.880000       1.0000      1.0079
  493   1 O    8       2.360000    7.900000   28.540001       6.0000     15.9994
  494   2 H    1      -6.840000   21.860001   28.580000       1.0000      1.0079
  495   2 H    1       2.030000    8.780001   28.090000       1.0000      1.0079
  496   1 O    8       0.210000    8.100000   25.150002       6.0000     15.9994
  497   2 H    1      -8.420001   21.809999   25.480001       1.0000      1.0079
  498   2 H    1      -7.180000   22.880001   25.340002       1.0000      1.0079
  499   1 O    8      15.130001   13.720001   16.250002       6.0000     15.9994
  500   2 H    1      15.630001   13.190001   15.630001       1.0000      1.0079
  501   2 H    1      14.320001   13.140000   16.250002       1.0000      1.0079
  502   1 O    8       7.400000   -3.120000   21.950001       6.0000     15.9994
  503   2 H    1       8.010000   -3.910000   22.120001       1.0000      1.0079
  504   2 H    1       6.800000   -3.170000   22.750000       1.0000      1.0079
  505   1 O    8      17.200001    4.740000   14.780001       6.0000     15.9994
[...]
    899      3      Pt          0.01579486    -0.00353130    -0.00561767
    900      3      Pt         -0.01105719    -0.00606426    -0.00004063
    901      3      Pt          0.00355978    -0.01077027     0.00725390
    902      3      Pt         -0.00399649     0.00272951     0.00780961
    903      3      Pt          0.01651701    -0.00856741     0.00345404
    904      3      Pt          0.00610372     0.00009851     0.01657162
    905      3      Pt          0.00319621    -0.00500958    -0.01088546
    906      3      Pt         -0.01544517     0.00142316     0.00923969
 SUM OF ATOMIC FORCES           0.01452766     0.01506525     0.02153623     0.03003038

 STRESS| Analytical stress tensor [GPa]
 STRESS|                        x                   y                   z
 STRESS|      x       -2.41000172551E+00  -1.24999802150E-01   7.72707561018E-03
 STRESS|      y       -1.24999802150E-01  -2.69244573272E+00  -2.10013376541E-01
 STRESS|      z        7.72707561018E-03  -2.10013376541E-01  -6.19007192624E-01
 STRESS| 1/3 Trace                                            -1.90715155029E+00
 STRESS| Determinant                                          -3.90008013744E+00

 STRESS| Eigenvectors and eigenvalues of the analytical stress tensor [GPa]
 STRESS|                        1                   2                   3
 STRESS| Eigenvalues  -2.75749451448E+00  -2.36623595758E+00  -5.97724178794E-01
 STRESS|      x           0.335294904533      0.942047031314      0.011167711832
 STRESS|      y           0.937719786097     -0.332564389788     -0.100411799142
 STRESS|      z           0.090878654020     -0.044139748957      0.994883286022

 -------------------------------------------------------------------------------
 -                                                                             -
 -                                DBCSR STATISTICS                             -
 -                                                                             -
 -------------------------------------------------------------------------------
 COUNTER                                    TOTAL       BLAS       SMM       ACC
 flops     5 x     5 x   288          81289440000       0.0%    100.0%      0.0%
 flops     5 x     5 x   292          82418460000       0.0%    100.0%      0.0%
 flops     5 x    13 x   288          91793520000       0.0%    100.0%      0.0%
 flops    13 x     5 x   288          91956384000       0.0%    100.0%      0.0%
 flops    20 x    13 x   288          92562912000       0.0%    100.0%      0.0%
 flops    13 x    20 x   288          92641536000       0.0%    100.0%      0.0%
 flops     5 x    13 x   292          93068430000       0.0%    100.0%      0.0%
 flops    13 x     5 x   292          93233556000       0.0%    100.0%      0.0%
 flops    20 x    13 x   292          93848508000       0.0%    100.0%      0.0%
 flops    13 x    20 x   292          93928224000       0.0%    100.0%      0.0%
 flops    13 x    13 x   288          98422084800       0.0%    100.0%      0.0%
 flops    13 x    13 x   292          99789058200       0.0%    100.0%      0.0%
 flops    20 x     5 x   288         101666880000       0.0%    100.0%      0.0%
 flops     5 x    20 x   288         101753280000       0.0%    100.0%      0.0%
 flops    20 x     5 x   292         103078920000       0.0%    100.0%      0.0%
 flops     5 x    20 x   292         103166520000       0.0%    100.0%      0.0%
 flops    20 x    20 x   288         404974080000       0.0%    100.0%      0.0%
 flops    20 x    20 x   292         410598720000       0.0%    100.0%      0.0%
 flops     5 x     5 x   320         541929600000       0.0%    100.0%      0.0%
 flops     5 x    13 x   320         611956800000       0.0%    100.0%      0.0%
 flops    13 x     5 x   320         613042560000       0.0%    100.0%      0.0%
 flops    20 x    13 x   320         617086080000       0.0%    100.0%      0.0%
 flops    13 x    20 x   320         617610240000       0.0%    100.0%      0.0%
 flops    13 x    13 x   320         656147232000       0.0%    100.0%      0.0%
 flops    20 x     5 x   320         677779200000       0.0%    100.0%      0.0%
 flops     5 x    20 x   320         678355200000       0.0%    100.0%      0.0%
 flops    20 x    20 x   320        2699827200000       0.0%    100.0%      0.0%
 flops inhomo. stacks                           0       0.0%      0.0%      0.0%
 flops total                        10.043925E+12       0.0%    100.0%      0.0%
 flops max/rank                    162.990375E+09       0.0%    100.0%      0.0%
 matmuls inhomo. stacks                         0       0.0%      0.0%      0.0%
 matmuls total                          144720000       0.0%    100.0%      0.0%
 number of processed stacks                384000       0.0%    100.0%      0.0%
 average stack size                                     0.0     376.9       0.0
 marketing flops                    28.545655E+12
 -------------------------------------------------------------------------------
 # multiplications                             75
 max memory usage/rank               1.868546E+09
 # max total images/rank                        1
 # max 3D layers                                1
 # MPI messages exchanged                   67200
 MPI messages size (bytes):
  total size                       201.809920E+09
  min size                           2.762496E+06
  max size                           3.077120E+06
  average size                       3.003124E+06
 MPI breakdown and total messages size (bytes):
             size <=      128                   0                        0
       128 < size <=     8192                   0                        0
      8192 < size <=    32768                   0                        0
     32768 < size <=   131072                   0                        0
    131072 < size <=  4194304               67200             201810000000
   4194304 < size <= 16777216                   0                        0
  16777216 < size                               0                        0
 -------------------------------------------------------------------------------
 -                                                                             -
 -                      DBCSR MESSAGE PASSING PERFORMANCE                      -
 -                                                                             -
 -------------------------------------------------------------------------------
 ROUTINE             CALLS      AVE VOLUME [Bytes]
 MP_Bcast               28                     12.
 MP_Allreduce          599                     10.
 MP_Alltoall          2100                1979369.
 MP_ISend             2400                1329597.
 MP_IRecv             2400                1310413.
 -------------------------------------------------------------------------------

 -------------------------------------------------------------------------------
 -                                                                             -
 -                                DBM STATISTICS                               -
 -                                                                             -
 -------------------------------------------------------------------------------
    M  x    N  x    K                                          COUNT     PERCENT
 -------------------------------------------------------------------------------

 -------------------------------------------------------------------------------
 -                                                                             -
 -                                GRID STATISTICS                              -
 -                                                                             -
 -------------------------------------------------------------------------------
 LP    KERNEL             BACKEND                              COUNT     PERCENT
 3     collocate general  REF                               52137750      18.91%
 3     integrate general  REF                               51500564      18.68%
 2     collocate general  REF                               48936600      17.75%
 2     integrate general  REF                               48284112      17.51%
 4     collocate general  REF                               36646350      13.29%
 4     integrate general  REF                               36157732      13.12%
 6     integrate general  REF                                 695170       0.25%
 5     integrate general  REF                                 652488       0.24%
 7     integrate general  REF                                 488618       0.18%
 0     collocate general  REF                                 115968       0.04%
 0     integrate general  REF                                  57984       0.02%
 -------------------------------------------------------------------------------

 MEMORY| Estimated peak process memory [MiB]                                2097

 -------------------------------------------------------------------------------
 ----                             MULTIGRID INFO                            ----
 -------------------------------------------------------------------------------
 count for grid        1:         730775          cutoff [a.u.]          200.00
 count for grid        2:         806713          cutoff [a.u.]           66.67
 count for grid        3:         741091          cutoff [a.u.]           22.22
 count for grid        4:         830867          cutoff [a.u.]            7.41
 total gridlevel count  :        3109446

 -------------------------------------------------------------------------------
 -                                                                             -
 -                         MESSAGE PASSING PERFORMANCE                         -
 -                                                                             -
 -------------------------------------------------------------------------------

 ROUTINE             CALLS      AVE VOLUME [Bytes]
 MP_Group                4
 MP_Bcast              250                2361462.
 MP_Allreduce         1299                   1926.
 MP_Sync                78
 MP_Alltoall          1666               13693217.
 MP_SendRecv           252                  13830.
 MP_ISendRecv        18900                 113680.
 MP_Wait             42308
 MP_ISend            21888                 340249.
 MP_IRecv            21888                 340249.
 MP_Recv               308                2460160.
 MP_Write_All            3                1540656.
 -------------------------------------------------------------------------------


 -------------------------------------------------------------------------------
 -                                                                             -
 -                           R E F E R E N C E S                               -
 -                                                                             -
 -------------------------------------------------------------------------------
 
 CP2K version 2022.1, the CP2K developers group (2022).
 CP2K is freely available from https://www.cp2k.org/ .

 Kuehne,Thomas D.; Iannuzzi,Marcella; Del Ben,Mauro;
 Rybkin,Vladimir V.; Seewald,Patrick; Stein,Frederick; Laino,Teodoro;
 Khaliullin,Rustam Z.; Schuett,Ole; Schiffmann,Florian; Golze,Dorothea;
 Wilhelm,Jan; Chulkov,Sergey; Bani-Hashemian,Mohammad Hossein;
 Weber,Valery; Borstnik,Urban; Taillefumier,Mathieu;
 Jakobovits,Alice Shoshana; Lazzaro,Alfio; Pabst,Hans; Mueller,Tiziano;
 Schade,Robert; Guidon,Manuel; Andermatt,Samuel; Holmberg,Nico;
 Schenter,Gregory K.; Hehn,Anna; Bussy,Augustin; Belleflamme,Fabian;
 Tabacchi,Gloria; Gloess,Andreas; Lass,Michael; Bethune,Iain;
 Mundy,Christopher J.; Plessl,Christian; Watkins,Matt;
 VandeVondele,Joost; Krack,Matthias; Hutter,Juerg. 
 The Journal of Chemical Physics, 152 (19), (2020). 
 CP2K: An electronic structure and molecular dynamics software package -
 Quickstep: Efficient and accurate electronic structure calculations.
 https://doi.org/10.1063/5.0007045

 Goerigk, Lars; Hansen, Andreas; Bauer, Christoph; Ehrlich, Stephan;
 Najibi, Asim; Grimme, Stefan. , 19 (48), (2017). 
 A look at the density functional theory zoo with the advanced GMTKN55 database
 for general main group thermochemistry, kinetics and noncovalent interactions.
 https://doi.org/10.1039/C7CP04913G

 Schuett, Ole; Messmer, Peter; Hutter, Juerg; VandeVondele, Joost. 
 Electronic Structure Calculations on Graphics Processing Units, John
 Wiley & Sons, Ltd, 173-190 (2016). 
 GPU-Accelerated Sparse Matrix-Matrix Multiplication for
 Linear Scaling Density Functional Theory.
 https://doi.org/10.1002/9781118670712.ch8

 Heinecke, A; Henry, G; Hutchinson, M; Pabst, H. 
 Proceedings of Intl. Supercomputing Conference, 981-991 (2016). 
 LIBXSMM: Accelerating Small Matrix Multiplications
 by Runtime Code Generation.
 https://doi.org/10.1109/SC.2016.83

 Borstnik, U; VandeVondele, J; Weber, V; Hutter, J. 
 PARALLEL COMPUTING, 40 (5-6), 47-58 (2014). 
 Sparse matrix multiplication: The distributed block-compressed sparse
 row library.
 https://doi.org/10.1016/j.parco.2014.03.012

 Hutter, J; Iannuzzi, M; Schiffmann, F; VandeVondele, J. 
 WIREs Comput Mol Sci., 4 (1), 15-25 (2014). 
 CP2K: atomistic simulations of condensed matter systems.
 https://doi.org/10.1002/wcms.1159

 Marek, A; Blum, V; Johanni, R; Havu, V; Lang, B; Auckenthaler, T;
 Heinecke, A; Bungartz, H; Lederer, H. 
 Journal of Physics: Condensed Matter, 26 (21), (2014). 
 The ELPA library: scalable parallel eigenvalue solutions for
 electronic structure
 theory and computational science.
 https://doi.org/10.1088/0953-8984/26/21/213201

 Grimme, S; Ehrlich, S; Goerigk, L. 
 JOURNAL OF COMPUTATIONAL CHEMISTRY, 32, 1456 (2011). 
 Effect of the damping function in dispersion corrected density functional theory.
 https://doi.org/10.1002/jcc.21759

 Grimme, S; Antony, J; Ehrlich, S; Krieg, H. 
 JOURNAL OF CHEMICAL PHYSICS, 132 (15), 154104 (2010). 
 A consistent and accurate ab initio parametrization of density
 functional dispersion correction (DFT-D) for the 94 elements H-Pu.
 https://doi.org/10.1063/1.3382344

 VandeVondele, J; Hutter, J. 
 JOURNAL OF CHEMICAL PHYSICS, 127 (11), 114105 (2007). 
 Gaussian basis sets for accurate calculations on molecular systems in
 gas and condensed phases.
 https://doi.org/10.1063/1.2770708

 Krack, M. 
 THEORETICAL CHEMISTRY ACCOUNTS, 114 (1-3), 145-152 (2005). 
 Pseudopotentials for H to Kr optimized for gradient-corrected
 exchange-correlation functionals.
 https://doi.org/10.1007/s00214-005-0655-y

 VandeVondele, J; Krack, M; Mohamed, F; Parrinello, M; Chassaing, T;
 Hutter, J. COMPUTER PHYSICS COMMUNICATIONS, 167 (2), 103-128 (2005). 
 QUICKSTEP: Fast and accurate density functional calculations using a
 mixed Gaussian and plane waves approach.
 https://doi.org/10.1016/j.cpc.2004.12.014

 Frigo, M; Johnson, SG. 
 PROCEEDINGS OF THE IEEE, 93 (2), 216-231 (2005). 
 The design and implementation of FFTW3.
 https://doi.org/10.1109/JPROC.2004.840301

 Hartwigsen, C; Goedecker, S; Hutter, J. 
 PHYSICAL REVIEW B, 58 (7), 3641-3662 (1998). 
 Relativistic separable dual-space Gaussian pseudopotentials from H to Rn.
 https://doi.org/10.1103/PhysRevB.58.3641

 Lippert, G; Hutter, J; Parrinello, M. 
 MOLECULAR PHYSICS, 92 (3), 477-487 (1997). 
 A hybrid Gaussian and plane wave density functional scheme.
 https://doi.org/10.1080/002689797170220

 Perdew, JP; Burke, K; Ernzerhof, M. 
 PHYSICAL REVIEW LETTERS, 77 (18), 3865-3868 (1996). 
 Generalized gradient approximation made simple.
 https://doi.org/10.1103/PhysRevLett.77.3865

 Goedecker, S; Teter, M; Hutter, J. 
 PHYSICAL REVIEW B, 54 (3), 1703-1710 (1996). 
 Separable dual-space Gaussian pseudopotentials.
 https://doi.org/10.1103/PhysRevB.54.1703


 -------------------------------------------------------------------------------
 -                                                                             -
 -                                T I M I N G                                  -
 -                                                                             -
 -------------------------------------------------------------------------------
 SUBROUTINE                       CALLS  ASD         SELF TIME        TOTAL TIME
                                MAXIMUM       AVERAGE  MAXIMUM  AVERAGE  MAXIMUM
 CP2K                                 1  1.0    0.026    0.037  887.573  887.574
 qs_forces                            1  2.0    0.002    0.003  887.143  887.145
 qs_energies                          1  3.0    0.000    0.001  874.708  874.716
 scf_env_do_scf                       1  4.0    0.000    0.000  866.426  866.675
 scf_env_do_scf_inner_loop           74  5.0    0.004    0.012  866.426  866.675
 qs_scf_new_mos                      74  6.0    0.004    0.009  353.581  354.054
 eigensolver                         74  7.0    0.007    0.010  328.660  329.063
 rebuild_ks_matrix                   75  7.0    0.000    0.000  273.987  274.029
 qs_ks_build_kohn_sham_matrix        75  8.0    0.012    0.013  273.987  274.029
 qs_ks_update_qs_env                 74  6.0    0.001    0.001  265.999  266.042
 qs_rho_update_rho_low               75  6.0    0.001    0.001  233.940  233.970
 calculate_rho_elec                  75  7.0    0.176    0.226  233.940  233.969
 sum_up_and_integrate                75  9.0    0.314    0.382  230.113  230.171
 integrate_v_rspace                  75 10.0    0.003    0.003  229.799  229.885
 grid_collocate_task_list            75  8.0  205.690  211.370  205.690  211.370
 grid_integrate_task_list            75 11.0  200.693  205.758  200.693  205.758
 cp_fm_diag_elpa                     74  8.0    0.001    0.001  192.741  193.208
 cp_fm_diag_elpa_base                74  9.0  189.795  190.506  192.426  192.493
 cp_fm_triangular_multiply          222  8.0  133.192  134.965  133.192  134.965
 pw_transfer                       1500 10.9    0.106    0.161   41.247   42.151
 fft_wrap_pw1pw2                   1350 12.0    0.013    0.018   40.775   41.641
 rs_pw_transfer                     604 10.5    0.007    0.008   36.289   41.070
 fft_wrap_pw1pw2_200                900 13.3    3.695    4.003   39.282   40.098
 qs_vxc_create                       75  9.0    0.002    0.003   38.668   38.890
 xc_vxc_pw_create                    75 10.0    0.687    0.726   38.665   38.888
 fft3d_ps                          1350 14.0   14.877   16.828   30.053   31.120
 density_rs2pw                       75  8.0    0.005    0.006   25.813   30.480
 xc_pw_derive                       450 12.0    0.008    0.008   24.624   25.760
 xc_rho_set_and_dset_create          75 11.0    0.364    0.390   20.823   22.202
 potential_pw2rs                     75 11.0    0.028    0.034   21.622   21.700
 mp_waitany                       21888 12.4   15.477   20.661   15.477   20.661
 rs_pw_transfer_RS2PW_200            77 10.0    4.869    5.384   14.300   19.018
 calculate_dm_sparse                 74  7.0    0.023    0.030   18.121   18.887
 cp_dbcsr_plus_fm_fm_t_native        75  8.0    0.004    0.009   18.086   18.879
 -------------------------------------------------------------------------------

 The number of warnings for this run is : 1
 
 -------------------------------------------------------------------------------
  **** **** ******  **  PROGRAM ENDED AT                 2023-11-26 22:00:53.905
 ***** ** ***  *** **   PROGRAM RAN ON                                     cu054
 **    ****   ******    PROGRAM RAN BY                                     jxzhu
 ***** **    ** ** **   PROGRAM PROCESS ID                                 25624
  **** **  *******  **  PROGRAM STOPPED IN /public/home/jxzhu/tmp_calc/af2075565
                                           805657d94fa4669dad6f4b174b0a4fb/calc/
                                           001600.000/pbc
