 DBCSR| CPU Multiplication driver                                           XSMM
 DBCSR| Multrec recursion limit                                              512
 DBCSR| Multiplication stack size                                           1000
 DBCSR| Maximum elements for images                                    UNLIMITED
 DBCSR| Multiplicative factor virtual images                                   1
 DBCSR| Use multiplication densification                                       T
 DBCSR| Multiplication size stacks                                             3
 DBCSR| Use memory pool for CPU allocation                                     F
 DBCSR| Number of 3D layers                                               SINGLE
 DBCSR| Use MPI memory allocation                                              F
 DBCSR| Use RMA algorithm                                                      F
 DBCSR| Use Communication thread                                               T
 DBCSR| Communication thread load                                             87
 DBCSR| MPI: My node id                                                        0
 DBCSR| MPI: Number of nodes                                                 128
 DBCSR| OMP: Current number of threads                                         1
 DBCSR| OMP: Max number of threads                                             1
 DBCSR| Split modifier for TAS multiplication algorithm                  1.0E+00


  **** **** ******  **  PROGRAM STARTED AT               2023-12-02 22:08:05.105
 ***** ** ***  *** **   PROGRAM STARTED ON                                 cu081
 **    ****   ******    PROGRAM STARTED BY                                 jxzhu
 ***** **    ** ** **   PROGRAM PROCESS ID                                  2286
  **** **  *******  **  PROGRAM STARTED IN /public/home/jxzhu/tmp_calc/14f02fc6d
                                           ce90570e6453e03351c9e224a45fe9a/calc/
                                           002200.000/search_lo.000000

 CP2K| version string:                                       CP2K version 2022.1
 CP2K| source code revision number:                                  git:2caeb6f
 CP2K| cp2kflags: omp libint fftw3 libxc elpa parallel mpi3 scalapack cosma xsmm
 CP2K|             plumed2 spglib mkl sirius libvori libbqb
 CP2K| is freely available from                            https://www.cp2k.org/
 CP2K| Program compiled at                           Mon Jul 3 17:37:06 CST 2023
 CP2K| Program compiled on                                                 mu003
 CP2K| Program compiled for                                                local
 CP2K| Data directory path                             /public/home/jxzhu/basis/
 CP2K| Input file name                                                 input.inp
 
 GLOBAL| Force Environment number                                              1
 GLOBAL| Basis set file name                                        BASIS_MOLOPT
 GLOBAL| Potential file name                                      GTH_POTENTIALS
 GLOBAL| MM Potential file name                                     MM_POTENTIAL
 GLOBAL| Coordinate file name                                          coord.xyz
 GLOBAL| Method name                                                        CP2K
 GLOBAL| Project name                                                       cp2k
 GLOBAL| Run type                                                   ENERGY_FORCE
 GLOBAL| FFT library                                                       FFTW3
 GLOBAL| Diagonalization library                                            ELPA
 GLOBAL| Minimum number of eigenvectors for ELPA usage                        16
 GLOBAL| Orthonormality check for eigenvectors                          DISABLED
 GLOBAL| Matrix multiplication library                                     COSMA
 GLOBAL| All-to-all communication in single precision                          F
 GLOBAL| FFTs using library dependent lengths                                  T
 GLOBAL| Grid backend                                                       AUTO
 GLOBAL| Global print level                                               MEDIUM
 GLOBAL| MPI I/O enabled                                                       T
 GLOBAL| Total number of message passing processes                           128
 GLOBAL| Number of threads for this process                                    1
 GLOBAL| This output is from process                                           0
 GLOBAL| Stack size for threads created by OpenMP (OMP_STACKSIZE)        default
 GLOBAL| CPU model name                 Intel(R) Xeon(R) Gold 6338 CPU @ 2.00GHz
 GLOBAL| CPUID                                                              1003

 MEMORY| system memory details [Kb]
 MEMORY|                        rank 0           min           max       average
 MEMORY| MemTotal            263619172     263619172     263619172     263619172
 MEMORY| MemFree             215316336     214138576     215316336     214727647
 MEMORY| Buffers                  3320            44          3320          1682
 MEMORY| Cached                1156460        786832       1156460        971646
 MEMORY| Slab                  1371000       1343528       1371000       1357264
 MEMORY| SReclaimable           239132        222620        239132        230876
 MEMORY| MemLikelyFree       216715248     215148072     216715248     215931851


 *** Fundamental physical constants (SI units) ***

 *** Literature: B. J. Mohr and B. N. Taylor,
 ***             CODATA recommended values of the fundamental physical
 ***             constants: 2006, Web Version 5.1
 ***             http://physics.nist.gov/constants

 Speed of light in vacuum [m/s]                             2.99792458000000E+08
 Magnetic constant or permeability of vacuum [N/A**2]       1.25663706143592E-06
 Electric constant or permittivity of vacuum [F/m]          8.85418781762039E-12
 Planck constant (h) [J*s]                                  6.62606896000000E-34
 Planck constant (h-bar) [J*s]                              1.05457162825177E-34
 Elementary charge [C]                                      1.60217648700000E-19
 Electron mass [kg]                                         9.10938215000000E-31
 Electron g factor [ ]                                     -2.00231930436220E+00
 Proton mass [kg]                                           1.67262163700000E-27
 Fine-structure constant                                    7.29735253760000E-03
 Rydberg constant [1/m]                                     1.09737315685270E+07
 Avogadro constant [1/mol]                                  6.02214179000000E+23
 Boltzmann constant [J/K]                                   1.38065040000000E-23
 Atomic mass unit [kg]                                      1.66053878200000E-27
 Bohr radius [m]                                            5.29177208590000E-11

 *** Conversion factors ***

 [u] -> [a.u.]                                              1.82288848426455E+03
 [Angstrom] -> [Bohr] = [a.u.]                              1.88972613288564E+00
 [a.u.] = [Bohr] -> [Angstrom]                              5.29177208590000E-01
 [a.u.] -> [s]                                              2.41888432650478E-17
 [a.u.] -> [fs]                                             2.41888432650478E-02
 [a.u.] -> [J]                                              4.35974393937059E-18
 [a.u.] -> [N]                                              8.23872205491840E-08
 [a.u.] -> [K]                                              3.15774647902944E+05
 [a.u.] -> [kJ/mol]                                         2.62549961709828E+03
 [a.u.] -> [kcal/mol]                                       6.27509468713739E+02
 [a.u.] -> [Pa]                                             2.94210107994716E+13
 [a.u.] -> [bar]                                            2.94210107994716E+08
 [a.u.] -> [atm]                                            2.90362800883016E+08
 [a.u.] -> [eV]                                             2.72113838565563E+01
 [a.u.] -> [Hz]                                             6.57968392072181E+15
 [a.u.] -> [1/cm] (wave numbers)                            2.19474631370540E+05
 [a.u./Bohr**2] -> [1/cm]                                   5.14048714338585E+03
 

 CELL_TOP| Volume [angstrom^3]:                                     17614.982639
 CELL_TOP| Vector a [angstrom    16.869     0.000     0.000   |a| =    16.869000
 CELL_TOP| Vector b [angstrom    -8.434    14.609     0.000   |b| =    16.869015
 CELL_TOP| Vector c [angstrom     0.000     0.000    71.478   |c| =    71.478000
 CELL_TOP| Angle (b,c), alpha [degree]:                                90.000000
 CELL_TOP| Angle (a,c), beta  [degree]:                                90.000000
 CELL_TOP| Angle (a,b), gamma [degree]:                               119.999970
 CELL_TOP| Numerically orthorhombic:                                          NO
 
 GENERATE|  Preliminary Number of Bonds generated:                             0
 GENERATE|  Achieved consistency in connectivity generation.

 CELL| Volume [angstrom^3]:                                         17614.982639
 CELL| Vector a [angstrom]:      16.869     0.000     0.000   |a| =    16.869000
 CELL| Vector b [angstrom]:      -8.434    14.609     0.000   |b| =    16.869015
 CELL| Vector c [angstrom]:       0.000     0.000    71.478   |c| =    71.478000
 CELL| Angle (b,c), alpha [degree]:                                    90.000000
 CELL| Angle (a,c), beta  [degree]:                                    90.000000
 CELL| Angle (a,b), gamma [degree]:                                   119.999970
 CELL| Numerically orthorhombic:                                              NO

 CELL_REF| Volume [angstrom^3]:                                     17614.982639
 CELL_REF| Vector a [angstrom    16.869     0.000     0.000   |a| =    16.869000
 CELL_REF| Vector b [angstrom    -8.434    14.609     0.000   |b| =    16.869015
 CELL_REF| Vector c [angstrom     0.000     0.000    71.478   |c| =    71.478000
 CELL_REF| Angle (b,c), alpha [degree]:                                90.000000
 CELL_REF| Angle (a,c), beta  [degree]:                                90.000000
 CELL_REF| Angle (a,b), gamma [degree]:                               119.999970
 CELL_REF| Numerically orthorhombic:                                          NO

 *******************************************************************************
 *******************************************************************************
 **                                                                           **
 **     #####                         ##              ##                      **
 **    ##   ##            ##          ##              ##                      **
 **   ##     ##                       ##            ######                    **
 **   ##     ##  ##   ##  ##   #####  ##  ##   ####   ##    #####    #####    **
 **   ##     ##  ##   ##  ##  ##      ## ##   ##      ##   ##   ##  ##   ##   **
 **   ##  ## ##  ##   ##  ##  ##      ####     ###    ##   ######   ######    **
 **    ##  ###   ##   ##  ##  ##      ## ##      ##   ##   ##       ##        **
 **     #######   #####   ##   #####  ##  ##  ####    ##    #####   ##        **
 **           ##                                                    ##        **
 **                                                                           **
 **                                                ... make the atoms dance   **
 **                                                                           **
 **            Copyright (C) by CP2K developers group (2000-2022)             **
 **                      J. Chem. Phys. 152, 194103 (2020)                    **
 **                                                                           **
 *******************************************************************************

 DFT| Spin restricted Kohn-Sham (RKS) calculation                            RKS
 DFT| Multiplicity                                                             1
 DFT| Number of spin states                                                    1
 DFT| Charge                                                                   0
 DFT| Self-interaction correction (SIC)                                       NO
 DFT| Cutoffs: density                                              1.000000E-10
 DFT|          gradient                                             1.000000E-10
 DFT|          tau                                                  1.000000E-10
 DFT|          cutoff_smoothing_range                               0.000000E+00
 DFT| XC density smoothing                                                  NONE
 DFT| XC derivatives                                                          PW

 FUNCTIONAL| PBE:
 FUNCTIONAL| J.P.Perdew, K.Burke, M.Ernzerhof, Phys. Rev. Letter, vol. 77, n 18,
 FUNCTIONAL|  pp. 3865-3868, (1996){spin unpolarized}                           

 vdW POTENTIAL|                                                   Pair Potential
 vdW POTENTIAL|          DFT-D3 (Version 3.1)
 vdW POTENTIAL|          Potential Form: S. Grimme et al, JCP 132: 154104 (2010)
 vdW POTENTIAL|          Zero Damping
 vdW POTENTIAL|          Cutoff Radius [Bohr]:                             20.00
 vdW POTENTIAL|          s6 Scaling Factor:                               1.0000
 vdW POTENTIAL|          sr6 Scaling Factor:                              1.2170
 vdW POTENTIAL|          s8 Scaling Factor:                               0.7220
 vdW POTENTIAL|          Cutoff for CN calculation:                   0.1000E-05

 QS| Method:                                                                 GPW
 QS| Density plane wave grid type                        NON-SPHERICAL FULLSPACE
 QS| Number of grid levels:                                                    4
 QS| Density cutoff [a.u.]:                                                200.0
 QS| Multi grid cutoff [a.u.]: 1) grid level                               200.0
 QS|                           2) grid level                                66.7
 QS|                           3) grid level                                22.2
 QS|                           4) grid level                                 7.4
 QS| Grid level progression factor:                                          3.0
 QS| Relative density cutoff [a.u.]:                                        20.0
 QS| Interaction thresholds: eps_pgf_orb:                                3.2E-07
 QS|                         eps_filter_matrix:                          0.0E+00
 QS|                         eps_core_charge:                            1.0E-15
 QS|                         eps_rho_gspace:                             1.0E-13
 QS|                         eps_rho_rspace:                             1.0E-13
 QS|                         eps_gvg_rspace:                             3.2E-07
 QS|                         eps_ppl:                                    1.0E-02
 QS|                         eps_ppnl:                                   3.2E-09


 ATOMIC KIND INFORMATION

  1. Atomic kind: O                                     Number of atoms:     102

     Orbital Basis Set                                        DZVP-MOLOPT-SR-GTH

       Number of orbital shell sets:                                           1
       Number of orbital shells:                                               5
       Number of primitive Cartesian functions:                                5
       Number of Cartesian basis functions:                                   14
       Number of spherical basis functions:                                   13
       Norm type:                                                              2

       Normalised Cartesian orbitals:

                        Set   Shell   Orbital            Exponent    Coefficient

                          1       1    2s               10.389228       0.396646
                                                         3.849621       0.208811
                                                         1.388401      -0.301641
                                                         0.496955      -0.274061
                                                         0.162492      -0.033677

                          1       2    3s               10.389228       0.303673
                                                         3.849621       0.240943
                                                         1.388401      -0.313066
                                                         0.496955      -0.043055
                                                         0.162492       0.213991

                          1       3    3px              10.389228      -1.530415
                                                         3.849621      -1.371928
                                                         1.388401      -0.761951
                                                         0.496955      -0.253695
                                                         0.162492      -0.035541
                          1       3    3py              10.389228      -1.530415
                                                         3.849621      -1.371928
                                                         1.388401      -0.761951
                                                         0.496955      -0.253695
                                                         0.162492      -0.035541
                          1       3    3pz              10.389228      -1.530415
                                                         3.849621      -1.371928
                                                         1.388401      -0.761951
                                                         0.496955      -0.253695
                                                         0.162492      -0.035541

                          1       4    4px              10.389228      -0.565392
                                                         3.849621      -0.038231
                                                         1.388401      -0.382373
                                                         0.496955       0.179070
                                                         0.162492       0.122714
                          1       4    4py              10.389228      -0.565392
                                                         3.849621      -0.038231
                                                         1.388401      -0.382373
                                                         0.496955       0.179070
                                                         0.162492       0.122714
                          1       4    4pz              10.389228      -0.565392
                                                         3.849621      -0.038231
                                                         1.388401      -0.382373
                                                         0.496955       0.179070
                                                         0.162492       0.122714

                          1       5    4dx2             10.389228       1.867377
                                                         3.849621       0.670994
                                                         1.388401       1.353441
                                                         0.496955       0.273538
                                                         0.162492       0.006620
                          1       5    4dxy             10.389228       3.234392
                                                         3.849621       1.162195
                                                         1.388401       2.344229
                                                         0.496955       0.473781
                                                         0.162492       0.011466
                          1       5    4dxz             10.389228       3.234392
                                                         3.849621       1.162195
                                                         1.388401       2.344229
                                                         0.496955       0.473781
                                                         0.162492       0.011466
                          1       5    4dy2             10.389228       1.867377
                                                         3.849621       0.670994
                                                         1.388401       1.353441
                                                         0.496955       0.273538
                                                         0.162492       0.006620
                          1       5    4dyz             10.389228       3.234392
                                                         3.849621       1.162195
                                                         1.388401       2.344229
                                                         0.496955       0.473781
                                                         0.162492       0.011466
                          1       5    4dz2             10.389228       1.867377
                                                         3.849621       0.670994
                                                         1.388401       1.353441
                                                         0.496955       0.273538
                                                         0.162492       0.006620

       Atomic covalent radius [Angstrom]:                                  0.730

       Atomic van der Waals radius [Angstrom]:                             1.520

     GTH Potential information for                                    GTH-PBE-q6

       Description:                       Goedecker-Teter-Hutter pseudopotential
                                           Goedecker et al., PRB 54, 1703 (1996)
                                          Hartwigsen et al., PRB 58, 3641 (1998)
                                                      Krack, TCA 114, 145 (2005)

       Gaussian exponent of the core charge distribution:               8.360253
       Electronic configuration (s p d ...):                               2   4

       Parameters of the local part of the GTH pseudopotential:

                          rloc        C1          C2          C3          C4
                        0.244554  -16.667215    2.487311

       Parameters of the non-local part of the GTH pseudopotential:

                   l      r(l)      h(i,j,l)

                   0    0.220956   18.337458
                   1    0.211332

  2. Atomic kind: H                                     Number of atoms:     204

     Orbital Basis Set                                        DZVP-MOLOPT-SR-GTH

       Number of orbital shell sets:                                           1
       Number of orbital shells:                                               3
       Number of primitive Cartesian functions:                                5
       Number of Cartesian basis functions:                                    5
       Number of spherical basis functions:                                    5
       Norm type:                                                              2

       Normalised Cartesian orbitals:

                        Set   Shell   Orbital            Exponent    Coefficient

                          1       1    2s               10.068468      -0.133023
                                                         2.680223      -0.177618
                                                         0.791502      -0.258419
                                                         0.239116      -0.107525
                                                         0.082193      -0.014019

                          1       2    3s               10.068468       0.344673
                                                         2.680223       1.819821
                                                         0.791502      -0.999069
                                                         0.239116       0.017430
                                                         0.082193       0.082660

                          1       3    3px              10.068468       0.155326
                                                         2.680223       0.367157
                                                         0.791502       0.311480
                                                         0.239116       0.080105
                                                         0.082193       0.033440
                          1       3    3py              10.068468       0.155326
                                                         2.680223       0.367157
                                                         0.791502       0.311480
                                                         0.239116       0.080105
                                                         0.082193       0.033440
                          1       3    3pz              10.068468       0.155326
                                                         2.680223       0.367157
                                                         0.791502       0.311480
                                                         0.239116       0.080105
                                                         0.082193       0.033440

       Atomic covalent radius [Angstrom]:                                  0.320

       Atomic van der Waals radius [Angstrom]:                             1.090

     GTH Potential information for                                    GTH-PBE-q1

       Description:                       Goedecker-Teter-Hutter pseudopotential
                                           Goedecker et al., PRB 54, 1703 (1996)
                                          Hartwigsen et al., PRB 58, 3641 (1998)
                                                      Krack, TCA 114, 145 (2005)

       Gaussian exponent of the core charge distribution:              12.500000
       Electronic configuration (s p d ...):                                   1

       Parameters of the local part of the GTH pseudopotential:

                          rloc        C1          C2          C3          C4
                        0.200000   -4.178900    0.724463

  3. Atomic kind: Pt                                    Number of atoms:     216

     Orbital Basis Set                      DZVP-A5-Q10-323-MOL-T1-DERIVED_SET-1

       Number of orbital shell sets:                                           1
       Number of orbital shells:                                               6
       Number of primitive Cartesian functions:                                5
       Number of Cartesian basis functions:                                   23
       Number of spherical basis functions:                                   20
       Norm type:                                                              2

       Normalised Cartesian orbitals:

                        Set   Shell   Orbital            Exponent    Coefficient

                          1       1    2s                2.521825       0.177473
                                                         1.453920      -0.063399
                                                         0.614053      -0.407089
                                                         0.232656       0.262254
                                                         0.074788       0.047371

                          1       2    3s                2.521825      -0.049056
                                                         1.453920       0.044904
                                                         0.614053      -0.009756
                                                         0.232656      -0.144709
                                                         0.074788       0.144085

                          1       3    3px               2.521825      -0.317572
                                                         1.453920       0.534826
                                                         0.614053      -0.489458
                                                         0.232656       0.245631
                                                         0.074788       0.018221
                          1       3    3py               2.521825      -0.317572
                                                         1.453920       0.534826
                                                         0.614053      -0.489458
                                                         0.232656       0.245631
                                                         0.074788       0.018221
                          1       3    3pz               2.521825      -0.317572
                                                         1.453920       0.534826
                                                         0.614053      -0.489458
                                                         0.232656       0.245631
                                                         0.074788       0.018221

                          1       4    4dx2              2.521825       3.008522
                                                         1.453920      -1.224251
                                                         0.614053       0.225691
                                                         0.232656       0.125144
                                                         0.074788      -0.015348
                          1       4    4dxy              2.521825       5.210912
                                                         1.453920      -2.120465
                                                         0.614053       0.390909
                                                         0.232656       0.216756
                                                         0.074788      -0.026584
                          1       4    4dxz              2.521825       5.210912
                                                         1.453920      -2.120465
                                                         0.614053       0.390909
                                                         0.232656       0.216756
                                                         0.074788      -0.026584
                          1       4    4dy2              2.521825       3.008522
                                                         1.453920      -1.224251
                                                         0.614053       0.225691
                                                         0.232656       0.125144
                                                         0.074788      -0.015348
                          1       4    4dyz              2.521825       5.210912
                                                         1.453920      -2.120465
                                                         0.614053       0.390909
                                                         0.232656       0.216756
                                                         0.074788      -0.026584
                          1       4    4dz2              2.521825       3.008522
                                                         1.453920      -1.224251
                                                         0.614053       0.225691
                                                         0.232656       0.125144
                                                         0.074788      -0.015348

                          1       5    5dx2              2.521825       0.698026
                                                         1.453920      -1.511486
                                                         0.614053      -0.335394
                                                         0.232656      -0.025564
                                                         0.074788      -0.002699
                          1       5    5dxy              2.521825       1.209017
                                                         1.453920      -2.617970
                                                         0.614053      -0.580920
                                                         0.232656      -0.044277
                                                         0.074788      -0.004674
                          1       5    5dxz              2.521825       1.209017
                                                         1.453920      -2.617970
                                                         0.614053      -0.580920
                                                         0.232656      -0.044277
                                                         0.074788      -0.004674
                          1       5    5dy2              2.521825       0.698026
                                                         1.453920      -1.511486
                                                         0.614053      -0.335394
                                                         0.232656      -0.025564
                                                         0.074788      -0.002699
                          1       5    5dyz              2.521825       1.209017
                                                         1.453920      -2.617970
                                                         0.614053      -0.580920
                                                         0.232656      -0.044277
                                                         0.074788      -0.004674
                          1       5    5dz2              2.521825       0.698026
                                                         1.453920      -1.511486
                                                         0.614053      -0.335394
                                                         0.232656      -0.025564
                                                         0.074788      -0.002699

                          1       6    6dx2              2.521825       0.831079
                                                         1.453920      -0.709226
                                                         0.614053      -0.137351
                                                         0.232656       0.068642
                                                         0.074788       0.011745
                          1       6    6dxy              2.521825       1.439472
                                                         1.453920      -1.228415
                                                         0.614053      -0.237899
                                                         0.232656       0.118891
                                                         0.074788       0.020343
                          1       6    6dxz              2.521825       1.439472
                                                         1.453920      -1.228415
                                                         0.614053      -0.237899
                                                         0.232656       0.118891
                                                         0.074788       0.020343
                          1       6    6dy2              2.521825       0.831079
                                                         1.453920      -0.709226
                                                         0.614053      -0.137351
                                                         0.232656       0.068642
                                                         0.074788       0.011745
                          1       6    6dyz              2.521825       1.439472
                                                         1.453920      -1.228415
                                                         0.614053      -0.237899
                                                         0.232656       0.118891
                                                         0.074788       0.020343
                          1       6    6dz2              2.521825       0.831079
                                                         1.453920      -0.709226
                                                         0.614053      -0.137351
                                                         0.232656       0.068642
                                                         0.074788       0.011745

       Atomic covalent radius [Angstrom]:                                  1.300

       Atomic van der Waals radius [Angstrom]:                             1.750

     GTH Potential information for                                   GTH-PBE-q10

       Description:                       Goedecker-Teter-Hutter pseudopotential
                                           Goedecker et al., PRB 54, 1703 (1996)
                                          Hartwigsen et al., PRB 58, 3641 (1998)
                                                      Krack, TCA 114, 145 (2005)

       Gaussian exponent of the core charge distribution:               1.317676
       Electronic configuration (s p d ...):                           1   0   9

       Parameters of the local part of the GTH pseudopotential:

                          rloc        C1          C2          C3          C4
                        0.616000   11.313635

       Parameters of the non-local part of the GTH pseudopotential:

                   l      r(l)      h(i,j,l)

                   0    0.550904    4.733491   -1.784594
                                   -1.784594    2.303901
                   1    0.674138    2.534798   -1.778066
                                   -1.778066    2.103836
                   2    0.457392   -7.264011    2.558665
                                    2.558665   -2.901253


 MOLECULE KIND INFORMATION


 All atoms are their own molecule, skipping detailed information


 TOTAL NUMBERS AND MAXIMUM NUMBERS

  Total number of            - Atomic kinds:                                   3
                             - Atoms:                                        522
                             - Shell sets:                                   522
                             - Shells:                                      2418
                             - Primitive Cartesian functions:               2610
                             - Cartesian basis functions:                   7416
                             - Spherical basis functions:                   6666

  Maximum angular momentum of- Orbital basis functions:                        2
                             - Local part of the GTH pseudopotential:          2
                             - Non-local part of the GTH pseudopotential:      4


 MODULE QUICKSTEP:  ATOMIC COORDINATES IN angstrom

 Atom  Kind  Element       X           Y           Z          Z(eff)       Mass
    1   1 O    8       3.220000   -7.180000   30.927996       6.0000     15.9994
    2   2 H    1       2.770000   -6.400001   30.427996       1.0000      1.0079
    3   2 H    1       4.210001   -7.300000   30.677996       1.0000      1.0079
    4   1 O    8      11.130000    5.410000   36.927997       6.0000     15.9994
    5   2 H    1      11.920000    4.800000   36.697997       1.0000      1.0079
    6   2 H    1      10.700001    5.820000   36.147996       1.0000      1.0079
    7   1 O    8      -1.990000  -31.870001   35.917997       6.0000     15.9994
    8   2 H    1      -1.480000  -31.940002   35.077997       1.0000      1.0079
    9   2 H    1      -1.940000  -30.890003   35.977996       1.0000      1.0079
   10   1 O    8      13.990001    7.830000   29.927996       6.0000     15.9994
   11   2 H    1      13.710001    7.560000   28.997996       1.0000      1.0079
   12   2 H    1      14.890001    7.520000   29.997997       1.0000      1.0079
   13   1 O    8      12.300000   27.470001   38.007997       6.0000     15.9994
   14   2 H    1      11.770000   27.760000   38.797996       1.0000      1.0079
   15   2 H    1      12.610001   26.560001   38.237996       1.0000      1.0079
   16   1 O    8       6.120000   29.470001   29.687996       6.0000     15.9994
   17   2 H    1       6.260000   29.250002   30.667997       1.0000      1.0079
   18   2 H    1      13.640001   15.200001   29.637996       1.0000      1.0079
   19   1 O    8     -30.050001  -32.470001   34.617997       6.0000     15.9994
   20   2 H    1     -30.880001  -32.459999   35.247996       1.0000      1.0079
   21   2 H    1     -29.990002  -33.360001   34.327996       1.0000      1.0079
   22   1 O    8      13.880000   -4.380000   37.667997       6.0000     15.9994
   23   2 H    1      13.140000   -4.790000   37.257997       1.0000      1.0079
   24   2 H    1      14.070001   -3.660000   37.067996       1.0000      1.0079
   25   1 O    8     -11.400002  -35.230003   34.467996       6.0000     15.9994
   26   2 H    1     -12.280001  -35.570000   34.167997       1.0000      1.0079
   27   2 H    1     -10.970000  -34.630001   33.787997       1.0000      1.0079
   28   1 O    8      28.600002   15.780001   32.327997       6.0000     15.9994
   29   2 H    1      29.270000   16.370001   32.777996       1.0000      1.0079
   30   2 H    1      28.790001   15.920001   31.377996       1.0000      1.0079
   31   1 O    8     -16.550001   12.490001   32.507997       6.0000     15.9994
   32   2 H    1     -15.970001   12.230001   33.357995       1.0000      1.0079
   33   2 H    1     -17.200001   11.730001   32.447996       1.0000      1.0079
   34   1 O    8      21.150000   -1.770000   32.247997       6.0000     15.9994
   35   2 H    1      20.410002   -1.230000   32.027995       1.0000      1.0079
   36   2 H    1      20.950001   -2.190000   33.157996       1.0000      1.0079
   37   1 O    8      35.520004  -24.930000   33.417997       6.0000     15.9994
   38   2 H    1      35.460003  -25.540001   32.647996       1.0000      1.0079
   39   2 H    1      53.400002  -24.750002   33.457996       1.0000      1.0079
   40   1 O    8     -12.040001   -2.340000   38.917997       6.0000     15.9994
   41   2 H    1     -11.680001   -2.180000   38.007997       1.0000      1.0079
   42   2 H    1     -12.980001   -2.010000   38.847995       1.0000      1.0079
   43   1 O    8      -1.150000  -38.730003   34.927997       6.0000     15.9994
   44   2 H    1      -1.110000  -38.890003   35.867997       1.0000      1.0079
   45   2 H    1      -1.100000  -39.630005   34.397996       1.0000      1.0079
   46   1 O    8      15.790001  -12.810000   37.107997       6.0000     15.9994
   47   2 H    1      15.920001  -13.560000   37.797998       1.0000      1.0079
   48   2 H    1      15.910001  -13.210001   36.227996       1.0000      1.0079
   49   1 O    8      -0.710000   17.050001   29.867996       6.0000     15.9994
   50   2 H    1      -1.330000   16.280001   29.657996       1.0000      1.0079
   51   2 H    1      -0.170000   17.050001   29.047996       1.0000      1.0079
   52   1 O    8       5.760000   -9.250001   33.987996       6.0000     15.9994
   53   2 H    1     -11.310000   -9.790000   34.757997       1.0000      1.0079
   54   2 H    1       4.890000   -8.810000   33.907996       1.0000      1.0079
   55   1 O    8      -0.740000    1.400000   29.847996       6.0000     15.9994
   56   2 H    1      -0.290000    0.970000   29.107996       1.0000      1.0079
   57   2 H    1      -1.680000    1.610000   29.577997       1.0000      1.0079
   58   1 O    8     -23.250000  -15.700001   30.627997       6.0000     15.9994
   59   2 H    1     -23.160002  -14.730001   30.217996       1.0000      1.0079
   60   2 H    1     -24.209999  -15.890001   30.667997       1.0000      1.0079
   61   1 O    8       0.370000    8.840000   33.727996       6.0000     15.9994
   62   2 H    1       1.420000    8.980000   33.857996       1.0000      1.0079
   63   2 H    1       0.280000    7.860000   33.687995       1.0000      1.0079
   64   1 O    8      30.190001    2.150000   30.137996       6.0000     15.9994
   65   2 H    1      30.570002    2.490000   30.977996       1.0000      1.0079
   66   2 H    1      12.480001    2.720000   30.007996       1.0000      1.0079
   67   1 O    8      -4.820000   11.750001   28.947996       6.0000     15.9994
   68   2 H    1      -5.600000   11.210001   29.177996       1.0000      1.0079
   69   2 H    1      -5.080000   12.610001   29.347996       1.0000      1.0079
   70   1 O    8      26.650002   18.030001   35.967996       6.0000     15.9994
   71   2 H    1      26.670000   16.960001   36.067996       1.0000      1.0079
   72   2 H    1      26.730001   18.200001   35.027996       1.0000      1.0079
   73   1 O    8     -35.240002    6.130000   38.717998       6.0000     15.9994
   74   2 H    1     -34.280003    6.320000   38.847995       1.0000      1.0079
   75   2 H    1     -35.480000    7.020000   38.287996       1.0000      1.0079
   76   1 O    8      15.750000   20.960003   30.437996       6.0000     15.9994
   77   2 H    1      16.650002   20.590000   30.197996       1.0000      1.0079
   78   2 H    1      15.660001   21.110001   31.467996       1.0000      1.0079
   79   1 O    8       4.490000  -12.950001   38.717998       6.0000     15.9994
   80   2 H    1       3.720000  -13.530001   38.707996       1.0000      1.0079
   81   2 H    1       4.200000  -12.600001   39.617996       1.0000      1.0079
   82   1 O    8     -10.690001   -6.140000   37.397996       6.0000     15.9994
   83   2 H    1     -11.050000   -6.290000   36.457997       1.0000      1.0079
   84   2 H    1     -18.210001    8.870000   37.177997       1.0000      1.0079
   85   1 O    8      -2.620000   24.270000   29.047996       6.0000     15.9994
   86   2 H    1      -3.080000   25.140001   29.127996       1.0000      1.0079
   87   2 H    1      -1.760000   24.300001   29.557996       1.0000      1.0079
   88   1 O    8     -14.650001   27.320002   38.707996       6.0000     15.9994
   89   2 H    1       1.720000   26.520002   38.917997       1.0000      1.0079
   90   2 H    1     -14.990001   28.060001   39.227996       1.0000      1.0079
   91   1 O    8      16.220001  -11.510000   32.777996       6.0000     15.9994
   92   2 H    1      16.260000  -11.370001   31.797997       1.0000      1.0079
   93   2 H    1      16.890001  -12.080001   33.167997       1.0000      1.0079
   94   1 O    8      -5.420001   -5.060000   34.107996       6.0000     15.9994
   95   2 H    1      -4.870000   -5.380001   33.287996       1.0000      1.0079
   96   2 H    1      -5.160000   -5.520000   34.997997       1.0000      1.0079
   97   1 O    8       9.630001  -18.810001   39.317996       6.0000     15.9994
   98   2 H    1       8.600000  -18.850000   39.517997       1.0000      1.0079
   99   2 H    1       9.790000  -19.670002   38.877996       1.0000      1.0079
  100   1 O    8       9.350000   15.240001   33.267996       6.0000     15.9994
  101   2 H    1       8.640000   15.380001   32.597996       1.0000      1.0079
  102   2 H    1      10.220001   15.450001   32.797996       1.0000      1.0079
  103   1 O    8     -21.580000   52.050003   30.097996       6.0000     15.9994
  104   2 H    1     -20.870001   52.170006   29.477996       1.0000      1.0079
  105   2 H    1     -22.450001   52.140003   29.707997       1.0000      1.0079
  106   1 O    8      12.940001   15.440001   39.137996       6.0000     15.9994
  107   2 H    1      13.610001   14.880000   39.677997       1.0000      1.0079
  108   2 H    1      13.480000   16.250002   38.887996       1.0000      1.0079
  109   1 O    8     -37.570004   -8.220000   35.827997       6.0000     15.9994
  110   2 H    1     -36.690002   -8.030001   36.317996       1.0000      1.0079
  111   2 H    1     -37.410004   -8.800000   35.067996       1.0000      1.0079
  112   1 O    8       7.930000   12.730000   29.847996       6.0000     15.9994
  113   2 H    1       8.590000   12.500000   29.107996       1.0000      1.0079
  114   2 H    1       7.180000   13.060001   29.297996       1.0000      1.0079
  115   1 O    8      21.060001    0.860000   35.927997       6.0000     15.9994
  116   2 H    1      13.180000   14.660001   35.947996       1.0000      1.0079
  117   2 H    1      20.889999    1.030000   36.857996       1.0000      1.0079
  118   1 O    8     -21.410000   -9.000000   30.617996       6.0000     15.9994
  119   2 H    1     -20.730001   -9.450001   30.037997       1.0000      1.0079
  120   2 H    1     -21.490002   -8.010000   30.397996       1.0000      1.0079
  121   1 O    8     -45.700001   13.970001   32.787997       6.0000     15.9994
  122   2 H    1     -46.639999   14.370001   32.527996       1.0000      1.0079
  123   2 H    1     -45.360001   14.680000   33.277997       1.0000      1.0079
  124   1 O    8      10.780001    0.000000   32.227996       6.0000     15.9994
  125   2 H    1      27.440002    0.310000   31.317996       1.0000      1.0079
  126   2 H    1      10.230000   -0.780000   32.297996       1.0000      1.0079
  127   1 O    8      28.700001  -10.100000   37.207998       6.0000     15.9994
  128   2 H    1      28.030003  -10.690001   36.707996       1.0000      1.0079
  129   2 H    1      29.020002   -9.410001   36.607996       1.0000      1.0079
  130   1 O    8       6.980000  -18.800001   39.657996       6.0000     15.9994
  131   2 H    1       6.440001  -19.040001   38.827997       1.0000      1.0079
  132   2 H    1       6.930000  -17.810001   39.727996       1.0000      1.0079
  133   1 O    8      26.680002   -9.320001   29.727996       6.0000     15.9994
  134   2 H    1      27.650002   -9.380000   29.997997       1.0000      1.0079
  135   2 H    1      35.290001    5.420001   28.707996       1.0000      1.0079
  136   1 O    8      10.290001    9.280001   29.467996       6.0000     15.9994
  137   2 H    1      -6.280000    9.230001   28.497996       1.0000      1.0079
  138   2 H    1       9.280001    9.130000   29.527996       1.0000      1.0079
  139   1 O    8      16.220001  -14.920001   38.527997       6.0000     15.9994
  140   2 H    1       7.250000   -0.450000   39.387996       1.0000      1.0079
  141   2 H    1      16.080000  -15.600000   37.817996       1.0000      1.0079
  142   1 O    8      -3.790000    9.450001   39.197997       6.0000     15.9994
  143   2 H    1      -4.020000   10.360001   39.057996       1.0000      1.0079
  144   2 H    1      -3.090000    9.230001   38.507997       1.0000      1.0079
  145   1 O    8     -17.360001    6.860001   30.567996       6.0000     15.9994
  146   2 H    1     -17.160000    6.610000   31.467996       1.0000      1.0079
  147   2 H    1     -16.750000    6.250000   30.097996       1.0000      1.0079
  148   1 O    8     -27.510002   17.620001   32.207996       6.0000     15.9994
  149   2 H    1     -27.720001   18.570002   32.397996       1.0000      1.0079
  150   2 H    1     -27.850000   17.160000   33.007996       1.0000      1.0079
  151   1 O    8      -8.660001    9.100000   35.717996       6.0000     15.9994
  152   2 H    1      -8.020000    9.710001   36.177997       1.0000      1.0079
  153   2 H    1      -9.510000    9.450001   36.047996       1.0000      1.0079
  154   1 O    8     -11.230000   -1.820000   35.917997       6.0000     15.9994
  155   2 H    1     -11.840000   -2.500000   35.577996       1.0000      1.0079
  156   2 H    1     -10.300001   -2.060000   35.757996       1.0000      1.0079
  157   1 O    8      -5.580000   -0.520000   35.907996       6.0000     15.9994
  158   2 H    1      -5.380001   -1.080000   36.647997       1.0000      1.0079
  159   2 H    1      -4.750000   -0.290000   35.527995       1.0000      1.0079
  160   1 O    8      19.580000   22.260000   38.897996       6.0000     15.9994
  161   2 H    1      20.389999   22.830000   39.077997       1.0000      1.0079
  162   2 H    1      19.630001   21.700001   38.097997       1.0000      1.0079
  163   1 O    8       1.550000   -2.960000   36.347996       6.0000     15.9994
  164   2 H    1       1.040000   -2.630000   35.587997       1.0000      1.0079
  165   2 H    1       1.510000   -2.280000   37.077997       1.0000      1.0079
  166   1 O    8       6.830000   15.350000   38.887996       6.0000     15.9994
  167   2 H    1       7.510000   16.030001   39.077997       1.0000      1.0079
  168   2 H    1       5.860000   15.620001   38.917997       1.0000      1.0079
  169   1 O    8      -0.110000   35.400002   33.287996       6.0000     15.9994
  170   2 H    1      -1.010000   35.150002   33.637996       1.0000      1.0079
  171   2 H    1       0.580000   34.750000   33.497997       1.0000      1.0079
  172   1 O    8      14.900002   26.220001   32.337996       6.0000     15.9994
  173   2 H    1      14.470000   26.920002   32.817996       1.0000      1.0079
  174   2 H    1      14.970001   26.490002   31.387997       1.0000      1.0079
  175   1 O    8     -15.110001   11.370001   29.777996       6.0000     15.9994
  176   2 H    1     -15.790001   11.860001   30.317996       1.0000      1.0079
  177   2 H    1     -15.500001   10.440001   29.857996       1.0000      1.0079
  178   1 O    8     -10.060000   35.820004   37.527995       6.0000     15.9994
  179   2 H    1      -9.170000   36.200001   37.727996       1.0000      1.0079
  180   2 H    1     -10.180000   35.150002   38.297996       1.0000      1.0079
  181   1 O    8      -1.560000   10.300001   32.707997       6.0000     15.9994
  182   2 H    1      -0.660000    9.820001   32.627996       1.0000      1.0079
  183   2 H    1      -1.890000   10.460000   31.817996       1.0000      1.0079
  184   1 O    8       0.680000   24.430000   32.827997       6.0000     15.9994
  185   2 H    1       8.860001    9.450001   33.747997       1.0000      1.0079
  186   2 H    1       1.640000   24.430000   32.707997       1.0000      1.0079
  187   1 O    8      14.530001    4.750000   29.197996       6.0000     15.9994
  188   2 H    1      14.240000    3.820000   29.087996       1.0000      1.0079
  189   2 H    1      15.510001    4.670000   29.237996       1.0000      1.0079
  190   1 O    8      21.240002    4.790000   33.497997       6.0000     15.9994
  191   2 H    1      21.380001    5.240001   32.657996       1.0000      1.0079
  192   2 H    1      21.730001    3.950000   33.497997       1.0000      1.0079
  193   1 O    8     -24.880001  -12.000000   39.777997       6.0000     15.9994
  194   2 H    1     -24.500000  -11.120001   39.517997       1.0000      1.0079
  195   2 H    1     -25.430002  -11.700001   40.497997       1.0000      1.0079
  196   1 O    8      18.070000   21.470001   35.237996       6.0000     15.9994
  197   2 H    1      17.440001   22.240002   35.397997       1.0000      1.0079
  198   2 H    1      17.460001   20.740002   35.037997       1.0000      1.0079
  199   1 O    8      17.920000    3.000000   30.937996       6.0000     15.9994
  200   2 H    1      17.790001    3.690000   30.237996       1.0000      1.0079
  201   2 H    1      17.130001    2.360000   30.607996       1.0000      1.0079
  202   1 O    8       1.580000  -14.590001   29.757996       6.0000     15.9994
  203   2 H    1       1.680000  -13.860001   29.097996       1.0000      1.0079
  204   2 H    1      18.210001  -15.380001   29.177996       1.0000      1.0079
  205   1 O    8       8.640000  -16.900002   34.117997       6.0000     15.9994
  206   2 H    1       8.460000  -15.990001   33.717996       1.0000      1.0079
  207   2 H    1       8.750001  -17.600000   33.397996       1.0000      1.0079
  208   1 O    8     -10.960001  -24.730000   29.187996       6.0000     15.9994
  209   2 H    1     -10.440001  -25.500002   29.037996       1.0000      1.0079
  210   2 H    1     -10.310000  -24.020002   29.657996       1.0000      1.0079
  211   1 O    8     -23.630001   30.170002   39.547996       6.0000     15.9994
  212   2 H    1     -24.370001   29.700001   39.097997       1.0000      1.0079
  213   2 H    1     -24.100000   30.630001   40.287998       1.0000      1.0079
  214   1 O    8      13.570002   23.650000   32.407996       6.0000     15.9994
  215   2 H    1      14.120001   24.470001   32.317996       1.0000      1.0079
  216   2 H    1      13.110001   23.660002   31.567996       1.0000      1.0079
  217   1 O    8      26.260002    3.880000   38.257997       6.0000     15.9994
  218   2 H    1      26.950001    4.280000   37.597995       1.0000      1.0079
  219   2 H    1      26.020002    2.950000   37.957996       1.0000      1.0079
  220   1 O    8      10.290001   26.560001   34.367997       6.0000     15.9994
  221   2 H    1      10.810001   25.740002   34.347997       1.0000      1.0079
  222   2 H    1      10.750000   27.200001   34.967996       1.0000      1.0079
  223   1 O    8     -11.910001   14.030001   30.007996       6.0000     15.9994
  224   2 H    1     -11.830001   14.110001   31.037996       1.0000      1.0079
  225   2 H    1     -12.170000   14.900002   29.667997       1.0000      1.0079
  226   1 O    8     -15.260000    5.230000   39.147996       6.0000     15.9994
  227   2 H    1     -14.640001    5.060000   39.987996       1.0000      1.0079
  228   2 H    1     -14.670001    5.090000   38.357997       1.0000      1.0079
  229   1 O    8      14.950001  -14.830000   32.297996       6.0000     15.9994
  230   2 H    1      15.670000  -15.470000   32.407996       1.0000      1.0079
  231   2 H    1      14.130001  -15.250001   32.567996       1.0000      1.0079
  232   1 O    8      -1.790000    0.050000   36.347996       6.0000     15.9994
  233   2 H    1      -1.770000    0.260000   37.297996       1.0000      1.0079
  234   2 H    1      -0.910000    0.270000   36.067996       1.0000      1.0079
  235   1 O    8     -10.190001    4.860000   39.807996       6.0000     15.9994
  236   2 H    1      -9.370001    4.640000   40.287998       1.0000      1.0079
  237   2 H    1     -10.580001    4.030000   39.347997       1.0000      1.0079
  238   1 O    8     -24.050003   31.010000   34.157996       6.0000     15.9994
  239   2 H    1     -23.320000   31.500000   34.497997       1.0000      1.0079
  240   2 H    1     -23.570002   30.240002   33.697996       1.0000      1.0079
  241   1 O    8       4.690000   47.430000   36.567996       6.0000     15.9994
  242   2 H    1       5.640000   47.380005   36.887996       1.0000      1.0079
  243   2 H    1       4.160000   46.990005   37.227996       1.0000      1.0079
  244   1 O    8      32.610001   12.260000   29.047996       6.0000     15.9994
  245   2 H    1      31.920002   13.050001   29.197996       1.0000      1.0079
  246   2 H    1      32.130001   11.460000   29.387996       1.0000      1.0079
  247   1 O    8     -21.900002   10.160000   32.107995       6.0000     15.9994
  248   2 H    1     -21.800001   11.130000   31.977996       1.0000      1.0079
  249   2 H    1     -21.310001    9.610001   31.567996       1.0000      1.0079
  250   1 O    8     -13.460001    8.480000   36.567996       6.0000     15.9994
  251   2 H    1     -14.180001    8.220000   37.157996       1.0000      1.0079
  252   2 H    1     -13.210001    7.580000   36.267996       1.0000      1.0079
  253   1 O    8     -22.369999   16.180000   29.677996       6.0000     15.9994
  254   2 H    1     -22.390001   16.240002   28.657996       1.0000      1.0079
  255   2 H    1     -23.050001   16.820000   29.987996       1.0000      1.0079
  256   1 O    8      30.530003    1.860000   34.707997       6.0000     15.9994
  257   2 H    1      31.070002    1.350000   35.337997       1.0000      1.0079
  258   2 H    1      30.110001    2.600000   35.277996       1.0000      1.0079
  259   1 O    8      -7.200000    5.160000   32.847996       6.0000     15.9994
  260   2 H    1      -6.520000    5.200000   32.177997       1.0000      1.0079
  261   2 H    1      -7.590001    4.250000   32.917997       1.0000      1.0079
  262   1 O    8     -19.560001   10.500001   29.987996       6.0000     15.9994
  263   2 H    1     -20.330000   11.020000   29.667997       1.0000      1.0079
  264   2 H    1     -19.680000    9.530001   29.817996       1.0000      1.0079
  265   1 O    8      -4.220000   -2.880000   29.197996       6.0000     15.9994
  266   2 H    1      -5.220000   -2.860000   29.497996       1.0000      1.0079
  267   2 H    1      -3.830000   -1.970000   29.457996       1.0000      1.0079
  268   1 O    8       9.600000   15.310000   35.897996       6.0000     15.9994
  269   2 H    1       9.530001   15.190001   34.867996       1.0000      1.0079
  270   2 H    1      10.530001   15.030001   36.097996       1.0000      1.0079
  271   1 O    8      16.680000   12.490001   36.187997       6.0000     15.9994
  272   2 H    1      25.800001   -2.250000   35.527995       1.0000      1.0079
  273   2 H    1      16.690001   11.570001   36.617997       1.0000      1.0079
  274   1 O    8     -11.590000    2.270000   33.687995       6.0000     15.9994
  275   2 H    1     -10.790000    1.930000   33.337996       1.0000      1.0079
  276   2 H    1     -11.940001    1.700000   34.437996       1.0000      1.0079
  277   1 O    8       5.550000    3.120000   38.317996       6.0000     15.9994
  278   2 H    1       4.800000    3.540000   37.877996       1.0000      1.0079
  279   2 H    1       6.210001    2.770000   37.587997       1.0000      1.0079
  280   1 O    8     -16.040001    8.930000   29.917996       6.0000     15.9994
  281   2 H    1     -16.270000    8.700001   29.017996       1.0000      1.0079
  282   2 H    1     -16.480001    8.170000   30.407996       1.0000      1.0079
  283   1 O    8      25.290001   -5.160000   36.377996       6.0000     15.9994
  284   2 H    1      26.000002   -5.620000   36.777995       1.0000      1.0079
  285   2 H    1      25.250000   -5.460000   35.417997       1.0000      1.0079
  286   1 O    8      -1.670000   21.770000   32.977996       6.0000     15.9994
  287   2 H    1      14.460001   22.380001   32.987996       1.0000      1.0079
  288   2 H    1      15.010000   20.970001   33.467996       1.0000      1.0079
  289   1 O    8       1.470000    7.980001   38.757997       6.0000     15.9994
  290   2 H    1       1.620000    7.060000   39.097997       1.0000      1.0079
  291   2 H    1       1.630000    8.590000   39.497997       1.0000      1.0079
  292   1 O    8      32.590000    3.850000   37.397996       6.0000     15.9994
  293   2 H    1      32.570004    4.750000   37.737996       1.0000      1.0079
  294   2 H    1      33.340000    3.670000   36.867997       1.0000      1.0079
  295   1 O    8      19.410002   17.970001   30.207997       6.0000     15.9994
  296   2 H    1      18.640001   17.370001   30.547996       1.0000      1.0079
  297   2 H    1      18.980001   18.570002   29.627996       1.0000      1.0079
  298   1 O    8     -17.420002  -34.830002   30.347996       6.0000     15.9994
  299   2 H    1     -17.500002  -35.810001   30.427996       1.0000      1.0079
  300   2 H    1     -17.260000  -34.590000   31.307996       1.0000      1.0079
  301   1 O    8      -7.140000   34.830002   29.707997       6.0000     15.9994
  302   2 H    1      -6.560000   35.540001   30.287996       1.0000      1.0079
  303   2 H    1      -6.920000   35.190002   28.797996       1.0000      1.0079
  304   1 O    8     -30.400002   -7.600000   33.617996       6.0000     15.9994
  305   2 H    1     -30.630001   -7.360001   32.707997       1.0000      1.0079
  306   2 H    1     -14.440001   -7.610001   34.077997       1.0000      1.0079
  307   3 Pt  78       1.540000    0.770000   15.159996      10.0000    195.0840
  308   3 Pt  78       4.350000    0.760000   15.000000      10.0000    195.0840
  309   3 Pt  78       7.160000    0.690000   15.019997      10.0000    195.0840
  310   3 Pt  78      10.090000    0.720000   15.299999      10.0000    195.0840
  311   3 Pt  78      12.890000    0.690000   15.319996      10.0000    195.0840
  312   3 Pt  78      15.590000    0.700000   15.259995      10.0000    195.0840
  313   3 Pt  78       2.930000    3.210000   15.019997      10.0000    195.0840
  314   3 Pt  78       5.780000    3.200000   15.230000      10.0000    195.0840
  315   3 Pt  78       8.610001    3.030000   15.269997      10.0000    195.0840
  316   3 Pt  78      11.460000    3.240000   15.299999      10.0000    195.0840
  317   3 Pt  78      14.340000    3.250000   15.119995      10.0000    195.0840
  318   3 Pt  78       0.180000    3.210000   15.230000      10.0000    195.0840
  319   3 Pt  78       4.430000    5.590000   15.139999      10.0000    195.0840
  320   3 Pt  78       7.260000    5.540000   15.279999      10.0000    195.0840
  321   3 Pt  78       9.960001    5.560000   15.359997      10.0000    195.0840
  322   3 Pt  78      12.630000    5.690000   15.070000      10.0000    195.0840
  323   3 Pt  78      -1.280000    5.680000   15.149998      10.0000    195.0840
  324   3 Pt  78       1.540000    5.660000   15.230000      10.0000    195.0840
  325   3 Pt  78       5.840001    8.000000   15.189995      10.0000    195.0840
  326   3 Pt  78       8.540000    8.050001   15.199997      10.0000    195.0840
  327   3 Pt  78      11.410000    8.080000   15.079998      10.0000    195.0840
  328   3 Pt  78      -2.640000    7.990000   15.059998      10.0000    195.0840
  329   3 Pt  78       0.110000    8.050001   15.149998      10.0000    195.0840
  330   3 Pt  78       3.130000    8.160001   15.209999      10.0000    195.0840
  331   3 Pt  78       7.190001   10.390000   15.070000      10.0000    195.0840
  332   3 Pt  78       9.920000   10.540000   15.000000      10.0000    195.0840
  333   3 Pt  78      -3.990000   10.580001   15.079998      10.0000    195.0840
  334   3 Pt  78      -1.210000   10.470000   15.199997      10.0000    195.0840
  335   3 Pt  78       1.580000   10.450001   15.289997      10.0000    195.0840
  336   3 Pt  78       4.450000   10.500001   15.049995      10.0000    195.0840
  337   3 Pt  78       8.490001   12.890000   15.099998      10.0000    195.0840
  338   3 Pt  78      -5.550000   13.020000   15.079998      10.0000    195.0840
  339   3 Pt  78      -2.610000   12.970000   15.039997      10.0000    195.0840
  340   3 Pt  78       0.310000   12.860001   15.109997      10.0000    195.0840
  341   3 Pt  78       3.100000   12.940001   15.109997      10.0000    195.0840
  342   3 Pt  78       5.720000   12.810000   15.199997      10.0000    195.0840
  343   3 Pt  78       0.180000    1.650000   17.549995      10.0000    195.0840
  344   3 Pt  78       3.050000    1.530000   17.419998      10.0000    195.0840
  345   3 Pt  78       5.890000    1.490000   17.439999      10.0000    195.0840
  346   3 Pt  78       8.580000    1.370000   17.489998      10.0000    195.0840
  347   3 Pt  78      11.460000    1.520000   17.589996      10.0000    195.0840
  348   3 Pt  78      14.270000    1.700000   17.529995      10.0000    195.0840
  349   3 Pt  78       1.710000    4.010000   17.509998      10.0000    195.0840
  350   3 Pt  78       4.540000    4.010000   17.449997      10.0000    195.0840
  351   3 Pt  78       7.300000    3.980000   17.619995      10.0000    195.0840
  352   3 Pt  78      10.020000    3.880000   17.649998      10.0000    195.0840
  353   3 Pt  78      12.860001    4.080000   17.599998      10.0000    195.0840
  354   3 Pt  78      -1.150000    4.090000   17.419998      10.0000    195.0840
  355   3 Pt  78       3.070000    6.390000   17.489998      10.0000    195.0840
  356   3 Pt  78       5.790000    6.470000   17.479996      10.0000    195.0840
  357   3 Pt  78       8.680000    6.290000   17.549995      10.0000    195.0840
  358   3 Pt  78      11.500001    6.420000   17.489998      10.0000    195.0840
  359   3 Pt  78      -2.640000    6.460000   17.469997      10.0000    195.0840
  360   3 Pt  78       0.310000    6.540000   17.589996      10.0000    195.0840
  361   3 Pt  78       4.420000    8.830000   17.589996      10.0000    195.0840
  362   3 Pt  78       7.230001    8.830000   17.449997      10.0000    195.0840
  363   3 Pt  78      10.100000    8.830000   17.419998      10.0000    195.0840
  364   3 Pt  78      -3.970000    8.970000   17.309998      10.0000    195.0840
  365   3 Pt  78      -1.260000    8.870000   17.529995      10.0000    195.0840
  366   3 Pt  78       1.670000    8.840000   17.539997      10.0000    195.0840
  367   3 Pt  78       5.850000   11.300000   17.469997      10.0000    195.0840
  368   3 Pt  78       8.560000   11.310000   17.399998      10.0000    195.0840
  369   3 Pt  78      -5.440001   11.360001   17.329998      10.0000    195.0840
  370   3 Pt  78      -2.580000   11.430000   17.570000      10.0000    195.0840
  371   3 Pt  78       0.200000   11.220001   17.609997      10.0000    195.0840
  372   3 Pt  78       3.050000   11.260000   17.500000      10.0000    195.0840
  373   3 Pt  78       7.240000   13.820001   17.509998      10.0000    195.0840
  374   3 Pt  78      -6.880000   13.660001   17.379997      10.0000    195.0840
  375   3 Pt  78      -3.930000   13.840000   17.379997      10.0000    195.0840
  376   3 Pt  78      -1.130000   13.670001   17.429996      10.0000    195.0840
  377   3 Pt  78       1.580000   13.610001   17.609997      10.0000    195.0840
  378   3 Pt  78       4.430000   13.630000   17.509998      10.0000    195.0840
  379   3 Pt  78      -8.250000   14.500000   19.829998      10.0000    195.0840
  380   3 Pt  78      -5.450000   14.560001   19.689999      10.0000    195.0840
  381   3 Pt  78      -2.620000   14.440001   19.789997      10.0000    195.0840
  382   3 Pt  78       0.140000   14.400001   19.849998      10.0000    195.0840
  383   3 Pt  78       2.980000   14.490002   19.859997      10.0000    195.0840
  384   3 Pt  78       5.740000   14.550000   19.859997      10.0000    195.0840
  385   3 Pt  78       1.620000    2.370000   19.759998      10.0000    195.0840
  386   3 Pt  78       4.440001    2.390000   19.829998      10.0000    195.0840
  387   3 Pt  78       7.230001    2.360000   19.939995      10.0000    195.0840
  388   3 Pt  78      10.020000    2.210000   19.869995      10.0000    195.0840
  389   3 Pt  78      12.960000    2.370000   19.909996      10.0000    195.0840
  390   3 Pt  78      -1.270000    2.350000   19.809998      10.0000    195.0840
  391   3 Pt  78       3.080000    4.810000   19.799995      10.0000    195.0840
  392   3 Pt  78       5.860000    4.800000   19.869995      10.0000    195.0840
  393   3 Pt  78       8.730000    4.800000   19.889999      10.0000    195.0840
  394   3 Pt  78      11.380000    4.730000   19.839996      10.0000    195.0840
  395   3 Pt  78      -2.600000    4.740000   19.829998      10.0000    195.0840
  396   3 Pt  78       0.220000    4.690000   19.779999      10.0000    195.0840
  397   3 Pt  78       4.390000    7.220001   19.849998      10.0000    195.0840
  398   3 Pt  78       7.220001    7.180000   19.779999      10.0000    195.0840
  399   3 Pt  78      10.040001    7.360001   19.750000      10.0000    195.0840
  400   3 Pt  78      -4.060000    7.210000   19.729996      10.0000    195.0840
  401   3 Pt  78      -1.180000    7.230001   19.839996      10.0000    195.0840
  402   3 Pt  78       1.580000    7.230001   19.820000      10.0000    195.0840
  403   3 Pt  78       5.790000    9.690001   19.859997      10.0000    195.0840
  404   3 Pt  78       8.680000    9.670001   19.719997      10.0000    195.0840
  405   3 Pt  78      -5.370000    9.720000   19.639999      10.0000    195.0840
  406   3 Pt  78      -2.620000    9.570000   19.779999      10.0000    195.0840
  407   3 Pt  78       0.270000    9.550000   19.849998      10.0000    195.0840
  408   3 Pt  78       3.070000    9.660000   19.889999      10.0000    195.0840
  409   3 Pt  78       7.190001   12.090001   19.849998      10.0000    195.0840
  410   3 Pt  78      -6.900001   12.020000   19.649998      10.0000    195.0840
  411   3 Pt  78      -4.070000   12.070000   19.799995      10.0000    195.0840
  412   3 Pt  78      -1.220000   11.920000   19.839996      10.0000    195.0840
  413   3 Pt  78       1.620000   12.020000   19.889999      10.0000    195.0840
  414   3 Pt  78       4.320000   12.120000   19.849998      10.0000    195.0840
  415   3 Pt  78       1.620000    0.700000   22.077996      10.0000    195.0840
  416   3 Pt  78       4.400000    0.680000   22.037996      10.0000    195.0840
  417   3 Pt  78       7.180000    0.680000   22.137996      10.0000    195.0840
  418   3 Pt  78       9.890000    0.640000   22.217996      10.0000    195.0840
  419   3 Pt  78      12.750001    0.650000   22.187996      10.0000    195.0840
  420   3 Pt  78      15.540000    0.680000   22.217996      10.0000    195.0840
  421   3 Pt  78       3.030000    3.130000   22.047996      10.0000    195.0840
  422   3 Pt  78       5.740000    3.210000   22.137996      10.0000    195.0840
  423   3 Pt  78       8.500000    3.190000   22.177996      10.0000    195.0840
  424   3 Pt  78      11.370001    3.080000   22.177996      10.0000    195.0840
  425   3 Pt  78      14.150001    3.120000   22.207996      10.0000    195.0840
  426   3 Pt  78       0.090000    3.030000   22.147996      10.0000    195.0840
  427   3 Pt  78       4.370000    5.560000   22.117996      10.0000    195.0840
  428   3 Pt  78       7.070000    5.620000   22.107996      10.0000    195.0840
  429   3 Pt  78       9.900001    5.610001   22.167996      10.0000    195.0840
  430   3 Pt  78      12.720001    5.550000   22.097996      10.0000    195.0840
  431   3 Pt  78      -1.270000    5.500000   22.167996      10.0000    195.0840
  432   3 Pt  78       1.630000    5.510000   22.017996      10.0000    195.0840
  433   3 Pt  78       5.770000    8.080000   22.127996      10.0000    195.0840
  434   3 Pt  78       8.530001    8.090000   22.147996      10.0000    195.0840
  435   3 Pt  78      11.390000    8.020000   22.077996      10.0000    195.0840
  436   3 Pt  78      -2.660000    7.870001   22.117996      10.0000    195.0840
  437   3 Pt  78       0.160000    7.930000   22.167996      10.0000    195.0840
  438   3 Pt  78       3.000000    8.030001   22.117996      10.0000    195.0840
  439   3 Pt  78       7.190001   10.530001   22.077996      10.0000    195.0840
  440   3 Pt  78      10.010000   10.430001   22.067996      10.0000    195.0840
  441   3 Pt  78      -3.990000   10.410000   22.027996      10.0000    195.0840
  442   3 Pt  78      -1.250000   10.350000   22.207996      10.0000    195.0840
  443   3 Pt  78       1.500000   10.410000   22.307996      10.0000    195.0840
  444   3 Pt  78       4.340000   10.480001   22.137996      10.0000    195.0840
  445   3 Pt  78       8.560000   12.950001   22.107996      10.0000    195.0840
  446   3 Pt  78      -5.530000   12.790001   21.927996      10.0000    195.0840
  447   3 Pt  78      -2.720000   12.760000   22.207996      10.0000    195.0840
  448   3 Pt  78       0.050000   12.750001   22.237996      10.0000    195.0840
  449   3 Pt  78       2.830000   12.920000   22.237996      10.0000    195.0840
  450   3 Pt  78       5.700001   12.890000   22.257996      10.0000    195.0840
  451   3 Pt  78       0.120000    1.580000   24.457996      10.0000    195.0840
  452   3 Pt  78       3.000000    1.580000   24.357996      10.0000    195.0840
  453   3 Pt  78       5.790000    1.620000   24.417996      10.0000    195.0840
  454   3 Pt  78       8.570001    1.590000   24.427996      10.0000    195.0840
  455   3 Pt  78      11.450001    1.490000   24.447996      10.0000    195.0840
  456   3 Pt  78      14.170000    1.400000   24.537996      10.0000    195.0840
  457   3 Pt  78       1.580000    3.890000   24.307996      10.0000    195.0840
  458   3 Pt  78       4.330000    3.970000   24.397996      10.0000    195.0840
  459   3 Pt  78       7.160000    4.040000   24.367996      10.0000    195.0840
  460   3 Pt  78      10.050000    3.900000   24.397996      10.0000    195.0840
  461   3 Pt  78      12.730000    3.810000   24.487996      10.0000    195.0840
  462   3 Pt  78      -1.350000    3.930000   24.307996      10.0000    195.0840
  463   3 Pt  78       2.900000    6.430000   24.427996      10.0000    195.0840
  464   3 Pt  78       5.640000    6.560000   24.517996      10.0000    195.0840
  465   3 Pt  78       8.440001    6.520000   24.437996      10.0000    195.0840
  466   3 Pt  78      11.370001    6.310000   24.407996      10.0000    195.0840
  467   3 Pt  78      -2.730000    6.330000   24.467996      10.0000    195.0840
  468   3 Pt  78       0.120000    6.230001   24.427996      10.0000    195.0840
  469   3 Pt  78       4.340000    8.920000   24.587996      10.0000    195.0840
  470   3 Pt  78       7.180000    8.860001   24.397996      10.0000    195.0840
  471   3 Pt  78       9.980000    8.830000   24.337996      10.0000    195.0840
  472   3 Pt  78      -3.990000    8.710001   24.337996      10.0000    195.0840
  473   3 Pt  78      -1.220000    8.720000   24.467996      10.0000    195.0840
  474   3 Pt  78       1.500000    8.850000   24.487996      10.0000    195.0840
  475   3 Pt  78       5.750000   11.240001   24.517996      10.0000    195.0840
  476   3 Pt  78       8.470000   11.290001   24.317996      10.0000    195.0840
  477   3 Pt  78      -5.470000   11.270000   24.307996      10.0000    195.0840
  478   3 Pt  78      -2.690000   11.300000   24.417996      10.0000    195.0840
  479   3 Pt  78       0.090000   11.370001   24.487996      10.0000    195.0840
  480   3 Pt  78       2.920000   11.170001   24.527996      10.0000    195.0840
  481   3 Pt  78       7.140000   13.740001   24.497996      10.0000    195.0840
  482   3 Pt  78      -6.880000   13.720001   24.397996      10.0000    195.0840
  483   3 Pt  78      -3.980000   13.680000   24.337996      10.0000    195.0840
  484   3 Pt  78      -1.230000   13.810000   24.387996      10.0000    195.0840
  485   3 Pt  78       1.610000   13.740001   24.557996      10.0000    195.0840
  486   3 Pt  78       4.400000   13.580000   24.587996      10.0000    195.0840
  487   3 Pt  78      -8.170000   14.360001   26.877996      10.0000    195.0840
  488   3 Pt  78      -5.420001   14.600000   26.677996      10.0000    195.0840
  489   3 Pt  78      -2.560000   14.520000   26.727996      10.0000    195.0840
  490   3 Pt  78       0.180000   14.630001   26.927996      10.0000    195.0840
  491   3 Pt  78       3.060000   14.680000   26.767996      10.0000    195.0840
  492   3 Pt  78       5.890000   14.510001   26.927996      10.0000    195.0840
  493   3 Pt  78       1.590000    2.170000   26.747996      10.0000    195.0840
  494   3 Pt  78       4.430000    2.410000   26.677996      10.0000    195.0840
  495   3 Pt  78       7.250000    2.420000   26.677996      10.0000    195.0840
  496   3 Pt  78       9.970000    2.350000   26.967996      10.0000    195.0840
  497   3 Pt  78      12.900001    2.410000   26.947996      10.0000    195.0840
  498   3 Pt  78      -1.140000    2.200000   26.757996      10.0000    195.0840
  499   3 Pt  78       2.880000    4.690000   26.817996      10.0000    195.0840
  500   3 Pt  78       5.680000    4.850000   26.807996      10.0000    195.0840
  501   3 Pt  78       8.610001    4.700000   26.657996      10.0000    195.0840
  502   3 Pt  78      11.360001    4.640000   26.817996      10.0000    195.0840
  503   3 Pt  78      -2.680000    4.840000   26.667996      10.0000    195.0840
  504   3 Pt  78       0.170000    4.620000   26.657996      10.0000    195.0840
  505   3 Pt  78       4.100000    7.160000   26.847996      10.0000    195.0840
[...]
 -                                                                             -
 -                                DBCSR STATISTICS                             -
 -                                                                             -
 -------------------------------------------------------------------------------
 COUNTER                                    TOTAL       BLAS       SMM       ACC
 flops     5 x     5 x    96           5819673600       0.0%    100.0%      0.0%
 flops     5 x     5 x   100           6062160000       0.0%    100.0%      0.0%
 flops     5 x    13 x    96           7366519680       0.0%    100.0%      0.0%
 flops    13 x     5 x    96           7367967360       0.0%    100.0%      0.0%
 flops     5 x    13 x   100           7673458000       0.0%    100.0%      0.0%
 flops    13 x     5 x   100           7674966000       0.0%    100.0%      0.0%
 flops    13 x    13 x    96           8790747264       0.0%    100.0%      0.0%
 flops    13 x    13 x   100           9157028400       0.0%    100.0%      0.0%
 flops    13 x    20 x    96          12244477440       0.0%    100.0%      0.0%
 flops    20 x    13 x    96          12267640320       0.0%    100.0%      0.0%
 flops    13 x    20 x   100          12754664000       0.0%    100.0%      0.0%
 flops    20 x    13 x   100          12778792000       0.0%    100.0%      0.0%
 flops    20 x     5 x    96          13173888000       0.0%    100.0%      0.0%
 flops     5 x    20 x    96          13215091200       0.0%    100.0%      0.0%
 flops    20 x     5 x   100          13722800000       0.0%    100.0%      0.0%
 flops     5 x    20 x   100          13765720000       0.0%    100.0%      0.0%
 flops    20 x    20 x    96         104393318400       0.0%    100.0%      0.0%
 flops     5 x     5 x   128         108633907200       0.0%    100.0%      0.0%
 flops    20 x    20 x   100         108743040000       0.0%    100.0%      0.0%
 flops     5 x    13 x   128         137508367360       0.0%    100.0%      0.0%
 flops    13 x     5 x   128         137535390720       0.0%    100.0%      0.0%
 flops    13 x    13 x   128         164093948928       0.0%    100.0%      0.0%
 flops    13 x    20 x   128         228563578880       0.0%    100.0%      0.0%
 flops    20 x    13 x   128         228995952640       0.0%    100.0%      0.0%
 flops    20 x     5 x   128         245912576000       0.0%    100.0%      0.0%
 flops     5 x    20 x   128         246681702400       0.0%    100.0%      0.0%
 flops    20 x    20 x   128        1948675276800       0.0%    100.0%      0.0%
 flops inhomo. stacks                           0       0.0%      0.0%      0.0%
 flops total                         3.823573E+12       0.0%    100.0%      0.0%
 flops max/rank                     34.543234E+09       0.0%    100.0%      0.0%
 matmuls inhomo. stacks                         0       0.0%      0.0%      0.0%
 matmuls total                           94219840       0.0%    100.0%      0.0%
 number of processed stacks               1065344       0.0%    100.0%      0.0%
 average stack size                                     0.0      88.4       0.0
 marketing flops                     7.983650E+12
 -------------------------------------------------------------------------------
 # multiplications                             58
 max memory usage/rank               1.641673E+09
 # max total images/rank                        2
 # max 3D layers                                1
 # MPI messages exchanged                  215296
 MPI messages size (bytes):
  total size                       135.276495E+09
  min size                         318.720000E+03
  max size                         856.064000E+03
  average size                     628.327938E+03
 MPI breakdown and total messages size (bytes):
             size <=      128                   0                        0
       128 < size <=     8192                   0                        0
      8192 < size <=    32768                   0                        0
     32768 < size <=   131072                   0                        0
    131072 < size <=  4194304              215296             135276497664
   4194304 < size <= 16777216                   0                        0
  16777216 < size                               0                        0
 -------------------------------------------------------------------------------

 *** WARNING in dbcsr_mm.F:290 :: Using a non-square number of MPI ranks ***
 *** might lead to poor performance. Used ranks: 128 Suggested: 121 256  ***

 -------------------------------------------------------------------------------
 -                                                                             -
 -                      DBCSR MESSAGE PASSING PERFORMANCE                      -
 -                                                                             -
 -------------------------------------------------------------------------------
 ROUTINE             CALLS      AVE VOLUME [Bytes]
 MP_Bcast               28                     12.
 MP_Allreduce          480                     11.
 MP_Alltoall          1636                 604759.
 MP_ISend             3712                 298634.
 MP_IRecv             3712                 292155.
 -------------------------------------------------------------------------------

 -------------------------------------------------------------------------------
 -                                                                             -
 -                                DBM STATISTICS                               -
 -                                                                             -
 -------------------------------------------------------------------------------
    M  x    N  x    K                                          COUNT     PERCENT
 -------------------------------------------------------------------------------

 -------------------------------------------------------------------------------
 -                                                                             -
 -                                GRID STATISTICS                              -
 -                                                                             -
 -------------------------------------------------------------------------------
 LP    KERNEL             BACKEND                              COUNT     PERCENT
 4     collocate general  REF                               23652284      21.85%
 4     integrate general  REF                               23535801      21.74%
 3     collocate general  REF                               16896270      15.61%
 3     integrate general  REF                               16836709      15.55%
 2     collocate general  REF                               13441732      12.42%
 2     integrate general  REF                               13209978      12.20%
 5     integrate general  REF                                 407798       0.38%
 0     collocate general  REF                                 133632       0.12%
 0     integrate general  REF                                  66816       0.06%
 1     integrate general  REF                                  66816       0.06%
 -------------------------------------------------------------------------------

 MEMORY| Estimated peak process memory [MiB]                                1829

 -------------------------------------------------------------------------------
 ----                             MULTIGRID INFO                            ----
 -------------------------------------------------------------------------------
 count for grid        1:        1098858          cutoff [a.u.]          200.00
 count for grid        2:        1094690          cutoff [a.u.]           66.67
 count for grid        3:         720939          cutoff [a.u.]           22.22
 count for grid        4:         561729          cutoff [a.u.]            7.41
 total gridlevel count  :        3476216

 -------------------------------------------------------------------------------
 -                                                                             -
 -                         MESSAGE PASSING PERFORMANCE                         -
 -                                                                             -
 -------------------------------------------------------------------------------

 ROUTINE             CALLS      AVE VOLUME [Bytes]
 MP_Group                4
 MP_Bcast              277                2061333.
 MP_Allreduce         3902                  28105.
 MP_Sync               120
 MP_Alltoall          3502               17190894.
 MP_SendRecv           508                   6228.
 MP_ISendRecv        29464                  61740.
 MP_Wait             51952
 MP_comm_split          58
 MP_ISend            21192                 255933.
 MP_IRecv            21192                 255933.
 MP_Recv               186                1706496.
 MP_Write_All            3                1797408.
 -------------------------------------------------------------------------------


 -------------------------------------------------------------------------------
 -                                                                             -
 -                           R E F E R E N C E S                               -
 -                                                                             -
 -------------------------------------------------------------------------------
 
 CP2K version 2022.1, the CP2K developers group (2022).
 CP2K is freely available from https://www.cp2k.org/ .

 Kuehne,Thomas D.; Iannuzzi,Marcella; Del Ben,Mauro;
 Rybkin,Vladimir V.; Seewald,Patrick; Stein,Frederick; Laino,Teodoro;
 Khaliullin,Rustam Z.; Schuett,Ole; Schiffmann,Florian; Golze,Dorothea;
 Wilhelm,Jan; Chulkov,Sergey; Bani-Hashemian,Mohammad Hossein;
 Weber,Valery; Borstnik,Urban; Taillefumier,Mathieu;
 Jakobovits,Alice Shoshana; Lazzaro,Alfio; Pabst,Hans; Mueller,Tiziano;
 Schade,Robert; Guidon,Manuel; Andermatt,Samuel; Holmberg,Nico;
 Schenter,Gregory K.; Hehn,Anna; Bussy,Augustin; Belleflamme,Fabian;
 Tabacchi,Gloria; Gloess,Andreas; Lass,Michael; Bethune,Iain;
 Mundy,Christopher J.; Plessl,Christian; Watkins,Matt;
 VandeVondele,Joost; Krack,Matthias; Hutter,Juerg. 
 The Journal of Chemical Physics, 152 (19), (2020). 
 CP2K: An electronic structure and molecular dynamics software package -
 Quickstep: Efficient and accurate electronic structure calculations.
 https://doi.org/10.1063/5.0007045

 Goerigk, Lars; Hansen, Andreas; Bauer, Christoph; Ehrlich, Stephan;
 Najibi, Asim; Grimme, Stefan. , 19 (48), (2017). 
 A look at the density functional theory zoo with the advanced GMTKN55 database
 for general main group thermochemistry, kinetics and noncovalent interactions.
 https://doi.org/10.1039/C7CP04913G

 Bani-Hashemian, MH; Bruck, S; Luisier, M; VandeVondele, J. 
 JOURNAL OF CHEMICAL PHYSICS, 144 (4), 044113 (2016). 
 A generalized Poisson solver for first-principles device simulations.
 https://doi.org/10.1063/1.4940796

 Schuett, Ole; Messmer, Peter; Hutter, Juerg; VandeVondele, Joost. 
 Electronic Structure Calculations on Graphics Processing Units, John
 Wiley & Sons, Ltd, 173-190 (2016). 
 GPU-Accelerated Sparse Matrix-Matrix Multiplication for
 Linear Scaling Density Functional Theory.
 https://doi.org/10.1002/9781118670712.ch8

 Heinecke, A; Henry, G; Hutchinson, M; Pabst, H. 
 Proceedings of Intl. Supercomputing Conference, 981-991 (2016). 
 LIBXSMM: Accelerating Small Matrix Multiplications
 by Runtime Code Generation.
 https://doi.org/10.1109/SC.2016.83

 Borstnik, U; VandeVondele, J; Weber, V; Hutter, J. 
 PARALLEL COMPUTING, 40 (5-6), 47-58 (2014). 
 Sparse matrix multiplication: The distributed block-compressed sparse
 row library.
 https://doi.org/10.1016/j.parco.2014.03.012

 Hutter, J; Iannuzzi, M; Schiffmann, F; VandeVondele, J. 
 WIREs Comput Mol Sci., 4 (1), 15-25 (2014). 
 CP2K: atomistic simulations of condensed matter systems.
 https://doi.org/10.1002/wcms.1159

 Marek, A; Blum, V; Johanni, R; Havu, V; Lang, B; Auckenthaler, T;
 Heinecke, A; Bungartz, H; Lederer, H. 
 Journal of Physics: Condensed Matter, 26 (21), (2014). 
 The ELPA library: scalable parallel eigenvalue solutions for
 electronic structure
 theory and computational science.
 https://doi.org/10.1088/0953-8984/26/21/213201

 Grimme, S; Ehrlich, S; Goerigk, L. 
 JOURNAL OF COMPUTATIONAL CHEMISTRY, 32, 1456 (2011). 
 Effect of the damping function in dispersion corrected density functional theory.
 https://doi.org/10.1002/jcc.21759

 Grimme, S; Antony, J; Ehrlich, S; Krieg, H. 
 JOURNAL OF CHEMICAL PHYSICS, 132 (15), 154104 (2010). 
 A consistent and accurate ab initio parametrization of density
 functional dispersion correction (DFT-D) for the 94 elements H-Pu.
 https://doi.org/10.1063/1.3382344

 VandeVondele, J; Hutter, J. 
 JOURNAL OF CHEMICAL PHYSICS, 127 (11), 114105 (2007). 
 Gaussian basis sets for accurate calculations on molecular systems in
 gas and condensed phases.
 https://doi.org/10.1063/1.2770708

 Krack, M. 
 THEORETICAL CHEMISTRY ACCOUNTS, 114 (1-3), 145-152 (2005). 
 Pseudopotentials for H to Kr optimized for gradient-corrected
 exchange-correlation functionals.
 https://doi.org/10.1007/s00214-005-0655-y

 VandeVondele, J; Krack, M; Mohamed, F; Parrinello, M; Chassaing, T;
 Hutter, J. COMPUTER PHYSICS COMMUNICATIONS, 167 (2), 103-128 (2005). 
 QUICKSTEP: Fast and accurate density functional calculations using a
 mixed Gaussian and plane waves approach.
 https://doi.org/10.1016/j.cpc.2004.12.014

 Frigo, M; Johnson, SG. 
 PROCEEDINGS OF THE IEEE, 93 (2), 216-231 (2005). 
 The design and implementation of FFTW3.
 https://doi.org/10.1109/JPROC.2004.840301

 Hartwigsen, C; Goedecker, S; Hutter, J. 
 PHYSICAL REVIEW B, 58 (7), 3641-3662 (1998). 
 Relativistic separable dual-space Gaussian pseudopotentials from H to Rn.
 https://doi.org/10.1103/PhysRevB.58.3641

 Lippert, G; Hutter, J; Parrinello, M. 
 MOLECULAR PHYSICS, 92 (3), 477-487 (1997). 
 A hybrid Gaussian and plane wave density functional scheme.
 https://doi.org/10.1080/002689797170220

 Perdew, JP; Burke, K; Ernzerhof, M. 
 PHYSICAL REVIEW LETTERS, 77 (18), 3865-3868 (1996). 
 Generalized gradient approximation made simple.
 https://doi.org/10.1103/PhysRevLett.77.3865

 Goedecker, S; Teter, M; Hutter, J. 
 PHYSICAL REVIEW B, 54 (3), 1703-1710 (1996). 
 Separable dual-space Gaussian pseudopotentials.
 https://doi.org/10.1103/PhysRevB.54.1703


 -------------------------------------------------------------------------------
 -                                                                             -
 -                                T I M I N G                                  -
 -                                                                             -
 -------------------------------------------------------------------------------
 SUBROUTINE                       CALLS  ASD         SELF TIME        TOTAL TIME
                                MAXIMUM       AVERAGE  MAXIMUM  AVERAGE  MAXIMUM
 CP2K                                 1  1.0    0.028    0.042  408.237  408.240
 qs_forces                            1  2.0    0.002    0.002  407.753  407.755
 qs_energies                          1  3.0    0.000    0.001  401.520  401.524
 scf_env_do_scf                       1  4.0    0.000    0.000  392.815  392.958
 scf_env_do_scf_inner_loop           57  5.0    0.003    0.008  392.815  392.958
 rebuild_ks_matrix                   58  6.9    0.000    0.000  208.849  208.904
 qs_ks_build_kohn_sham_matrix        58  7.9    0.009    0.010  208.849  208.904
 qs_ks_update_qs_env                 57  6.0    0.000    0.000  204.792  204.848
 pw_transfer                       3020 12.2    0.218    0.277  130.281  133.019
 fft_wrap_pw1pw2                   3020 13.2    0.030    0.036  130.063  132.773
 fft_wrap_pw1pw2_200               2672 14.4    8.894   10.470  128.304  130.912
 qs_scf_new_mos                      57  6.0    0.003    0.009  112.459  112.616
 pw_poisson_solve                    58  8.9    0.005    0.013  112.282  112.347
 fft3d_ps                          3020 15.2   37.973   42.235  104.277  108.316
 implicit_poisson_solver_mixed_      58  9.9    2.397    2.915  106.422  106.502
 eigensolver                         57  7.0    0.005    0.007  106.013  106.276
 derive_fft                         348 12.1    0.021    0.026   74.781   75.036
 cp_fm_diag_elpa                     58  8.0    0.001    0.001   74.110   74.298
 cp_fm_redistribute_end              58  9.0    9.672   73.409    9.806   73.498
 cp_fm_diag_elpa_base                58  9.0   62.729   71.775   63.334   72.530
 mp_alltoall_z22v                  3020 17.2   55.245   68.480   55.245   68.480
 qs_rho_update_rho_low               58  6.0    0.000    0.001   66.405   66.417
 calculate_rho_elec                  58  7.0    0.112    0.141   66.404   66.417
 sum_up_and_integrate                58  8.9    0.316    0.391   64.797   64.858
 integrate_v_rspace                  58  9.9    0.002    0.004   64.481   64.632
 apply_P_operator                   290 11.1    1.543    1.708   63.948   64.151
 grid_collocate_task_list            58  8.0   42.846   52.556   42.846   52.556
 grid_integrate_task_list            58 10.9   39.754   47.235   39.754   47.235
 x_to_yz                           1741 16.4    7.390    9.485   41.911   43.691
 rs_pw_transfer                     468 10.4    0.006    0.006   29.029   35.461
 cp_fm_triangular_multiply          171  8.0   32.980   33.341   32.980   33.341
 yz_to_x                            931 16.4    2.536    2.941   23.035   31.410
 qs_vxc_create                       58  8.9    0.002    0.007   28.481   28.833
 xc_vxc_pw_create                    58  9.9    0.495    0.610   28.480   28.832
 density_rs2pw                       58  8.0    0.004    0.004   22.232   28.792
 xc_pw_derive                       348 11.9    0.005    0.007   20.057   22.336
 mp_waitany                       21192 12.4   13.289   20.044   13.289   20.044
 rs_pw_transfer_RS2PW_200            60  9.9    3.899    4.420   13.402   19.830
 apply_poisson_operator_fft          58 10.9    0.001    0.001   18.785   19.092
 apply_inv_laplace_operator_fft     176 11.6    0.443    0.527   16.951   17.579
 potential_pw2rs                     58 10.9    0.017    0.019   16.453   16.571
 mp_alltoall_d11v                   819 10.3   10.070   16.403   10.070   16.403
 xc_pw_divergence                    58 10.9    0.003    0.004   13.580   15.228
 xc_rho_set_and_dset_create          58 10.9    0.288    0.341   13.882   14.920
 rs_gather_matrices                  58 10.9    0.069    0.088    8.261   14.416
 ps_implicit_compute_error_fft      116 10.9    0.731    0.885   12.543   13.449
 ps_implicit_compute_veps            58 10.9    0.336    0.403   12.716   12.939
 pw_scatter_p                      1915 15.4   10.751   12.607   10.751   12.607
 gspace_mixing                       56  6.0    0.107    0.132    9.958    9.960
 rs_pw_transfer_PW2RS_200            60 12.8    4.525    4.721    9.498    9.706
 pw_derive                         1392 13.1    8.855    9.430    8.855    9.430
 -------------------------------------------------------------------------------

 The number of warnings for this run is : 1
 
 -------------------------------------------------------------------------------
  **** **** ******  **  PROGRAM ENDED AT                 2023-12-02 22:14:58.612
 ***** ** ***  *** **   PROGRAM RAN ON                                     cu081
 **    ****   ******    PROGRAM RAN BY                                     jxzhu
 ***** **    ** ** **   PROGRAM PROCESS ID                                  2286
  **** **  *******  **  PROGRAM STOPPED IN /public/home/jxzhu/tmp_calc/14f02fc6d
                                           ce90570e6453e03351c9e224a45fe9a/calc/
                                           002200.000/search_lo.000000
