 DBCSR| CPU Multiplication driver                                           XSMM
 DBCSR| Multrec recursion limit                                              512
 DBCSR| Multiplication stack size                                           1000
 DBCSR| Maximum elements for images                                    UNLIMITED
 DBCSR| Multiplicative factor virtual images                                   1
 DBCSR| Use multiplication densification                                       T
 DBCSR| Multiplication size stacks                                             3
 DBCSR| Use memory pool for CPU allocation                                     F
 DBCSR| Number of 3D layers                                               SINGLE
 DBCSR| Use MPI memory allocation                                              F
 DBCSR| Use RMA algorithm                                                      F
 DBCSR| Use Communication thread                                               T
 DBCSR| Communication thread load                                             87
 DBCSR| MPI: My node id                                                        0
 DBCSR| MPI: Number of nodes                                                 128
 DBCSR| OMP: Current number of threads                                         1
 DBCSR| OMP: Max number of threads                                             1
 DBCSR| Split modifier for TAS multiplication algorithm                  1.0E+00


  **** **** ******  **  PROGRAM STARTED AT               2023-12-02 20:35:14.081
 ***** ** ***  *** **   PROGRAM STARTED ON                                 cu005
 **    ****   ******    PROGRAM STARTED BY                                 jxzhu
 ***** **    ** ** **   PROGRAM PROCESS ID                                 50872
  **** **  *******  **  PROGRAM STARTED IN /public/home/jxzhu/tmp_calc/832820baf
                                           f66b93540ac87c7b61c79468ca7fcf2/calc/
                                           002100.000/search_hi.000001

 CP2K| version string:                                       CP2K version 2022.1
 CP2K| source code revision number:                                  git:2caeb6f
 CP2K| cp2kflags: omp libint fftw3 libxc elpa parallel mpi3 scalapack cosma xsmm
 CP2K|             plumed2 spglib mkl sirius libvori libbqb
 CP2K| is freely available from                            https://www.cp2k.org/
 CP2K| Program compiled at                           Mon Jul 3 17:37:06 CST 2023
 CP2K| Program compiled on                                                 mu003
 CP2K| Program compiled for                                                local
 CP2K| Data directory path                             /public/home/jxzhu/basis/
 CP2K| Input file name                                                 input.inp
 
 GLOBAL| Force Environment number                                              1
 GLOBAL| Basis set file name                                        BASIS_MOLOPT
 GLOBAL| Potential file name                                      GTH_POTENTIALS
 GLOBAL| MM Potential file name                                     MM_POTENTIAL
 GLOBAL| Coordinate file name                                          coord.xyz
 GLOBAL| Method name                                                        CP2K
 GLOBAL| Project name                                                       cp2k
 GLOBAL| Run type                                                   ENERGY_FORCE
 GLOBAL| FFT library                                                       FFTW3
 GLOBAL| Diagonalization library                                            ELPA
 GLOBAL| Minimum number of eigenvectors for ELPA usage                        16
 GLOBAL| Orthonormality check for eigenvectors                          DISABLED
 GLOBAL| Matrix multiplication library                                     COSMA
 GLOBAL| All-to-all communication in single precision                          F
 GLOBAL| FFTs using library dependent lengths                                  T
 GLOBAL| Grid backend                                                       AUTO
 GLOBAL| Global print level                                               MEDIUM
 GLOBAL| MPI I/O enabled                                                       T
 GLOBAL| Total number of message passing processes                           128
 GLOBAL| Number of threads for this process                                    1
 GLOBAL| This output is from process                                           0
 GLOBAL| Stack size for threads created by OpenMP (OMP_STACKSIZE)        default
 GLOBAL| CPU model name                 Intel(R) Xeon(R) Gold 6338 CPU @ 2.00GHz
 GLOBAL| CPUID                                                              1003

 MEMORY| system memory details [Kb]
 MEMORY|                        rank 0           min           max       average
 MEMORY| MemTotal            263619172     263619172     263619172     263619172
 MEMORY| MemFree             211659612     203564988     211659860     207612310
 MEMORY| Buffers                    36            36            44            40
 MEMORY| Cached                1884636       1047340       1884636       1465989
 MEMORY| Slab                  1858232       1692360       1858232       1775296
 MEMORY| SReclaimable           307860        228852        307860        268356
 MEMORY| MemLikelyFree       213852144     204841228     213852392     209346696


 *** Fundamental physical constants (SI units) ***

 *** Literature: B. J. Mohr and B. N. Taylor,
 ***             CODATA recommended values of the fundamental physical
 ***             constants: 2006, Web Version 5.1
 ***             http://physics.nist.gov/constants

 Speed of light in vacuum [m/s]                             2.99792458000000E+08
 Magnetic constant or permeability of vacuum [N/A**2]       1.25663706143592E-06
 Electric constant or permittivity of vacuum [F/m]          8.85418781762039E-12
 Planck constant (h) [J*s]                                  6.62606896000000E-34
 Planck constant (h-bar) [J*s]                              1.05457162825177E-34
 Elementary charge [C]                                      1.60217648700000E-19
 Electron mass [kg]                                         9.10938215000000E-31
 Electron g factor [ ]                                     -2.00231930436220E+00
 Proton mass [kg]                                           1.67262163700000E-27
 Fine-structure constant                                    7.29735253760000E-03
 Rydberg constant [1/m]                                     1.09737315685270E+07
 Avogadro constant [1/mol]                                  6.02214179000000E+23
 Boltzmann constant [J/K]                                   1.38065040000000E-23
 Atomic mass unit [kg]                                      1.66053878200000E-27
 Bohr radius [m]                                            5.29177208590000E-11

 *** Conversion factors ***

 [u] -> [a.u.]                                              1.82288848426455E+03
 [Angstrom] -> [Bohr] = [a.u.]                              1.88972613288564E+00
 [a.u.] = [Bohr] -> [Angstrom]                              5.29177208590000E-01
 [a.u.] -> [s]                                              2.41888432650478E-17
 [a.u.] -> [fs]                                             2.41888432650478E-02
 [a.u.] -> [J]                                              4.35974393937059E-18
 [a.u.] -> [N]                                              8.23872205491840E-08
 [a.u.] -> [K]                                              3.15774647902944E+05
 [a.u.] -> [kJ/mol]                                         2.62549961709828E+03
 [a.u.] -> [kcal/mol]                                       6.27509468713739E+02
 [a.u.] -> [Pa]                                             2.94210107994716E+13
 [a.u.] -> [bar]                                            2.94210107994716E+08
 [a.u.] -> [atm]                                            2.90362800883016E+08
 [a.u.] -> [eV]                                             2.72113838565563E+01
 [a.u.] -> [Hz]                                             6.57968392072181E+15
 [a.u.] -> [1/cm] (wave numbers)                            2.19474631370540E+05
 [a.u./Bohr**2] -> [1/cm]                                   5.14048714338585E+03
 

 CELL_TOP| Volume [angstrom^3]:                                     17614.982639
 CELL_TOP| Vector a [angstrom    16.869     0.000     0.000   |a| =    16.869000
 CELL_TOP| Vector b [angstrom    -8.434    14.609     0.000   |b| =    16.869015
 CELL_TOP| Vector c [angstrom     0.000     0.000    71.478   |c| =    71.478000
 CELL_TOP| Angle (b,c), alpha [degree]:                                90.000000
 CELL_TOP| Angle (a,c), beta  [degree]:                                90.000000
 CELL_TOP| Angle (a,b), gamma [degree]:                               119.999970
 CELL_TOP| Numerically orthorhombic:                                          NO
 
 GENERATE|  Preliminary Number of Bonds generated:                             0
 GENERATE|  Achieved consistency in connectivity generation.

 CELL| Volume [angstrom^3]:                                         17614.982639
 CELL| Vector a [angstrom]:      16.869     0.000     0.000   |a| =    16.869000
 CELL| Vector b [angstrom]:      -8.434    14.609     0.000   |b| =    16.869015
 CELL| Vector c [angstrom]:       0.000     0.000    71.478   |c| =    71.478000
 CELL| Angle (b,c), alpha [degree]:                                    90.000000
 CELL| Angle (a,c), beta  [degree]:                                    90.000000
 CELL| Angle (a,b), gamma [degree]:                                   119.999970
 CELL| Numerically orthorhombic:                                              NO

 CELL_REF| Volume [angstrom^3]:                                     17614.982639
 CELL_REF| Vector a [angstrom    16.869     0.000     0.000   |a| =    16.869000
 CELL_REF| Vector b [angstrom    -8.434    14.609     0.000   |b| =    16.869015
 CELL_REF| Vector c [angstrom     0.000     0.000    71.478   |c| =    71.478000
 CELL_REF| Angle (b,c), alpha [degree]:                                90.000000
 CELL_REF| Angle (a,c), beta  [degree]:                                90.000000
 CELL_REF| Angle (a,b), gamma [degree]:                               119.999970
 CELL_REF| Numerically orthorhombic:                                          NO

 *******************************************************************************
 *******************************************************************************
 **                                                                           **
 **     #####                         ##              ##                      **
 **    ##   ##            ##          ##              ##                      **
 **   ##     ##                       ##            ######                    **
 **   ##     ##  ##   ##  ##   #####  ##  ##   ####   ##    #####    #####    **
 **   ##     ##  ##   ##  ##  ##      ## ##   ##      ##   ##   ##  ##   ##   **
 **   ##  ## ##  ##   ##  ##  ##      ####     ###    ##   ######   ######    **
 **    ##  ###   ##   ##  ##  ##      ## ##      ##   ##   ##       ##        **
 **     #######   #####   ##   #####  ##  ##  ####    ##    #####   ##        **
 **           ##                                                    ##        **
 **                                                                           **
 **                                                ... make the atoms dance   **
 **                                                                           **
 **            Copyright (C) by CP2K developers group (2000-2022)             **
 **                      J. Chem. Phys. 152, 194103 (2020)                    **
 **                                                                           **
 *******************************************************************************

 DFT| Spin restricted Kohn-Sham (RKS) calculation                            RKS
 DFT| Multiplicity                                                             1
 DFT| Number of spin states                                                    1
 DFT| Charge                                                                   0
 DFT| Self-interaction correction (SIC)                                       NO
 DFT| Cutoffs: density                                              1.000000E-10
 DFT|          gradient                                             1.000000E-10
 DFT|          tau                                                  1.000000E-10
 DFT|          cutoff_smoothing_range                               0.000000E+00
 DFT| XC density smoothing                                                  NONE
 DFT| XC derivatives                                                          PW

 FUNCTIONAL| PBE:
 FUNCTIONAL| J.P.Perdew, K.Burke, M.Ernzerhof, Phys. Rev. Letter, vol. 77, n 18,
 FUNCTIONAL|  pp. 3865-3868, (1996){spin unpolarized}                           

 vdW POTENTIAL|                                                   Pair Potential
 vdW POTENTIAL|          DFT-D3 (Version 3.1)
 vdW POTENTIAL|          Potential Form: S. Grimme et al, JCP 132: 154104 (2010)
 vdW POTENTIAL|          Zero Damping
 vdW POTENTIAL|          Cutoff Radius [Bohr]:                             20.00
 vdW POTENTIAL|          s6 Scaling Factor:                               1.0000
 vdW POTENTIAL|          sr6 Scaling Factor:                              1.2170
 vdW POTENTIAL|          s8 Scaling Factor:                               0.7220
 vdW POTENTIAL|          Cutoff for CN calculation:                   0.1000E-05

 QS| Method:                                                                 GPW
 QS| Density plane wave grid type                        NON-SPHERICAL FULLSPACE
 QS| Number of grid levels:                                                    4
 QS| Density cutoff [a.u.]:                                                200.0
 QS| Multi grid cutoff [a.u.]: 1) grid level                               200.0
 QS|                           2) grid level                                66.7
 QS|                           3) grid level                                22.2
 QS|                           4) grid level                                 7.4
 QS| Grid level progression factor:                                          3.0
 QS| Relative density cutoff [a.u.]:                                        20.0
 QS| Interaction thresholds: eps_pgf_orb:                                3.2E-07
 QS|                         eps_filter_matrix:                          0.0E+00
 QS|                         eps_core_charge:                            1.0E-15
 QS|                         eps_rho_gspace:                             1.0E-13
 QS|                         eps_rho_rspace:                             1.0E-13
 QS|                         eps_gvg_rspace:                             3.2E-07
 QS|                         eps_ppl:                                    1.0E-02
 QS|                         eps_ppnl:                                   3.2E-09


 ATOMIC KIND INFORMATION

  1. Atomic kind: O                                     Number of atoms:     102

     Orbital Basis Set                                        DZVP-MOLOPT-SR-GTH

       Number of orbital shell sets:                                           1
       Number of orbital shells:                                               5
       Number of primitive Cartesian functions:                                5
       Number of Cartesian basis functions:                                   14
       Number of spherical basis functions:                                   13
       Norm type:                                                              2

       Normalised Cartesian orbitals:

                        Set   Shell   Orbital            Exponent    Coefficient

                          1       1    2s               10.389228       0.396646
                                                         3.849621       0.208811
                                                         1.388401      -0.301641
                                                         0.496955      -0.274061
                                                         0.162492      -0.033677

                          1       2    3s               10.389228       0.303673
                                                         3.849621       0.240943
                                                         1.388401      -0.313066
                                                         0.496955      -0.043055
                                                         0.162492       0.213991

                          1       3    3px              10.389228      -1.530415
                                                         3.849621      -1.371928
                                                         1.388401      -0.761951
                                                         0.496955      -0.253695
                                                         0.162492      -0.035541
                          1       3    3py              10.389228      -1.530415
                                                         3.849621      -1.371928
                                                         1.388401      -0.761951
                                                         0.496955      -0.253695
                                                         0.162492      -0.035541
                          1       3    3pz              10.389228      -1.530415
                                                         3.849621      -1.371928
                                                         1.388401      -0.761951
                                                         0.496955      -0.253695
                                                         0.162492      -0.035541

                          1       4    4px              10.389228      -0.565392
                                                         3.849621      -0.038231
                                                         1.388401      -0.382373
                                                         0.496955       0.179070
                                                         0.162492       0.122714
                          1       4    4py              10.389228      -0.565392
                                                         3.849621      -0.038231
                                                         1.388401      -0.382373
                                                         0.496955       0.179070
                                                         0.162492       0.122714
                          1       4    4pz              10.389228      -0.565392
                                                         3.849621      -0.038231
                                                         1.388401      -0.382373
                                                         0.496955       0.179070
                                                         0.162492       0.122714

                          1       5    4dx2             10.389228       1.867377
                                                         3.849621       0.670994
                                                         1.388401       1.353441
                                                         0.496955       0.273538
                                                         0.162492       0.006620
                          1       5    4dxy             10.389228       3.234392
                                                         3.849621       1.162195
                                                         1.388401       2.344229
                                                         0.496955       0.473781
                                                         0.162492       0.011466
                          1       5    4dxz             10.389228       3.234392
                                                         3.849621       1.162195
                                                         1.388401       2.344229
                                                         0.496955       0.473781
                                                         0.162492       0.011466
                          1       5    4dy2             10.389228       1.867377
                                                         3.849621       0.670994
                                                         1.388401       1.353441
                                                         0.496955       0.273538
                                                         0.162492       0.006620
                          1       5    4dyz             10.389228       3.234392
                                                         3.849621       1.162195
                                                         1.388401       2.344229
                                                         0.496955       0.473781
                                                         0.162492       0.011466
                          1       5    4dz2             10.389228       1.867377
                                                         3.849621       0.670994
                                                         1.388401       1.353441
                                                         0.496955       0.273538
                                                         0.162492       0.006620

       Atomic covalent radius [Angstrom]:                                  0.730

       Atomic van der Waals radius [Angstrom]:                             1.520

     GTH Potential information for                                    GTH-PBE-q6

       Description:                       Goedecker-Teter-Hutter pseudopotential
                                           Goedecker et al., PRB 54, 1703 (1996)
                                          Hartwigsen et al., PRB 58, 3641 (1998)
                                                      Krack, TCA 114, 145 (2005)

       Gaussian exponent of the core charge distribution:               8.360253
       Electronic configuration (s p d ...):                               2   4

       Parameters of the local part of the GTH pseudopotential:

                          rloc        C1          C2          C3          C4
                        0.244554  -16.667215    2.487311

       Parameters of the non-local part of the GTH pseudopotential:

                   l      r(l)      h(i,j,l)

                   0    0.220956   18.337458
                   1    0.211332

  2. Atomic kind: H                                     Number of atoms:     204

     Orbital Basis Set                                        DZVP-MOLOPT-SR-GTH

       Number of orbital shell sets:                                           1
       Number of orbital shells:                                               3
       Number of primitive Cartesian functions:                                5
       Number of Cartesian basis functions:                                    5
       Number of spherical basis functions:                                    5
       Norm type:                                                              2

       Normalised Cartesian orbitals:

                        Set   Shell   Orbital            Exponent    Coefficient

                          1       1    2s               10.068468      -0.133023
                                                         2.680223      -0.177618
                                                         0.791502      -0.258419
                                                         0.239116      -0.107525
                                                         0.082193      -0.014019

                          1       2    3s               10.068468       0.344673
                                                         2.680223       1.819821
                                                         0.791502      -0.999069
                                                         0.239116       0.017430
                                                         0.082193       0.082660

                          1       3    3px              10.068468       0.155326
                                                         2.680223       0.367157
                                                         0.791502       0.311480
                                                         0.239116       0.080105
                                                         0.082193       0.033440
                          1       3    3py              10.068468       0.155326
                                                         2.680223       0.367157
                                                         0.791502       0.311480
                                                         0.239116       0.080105
                                                         0.082193       0.033440
                          1       3    3pz              10.068468       0.155326
                                                         2.680223       0.367157
                                                         0.791502       0.311480
                                                         0.239116       0.080105
                                                         0.082193       0.033440

       Atomic covalent radius [Angstrom]:                                  0.320

       Atomic van der Waals radius [Angstrom]:                             1.090

     GTH Potential information for                                    GTH-PBE-q1

       Description:                       Goedecker-Teter-Hutter pseudopotential
                                           Goedecker et al., PRB 54, 1703 (1996)
                                          Hartwigsen et al., PRB 58, 3641 (1998)
                                                      Krack, TCA 114, 145 (2005)

       Gaussian exponent of the core charge distribution:              12.500000
       Electronic configuration (s p d ...):                                   1

       Parameters of the local part of the GTH pseudopotential:

                          rloc        C1          C2          C3          C4
                        0.200000   -4.178900    0.724463

  3. Atomic kind: Pt                                    Number of atoms:     216

     Orbital Basis Set                      DZVP-A5-Q10-323-MOL-T1-DERIVED_SET-1

       Number of orbital shell sets:                                           1
       Number of orbital shells:                                               6
       Number of primitive Cartesian functions:                                5
       Number of Cartesian basis functions:                                   23
       Number of spherical basis functions:                                   20
       Norm type:                                                              2

       Normalised Cartesian orbitals:

                        Set   Shell   Orbital            Exponent    Coefficient

                          1       1    2s                2.521825       0.177473
                                                         1.453920      -0.063399
                                                         0.614053      -0.407089
                                                         0.232656       0.262254
                                                         0.074788       0.047371

                          1       2    3s                2.521825      -0.049056
                                                         1.453920       0.044904
                                                         0.614053      -0.009756
                                                         0.232656      -0.144709
                                                         0.074788       0.144085

                          1       3    3px               2.521825      -0.317572
                                                         1.453920       0.534826
                                                         0.614053      -0.489458
                                                         0.232656       0.245631
                                                         0.074788       0.018221
                          1       3    3py               2.521825      -0.317572
                                                         1.453920       0.534826
                                                         0.614053      -0.489458
                                                         0.232656       0.245631
                                                         0.074788       0.018221
                          1       3    3pz               2.521825      -0.317572
                                                         1.453920       0.534826
                                                         0.614053      -0.489458
                                                         0.232656       0.245631
                                                         0.074788       0.018221

                          1       4    4dx2              2.521825       3.008522
                                                         1.453920      -1.224251
                                                         0.614053       0.225691
                                                         0.232656       0.125144
                                                         0.074788      -0.015348
                          1       4    4dxy              2.521825       5.210912
                                                         1.453920      -2.120465
                                                         0.614053       0.390909
                                                         0.232656       0.216756
                                                         0.074788      -0.026584
                          1       4    4dxz              2.521825       5.210912
                                                         1.453920      -2.120465
                                                         0.614053       0.390909
                                                         0.232656       0.216756
                                                         0.074788      -0.026584
                          1       4    4dy2              2.521825       3.008522
                                                         1.453920      -1.224251
                                                         0.614053       0.225691
                                                         0.232656       0.125144
                                                         0.074788      -0.015348
                          1       4    4dyz              2.521825       5.210912
                                                         1.453920      -2.120465
                                                         0.614053       0.390909
                                                         0.232656       0.216756
                                                         0.074788      -0.026584
                          1       4    4dz2              2.521825       3.008522
                                                         1.453920      -1.224251
                                                         0.614053       0.225691
                                                         0.232656       0.125144
                                                         0.074788      -0.015348

                          1       5    5dx2              2.521825       0.698026
                                                         1.453920      -1.511486
                                                         0.614053      -0.335394
                                                         0.232656      -0.025564
                                                         0.074788      -0.002699
                          1       5    5dxy              2.521825       1.209017
                                                         1.453920      -2.617970
                                                         0.614053      -0.580920
                                                         0.232656      -0.044277
                                                         0.074788      -0.004674
                          1       5    5dxz              2.521825       1.209017
                                                         1.453920      -2.617970
                                                         0.614053      -0.580920
                                                         0.232656      -0.044277
                                                         0.074788      -0.004674
                          1       5    5dy2              2.521825       0.698026
                                                         1.453920      -1.511486
                                                         0.614053      -0.335394
                                                         0.232656      -0.025564
                                                         0.074788      -0.002699
                          1       5    5dyz              2.521825       1.209017
                                                         1.453920      -2.617970
                                                         0.614053      -0.580920
                                                         0.232656      -0.044277
                                                         0.074788      -0.004674
                          1       5    5dz2              2.521825       0.698026
                                                         1.453920      -1.511486
                                                         0.614053      -0.335394
                                                         0.232656      -0.025564
                                                         0.074788      -0.002699

                          1       6    6dx2              2.521825       0.831079
                                                         1.453920      -0.709226
                                                         0.614053      -0.137351
                                                         0.232656       0.068642
                                                         0.074788       0.011745
                          1       6    6dxy              2.521825       1.439472
                                                         1.453920      -1.228415
                                                         0.614053      -0.237899
                                                         0.232656       0.118891
                                                         0.074788       0.020343
                          1       6    6dxz              2.521825       1.439472
                                                         1.453920      -1.228415
                                                         0.614053      -0.237899
                                                         0.232656       0.118891
                                                         0.074788       0.020343
                          1       6    6dy2              2.521825       0.831079
                                                         1.453920      -0.709226
                                                         0.614053      -0.137351
                                                         0.232656       0.068642
                                                         0.074788       0.011745
                          1       6    6dyz              2.521825       1.439472
                                                         1.453920      -1.228415
                                                         0.614053      -0.237899
                                                         0.232656       0.118891
                                                         0.074788       0.020343
                          1       6    6dz2              2.521825       0.831079
                                                         1.453920      -0.709226
                                                         0.614053      -0.137351
                                                         0.232656       0.068642
                                                         0.074788       0.011745

       Atomic covalent radius [Angstrom]:                                  1.300

       Atomic van der Waals radius [Angstrom]:                             1.750

     GTH Potential information for                                   GTH-PBE-q10

       Description:                       Goedecker-Teter-Hutter pseudopotential
                                           Goedecker et al., PRB 54, 1703 (1996)
                                          Hartwigsen et al., PRB 58, 3641 (1998)
                                                      Krack, TCA 114, 145 (2005)

       Gaussian exponent of the core charge distribution:               1.317676
       Electronic configuration (s p d ...):                           1   0   9

       Parameters of the local part of the GTH pseudopotential:

                          rloc        C1          C2          C3          C4
                        0.616000   11.313635

       Parameters of the non-local part of the GTH pseudopotential:

                   l      r(l)      h(i,j,l)

                   0    0.550904    4.733491   -1.784594
                                   -1.784594    2.303901
                   1    0.674138    2.534798   -1.778066
                                   -1.778066    2.103836
                   2    0.457392   -7.264011    2.558665
                                    2.558665   -2.901253


 MOLECULE KIND INFORMATION


 All atoms are their own molecule, skipping detailed information


 TOTAL NUMBERS AND MAXIMUM NUMBERS

  Total number of            - Atomic kinds:                                   3
                             - Atoms:                                        522
                             - Shell sets:                                   522
                             - Shells:                                      2418
                             - Primitive Cartesian functions:               2610
                             - Cartesian basis functions:                   7416
                             - Spherical basis functions:                   6666

  Maximum angular momentum of- Orbital basis functions:                        2
                             - Local part of the GTH pseudopotential:          2
                             - Non-local part of the GTH pseudopotential:      4


 MODULE QUICKSTEP:  ATOMIC COORDINATES IN angstrom

 Atom  Kind  Element       X           Y           Z          Z(eff)       Mass
    1   1 O    8      18.590000  -29.190002   36.067999       6.0000     15.9994
    2   2 H    1      18.190001  -29.260002   36.938000       1.0000      1.0079
    3   2 H    1      19.400002  -29.690001   35.927999       1.0000      1.0079
    4   1 O    8     -20.000000   15.320001   37.138000       6.0000     15.9994
    5   2 H    1     -20.610001   14.590001   36.667997       1.0000      1.0079
    6   2 H    1     -20.600002   16.080000   37.308000       1.0000      1.0079
    7   1 O    8     -21.220001  -12.600001   30.598001       6.0000     15.9994
    8   2 H    1     -20.800001  -12.180000   29.827997       1.0000      1.0079
    9   2 H    1     -20.990002  -13.540001   30.448000       1.0000      1.0079
   10   1 O    8      -1.350000  -13.930000   29.437998       6.0000     15.9994
   11   2 H    1      -1.070000  -12.980001   29.747999       1.0000      1.0079
   12   2 H    1      -0.770000  -14.400001   30.057997       1.0000      1.0079
   13   1 O    8       2.010000   24.890001   30.097998       6.0000     15.9994
   14   2 H    1       2.180000   25.410002   29.297998       1.0000      1.0079
   15   2 H    1       2.510000   24.050003   29.827997       1.0000      1.0079
   16   1 O    8     -15.410002   17.880001   34.897997       6.0000     15.9994
   17   2 H    1     -15.460001   18.620001   35.558000       1.0000      1.0079
   18   2 H    1     -16.320002   17.680000   34.487999       1.0000      1.0079
   19   1 O    8       3.730000  -14.730001   39.917999       6.0000     15.9994
   20   2 H    1       2.900000  -15.140000   39.657999       1.0000      1.0079
   21   2 H    1       4.420000  -15.270000   39.577999       1.0000      1.0079
   22   1 O    8     -19.370001   40.389999   30.197996       6.0000     15.9994
   23   2 H    1     -19.390001   40.970001   29.407999       1.0000      1.0079
   24   2 H    1      -2.650000   39.529999   29.797998       1.0000      1.0079
   25   1 O    8     -14.310001    2.950000   39.847999       6.0000     15.9994
   26   2 H    1     -23.420000   17.990002   39.278000       1.0000      1.0079
   27   2 H    1     -14.270000    1.980000   39.717998       1.0000      1.0079
   28   1 O    8      -5.560000   26.480003   36.147997       6.0000     15.9994
   29   2 H    1      -5.810000   25.850000   35.328001       1.0000      1.0079
   30   2 H    1      -6.440001   26.470001   36.587999       1.0000      1.0079
   31   1 O    8     -30.810001   -1.680000   29.327997       6.0000     15.9994
   32   2 H    1     -31.660002   -1.170000   29.537996       1.0000      1.0079
   33   2 H    1     -30.030003   -1.170000   29.677999       1.0000      1.0079
   34   1 O    8     -10.000000    3.480000   38.577997       6.0000     15.9994
   35   2 H    1     -10.470000    2.690000   38.437998       1.0000      1.0079
   36   2 H    1      -9.230001    3.240000   38.007999       1.0000      1.0079
   37   1 O    8     -21.230001   17.900002   37.507999       6.0000     15.9994
   38   2 H    1     -21.840000   17.990002   38.358000       1.0000      1.0079
   39   2 H    1     -21.870001   17.740000   36.837997       1.0000      1.0079
   40   1 O    8     -20.410002   14.180001   30.538000       6.0000     15.9994
   41   2 H    1     -28.870001   28.300001   31.448000       1.0000      1.0079
   42   2 H    1     -19.550001   14.550000   30.287996       1.0000      1.0079
   43   1 O    8      -8.950001    2.640000   30.897999       6.0000     15.9994
   44   2 H    1      -7.960001    2.910000   30.777998       1.0000      1.0079
   45   2 H    1      -9.400001    3.520000   30.667999       1.0000      1.0079
   46   1 O    8     -33.300003   14.350000   35.717998       6.0000     15.9994
   47   2 H    1     -33.310001   13.540001   36.267999       1.0000      1.0079
   48   2 H    1     -32.470001   14.300001   35.117998       1.0000      1.0079
   49   1 O    8      -2.040000   -2.340000   33.047998       6.0000     15.9994
   50   2 H    1      -1.160000   -2.450000   33.347998       1.0000      1.0079
   51   2 H    1      -2.590000   -1.870000   33.727999       1.0000      1.0079
   52   1 O    8     -31.870001   18.010002   30.417997       6.0000     15.9994
   53   2 H    1     -31.400002   18.390001   31.277998       1.0000      1.0079
   54   2 H    1     -31.350002   17.210001   30.277998       1.0000      1.0079
   55   1 O    8      -8.140000   -2.740000   37.378000       6.0000     15.9994
   56   2 H    1      -7.910000   -2.720000   38.307999       1.0000      1.0079
   57   2 H    1      -9.040001   -3.300000   37.157999       1.0000      1.0079
   58   1 O    8      34.620003   -9.010000   36.377998       6.0000     15.9994
   59   2 H    1      34.660000   -8.260000   35.747999       1.0000      1.0079
   60   2 H    1      33.740002   -8.840000   36.827999       1.0000      1.0079
   61   1 O    8       1.950000   -2.120000   38.967998       6.0000     15.9994
   62   2 H    1       1.420000   -2.160000   38.108000       1.0000      1.0079
   63   2 H    1       1.260000   -2.550000   39.577999       1.0000      1.0079
   64   1 O    8     -49.630005    6.210001   36.938000       6.0000     15.9994
   65   2 H    1     -31.890001    6.730001   36.878000       1.0000      1.0079
   66   2 H    1     -33.450005    6.890000   36.878000       1.0000      1.0079
   67   1 O    8      -9.340000   20.180000   32.448000       6.0000     15.9994
   68   2 H    1      -9.160001   20.930002   31.878000       1.0000      1.0079
   69   2 H    1      -8.760000   20.170002   33.217998       1.0000      1.0079
   70   1 O    8     -21.870001   22.670002   31.077997       6.0000     15.9994
   71   2 H    1     -21.860001   22.510002   32.047998       1.0000      1.0079
   72   2 H    1     -20.910000   23.010002   30.947998       1.0000      1.0079
   73   1 O    8      -9.640000   -6.810000   37.247999       6.0000     15.9994
   74   2 H    1     -10.450001   -7.330000   36.938000       1.0000      1.0079
   75   2 H    1      -9.700001   -6.640000   38.227999       1.0000      1.0079
   76   1 O    8      18.160002    9.310000   29.858000       6.0000     15.9994
   77   2 H    1      18.600002    9.360001   28.997999       1.0000      1.0079
   78   2 H    1      18.850000    9.020000   30.477999       1.0000      1.0079
   79   1 O    8      29.350002   10.880001   39.577999       6.0000     15.9994
   80   2 H    1      28.560001   11.370001   39.347999       1.0000      1.0079
   81   2 H    1      29.220001    9.940001   39.497999       1.0000      1.0079
   82   1 O    8     -15.260000   29.480001   32.877998       6.0000     15.9994
   83   2 H    1     -15.530001   29.570004   31.917999       1.0000      1.0079
   84   2 H    1     -14.390000   30.040001   32.968000       1.0000      1.0079
   85   1 O    8       0.820000   -0.030000   30.147997       6.0000     15.9994
   86   2 H    1      -0.040000   -0.500000   30.378000       1.0000      1.0079
   87   2 H    1       0.420000    0.610000   29.517999       1.0000      1.0079
   88   1 O    8      -7.860000   31.110001   37.608000       6.0000     15.9994
   89   2 H    1      -7.930000   30.530003   36.808000       1.0000      1.0079
   90   2 H    1      -7.700000   30.580002   38.397999       1.0000      1.0079
   91   1 O    8      -2.950000    6.160001   36.007997       6.0000     15.9994
   92   2 H    1     -12.190001   21.049999   36.457998       1.0000      1.0079
   93   2 H    1      -2.810000    5.280000   36.307999       1.0000      1.0079
   94   1 O    8      21.680002   -1.320000   32.938000       6.0000     15.9994
   95   2 H    1      20.990002   -2.080000   32.987997       1.0000      1.0079
   96   2 H    1      22.540001   -1.730000   33.017998       1.0000      1.0079
   97   1 O    8      -1.320000   -7.700000   37.757997       6.0000     15.9994
   98   2 H    1      -1.360000   -7.750000   38.757999       1.0000      1.0079
   99   2 H    1      -2.060000   -8.300000   37.317999       1.0000      1.0079
  100   1 O    8      13.280001    1.240000   34.127998       6.0000     15.9994
  101   2 H    1      12.630000    2.020000   34.017999       1.0000      1.0079
  102   2 H    1      14.160000    1.640000   34.137998       1.0000      1.0079
  103   1 O    8     -10.110001   26.680002   39.898001       6.0000     15.9994
  104   2 H    1     -10.310000   27.660000   39.968000       1.0000      1.0079
  105   2 H    1     -11.030001   26.310001   39.747999       1.0000      1.0079
  106   1 O    8      -4.500000  -12.980001   33.247999       6.0000     15.9994
  107   2 H    1      -3.690000  -13.380001   33.647997       1.0000      1.0079
  108   2 H    1      -4.190001  -12.560000   32.397997       1.0000      1.0079
  109   1 O    8     -10.420000  -10.170001   39.387998       6.0000     15.9994
  110   2 H    1     -10.710001   -9.630001   40.128000       1.0000      1.0079
  111   2 H    1      -9.410001  -10.100000   39.237997       1.0000      1.0079
  112   1 O    8      27.450001   -0.230000   33.347998       6.0000     15.9994
  113   2 H    1      27.660000   -1.180000   33.077999       1.0000      1.0079
  114   2 H    1      28.190002    0.310000   33.198000       1.0000      1.0079
  115   1 O    8     -37.140003   28.030003   35.507999       6.0000     15.9994
  116   2 H    1     -20.280001   28.900002   34.938000       1.0000      1.0079
  117   2 H    1     -37.970001   27.530001   35.528000       1.0000      1.0079
  118   1 O    8      24.180002   -5.010000   33.827999       6.0000     15.9994
  119   2 H    1      24.170000   -4.160000   33.297998       1.0000      1.0079
  120   2 H    1      23.910000   -4.620000   34.687998       1.0000      1.0079
  121   1 O    8       7.880001   16.390001   34.197998       6.0000     15.9994
  122   2 H    1       7.910000   16.400002   35.187998       1.0000      1.0079
  123   2 H    1       8.520000   15.700001   33.957998       1.0000      1.0079
  124   1 O    8      -1.440000   17.780001   33.688000       6.0000     15.9994
  125   2 H    1      -0.960000   17.700001   32.837999       1.0000      1.0079
  126   2 H    1      -1.670000   16.860001   34.087999       1.0000      1.0079
  127   1 O    8      -0.830000    2.280000   36.967998       6.0000     15.9994
  128   2 H    1      -1.830000    2.480000   36.917999       1.0000      1.0079
  129   2 H    1      -0.770000    1.340000   37.438000       1.0000      1.0079
  130   1 O    8     -19.040001   14.670001   39.577999       6.0000     15.9994
  131   2 H    1     -18.240002   15.190001   39.927997       1.0000      1.0079
  132   2 H    1     -19.210001   14.980001   38.667999       1.0000      1.0079
  133   1 O    8       5.950000  -13.260001   30.378000       6.0000     15.9994
  134   2 H    1       6.300001  -12.650002   31.087999       1.0000      1.0079
  135   2 H    1       6.090000  -12.840000   29.477999       1.0000      1.0079
  136   1 O    8     -18.880001   53.209999   34.227999       6.0000     15.9994
  137   2 H    1     -19.670002   53.170006   34.817999       1.0000      1.0079
  138   2 H    1     -18.950001   54.120003   33.907999       1.0000      1.0079
  139   1 O    8       8.530001   28.450001   31.267999       6.0000     15.9994
  140   2 H    1      17.400002   13.260001   30.617998       1.0000      1.0079
  141   2 H    1      -7.640000   28.890001   31.778000       1.0000      1.0079
  142   1 O    8       6.580000    0.870000   34.617998       6.0000     15.9994
  143   2 H    1       7.420001    0.380000   34.577999       1.0000      1.0079
  144   2 H    1       6.340000    0.690000   35.567999       1.0000      1.0079
  145   1 O    8      -0.590000   -7.190001   32.997999       6.0000     15.9994
  146   2 H    1      -1.220000   -7.880001   33.388000       1.0000      1.0079
  147   2 H    1      -0.900000   -6.350000   33.337999       1.0000      1.0079
  148   1 O    8       2.690000    2.720000   35.317999       6.0000     15.9994
  149   2 H    1       3.380000    2.540000   34.677999       1.0000      1.0079
  150   2 H    1       2.170000    1.920000   35.337999       1.0000      1.0079
  151   1 O    8      -4.810000   21.730001   33.727999       6.0000     15.9994
  152   2 H    1      -5.470000   21.030003   33.847999       1.0000      1.0079
  153   2 H    1      -3.950000   21.220001   33.747997       1.0000      1.0079
  154   1 O    8     -32.370003    5.130000   34.297998       6.0000     15.9994
  155   2 H    1     -32.700001    5.580000   35.108000       1.0000      1.0079
  156   2 H    1     -32.070004    4.120000   34.507999       1.0000      1.0079
  157   1 O    8     -17.220001   -5.380001   36.497999       6.0000     15.9994
  158   2 H    1     -17.810001   -5.360000   35.687998       1.0000      1.0079
  159   2 H    1     -17.610001   -6.180000   36.867998       1.0000      1.0079
  160   1 O    8      -3.730000   -2.840000   30.247999       6.0000     15.9994
  161   2 H    1      -2.920000   -2.280000   30.347998       1.0000      1.0079
  162   2 H    1      -3.430000   -3.820000   30.067999       1.0000      1.0079
  163   1 O    8      -2.560000   -9.130000   34.067999       6.0000     15.9994
  164   2 H    1      -2.380000  -10.060000   33.788000       1.0000      1.0079
  165   2 H    1      -2.710000   -9.120001   35.017999       1.0000      1.0079
  166   1 O    8       0.330000   -2.610000   36.827999       6.0000     15.9994
  167   2 H    1       0.490000   -2.310000   35.888000       1.0000      1.0079
  168   2 H    1      -0.430000   -3.230000   36.878000       1.0000      1.0079
  169   1 O    8       8.860001   18.690001   38.547998       6.0000     15.9994
  170   2 H    1       8.460000   18.050001   37.917997       1.0000      1.0079
  171   2 H    1       9.080001   19.420002   37.898001       1.0000      1.0079
  172   1 O    8      20.220001   44.810005   30.437998       6.0000     15.9994
  173   2 H    1      20.010002   44.150005   29.797998       1.0000      1.0079
  174   2 H    1      21.240002   44.900002   30.457998       1.0000      1.0079
  175   1 O    8       6.960001   -2.580000   32.657999       6.0000     15.9994
  176   2 H    1       7.610001   -1.950000   32.337999       1.0000      1.0079
  177   2 H    1       6.590000   -2.980000   31.858000       1.0000      1.0079
  178   1 O    8     -25.550001  -14.490002   38.097999       6.0000     15.9994
  179   2 H    1     -26.220001  -15.250001   37.868000       1.0000      1.0079
  180   2 H    1     -25.330002  -14.380001   39.037998       1.0000      1.0079
  181   1 O    8     -28.170002   13.300000   38.157999       6.0000     15.9994
  182   2 H    1     -28.350000   13.420000   37.168001       1.0000      1.0079
  183   2 H    1     -28.040001   12.350000   38.367998       1.0000      1.0079
  184   1 O    8     -10.730000   10.610001   38.797998       6.0000     15.9994
  185   2 H    1      -9.850000   10.440001   39.247999       1.0000      1.0079
  186   2 H    1      -3.090000   -4.060000   39.407999       1.0000      1.0079
  187   1 O    8      -5.300000    6.170001   37.587999       6.0000     15.9994
  188   2 H    1      -5.430000    6.960001   38.147999       1.0000      1.0079
  189   2 H    1      -6.170001    5.950000   37.208000       1.0000      1.0079
  190   1 O    8     -10.330000    4.840000   30.187998       6.0000     15.9994
  191   2 H    1     -10.510000    4.930000   29.247999       1.0000      1.0079
  192   2 H    1     -11.270000    5.000000   30.587999       1.0000      1.0079
  193   1 O    8      -5.140000  -27.100000   38.097999       6.0000     15.9994
  194   2 H    1      -6.080000  -27.380001   37.717998       1.0000      1.0079
  195   2 H    1      -4.760000  -27.980001   38.507997       1.0000      1.0079
  196   1 O    8       4.680000   23.450001   32.957998       6.0000     15.9994
  197   2 H    1       5.590000   23.430002   33.377998       1.0000      1.0079
  198   2 H    1      12.610001    8.040000   33.267999       1.0000      1.0079
  199   1 O    8       3.190000    7.440000   37.398001       6.0000     15.9994
  200   2 H    1       3.570000    8.320000   37.097998       1.0000      1.0079
  201   2 H    1       3.350000    7.340000   38.367998       1.0000      1.0079
  202   1 O    8       6.930000   13.430000   30.707998       6.0000     15.9994
  203   2 H    1       6.490001   14.320001   30.628000       1.0000      1.0079
  204   2 H    1       6.960001   13.220000   31.637998       1.0000      1.0079
  205   1 O    8      15.220001   10.270000   36.478000       6.0000     15.9994
  206   2 H    1      15.360001    9.320001   36.697998       1.0000      1.0079
  207   2 H    1      14.240000   10.410000   36.507997       1.0000      1.0079
  208   1 O    8      -0.570000    7.450001   30.177999       6.0000     15.9994
  209   2 H    1       0.080000    8.210000   30.038000       1.0000      1.0079
  210   2 H    1      -0.220000    6.810000   29.567999       1.0000      1.0079
  211   1 O    8     -10.860001  -10.140000   30.197996       6.0000     15.9994
  212   2 H    1     -10.510000   -9.630001   29.477999       1.0000      1.0079
  213   2 H    1     -11.620001  -10.530001   29.767999       1.0000      1.0079
  214   1 O    8      20.970001   -1.040000   35.407999       6.0000     15.9994
  215   2 H    1      20.920000   -1.990000   35.608000       1.0000      1.0079
  216   2 H    1      21.290001   -0.950000   34.457998       1.0000      1.0079
  217   1 O    8     -22.420002   33.450005   39.738001       6.0000     15.9994
  218   2 H    1     -22.310001   32.580002   39.157999       1.0000      1.0079
  219   2 H    1     -22.480001   34.220001   39.087999       1.0000      1.0079
  220   1 O    8       3.020000   52.190002   39.148001       6.0000     15.9994
  221   2 H    1       2.810000   52.450005   38.207998       1.0000      1.0079
  222   2 H    1       2.270000   52.010002   39.798000       1.0000      1.0079
  223   1 O    8       1.130000    2.930000   30.057997       6.0000     15.9994
  224   2 H    1      -7.900000   17.540001   30.877998       1.0000      1.0079
  225   2 H    1       1.870000    2.340000   30.267999       1.0000      1.0079
  226   1 O    8      11.350001   11.210001   32.707998       6.0000     15.9994
  227   2 H    1       3.290000   24.980001   32.947998       1.0000      1.0079
  228   2 H    1       2.620000   25.660002   31.767998       1.0000      1.0079
  229   1 O    8     -39.430000   27.520000   29.097998       6.0000     15.9994
  230   2 H    1     -38.660004   27.020000   29.628000       1.0000      1.0079
  231   2 H    1     -40.250000   26.890001   29.047998       1.0000      1.0079
  232   1 O    8       0.740000   14.390000   39.638000       6.0000     15.9994
  233   2 H    1       0.710000   14.760000   40.587999       1.0000      1.0079
  234   2 H    1       1.100000   13.460001   39.827997       1.0000      1.0079
  235   1 O    8      15.940001  -26.260002   31.817999       6.0000     15.9994
  236   2 H    1      16.100002  -26.570000   32.747999       1.0000      1.0079
  237   2 H    1      15.780001  -25.330002   31.897999       1.0000      1.0079
  238   1 O    8       2.300000   -7.400000   34.297998       6.0000     15.9994
  239   2 H    1       1.450000   -7.440000   33.858000       1.0000      1.0079
  240   2 H    1       2.840000   -8.200001   34.278000       1.0000      1.0079
  241   1 O    8     -11.190001    9.150001   30.077997       6.0000     15.9994
  242   2 H    1     -10.320001    9.600000   30.157999       1.0000      1.0079
  243   2 H    1     -11.230000    8.700001   29.198000       1.0000      1.0079
  244   1 O    8      15.640001    8.150001   39.977999       6.0000     15.9994
  245   2 H    1      15.970001    9.030001   40.258001       1.0000      1.0079
  246   2 H    1      16.400002    7.560000   40.217998       1.0000      1.0079
  247   1 O    8      18.850000    9.880000   34.067999       6.0000     15.9994
  248   2 H    1      19.340002    9.060000   34.437998       1.0000      1.0079
  249   2 H    1      17.910002    9.680000   34.297998       1.0000      1.0079
  250   1 O    8      37.580002    5.470000   30.628000       6.0000     15.9994
  251   2 H    1      37.160000    5.110001   31.487999       1.0000      1.0079
  252   2 H    1      37.510002    6.510000   30.777998       1.0000      1.0079
  253   1 O    8       3.220000  -10.980000   32.877998       6.0000     15.9994
  254   2 H    1       3.840000  -10.300001   33.217998       1.0000      1.0079
  255   2 H    1       2.480000  -11.100000   33.547998       1.0000      1.0079
  256   1 O    8       0.440000   11.680001   29.648001       6.0000     15.9994
  257   2 H    1       0.730000   10.760001   29.957998       1.0000      1.0079
  258   2 H    1      -0.130000   11.460000   28.767999       1.0000      1.0079
  259   1 O    8      -3.530000    5.810000   33.447998       6.0000     15.9994
  260   2 H    1     -11.770000   20.590000   34.417999       1.0000      1.0079
  261   2 H    1      -2.670000    5.610001   33.028000       1.0000      1.0079
  262   1 O    8     -22.400000   -2.780000   32.427997       6.0000     15.9994
  263   2 H    1     -22.780001   -3.690000   32.657999       1.0000      1.0079
  264   2 H    1     -21.709999   -3.080000   31.767998       1.0000      1.0079
  265   1 O    8       5.490000   -6.070001   30.127996       6.0000     15.9994
  266   2 H    1       5.400000   -6.070001   31.128000       1.0000      1.0079
  267   2 H    1       6.410000   -6.490001   30.017999       1.0000      1.0079
  268   1 O    8     -15.320001    5.410000   29.227999       6.0000     15.9994
  269   2 H    1     -14.410001    5.450000   29.578001       1.0000      1.0079
  270   2 H    1     -15.560001    4.480000   29.537996       1.0000      1.0079
  271   1 O    8      -9.060000   10.530001   29.677999       6.0000     15.9994
  272   2 H    1      -9.000000   11.310000   29.117998       1.0000      1.0079
  273   2 H    1      -8.170000   10.280000   29.707998       1.0000      1.0079
  274   1 O    8     -14.470000   23.630001   36.487999       6.0000     15.9994
  275   2 H    1     -15.410002   23.800001   36.487999       1.0000      1.0079
  276   2 H    1     -14.300001   23.000002   35.777998       1.0000      1.0079
  277   1 O    8       4.680000    9.580001   36.497999       6.0000     15.9994
  278   2 H    1       4.210001   10.410000   36.407999       1.0000      1.0079
  279   2 H    1       5.050000    9.700001   37.368000       1.0000      1.0079
  280   1 O    8      16.920000   21.530001   30.207998       6.0000     15.9994
  281   2 H    1      16.090000   21.060001   30.177999       1.0000      1.0079
  282   2 H    1      16.920000   21.830002   31.137998       1.0000      1.0079
  283   1 O    8     -11.560000   18.190001   37.017999       6.0000     15.9994
  284   2 H    1     -12.400000   17.660000   37.067999       1.0000      1.0079
  285   2 H    1     -11.360001   18.590000   37.917997       1.0000      1.0079
  286   1 O    8       2.870000  -29.050003   39.977999       6.0000     15.9994
  287   2 H    1       2.350000  -29.770002   39.577999       1.0000      1.0079
  288   2 H    1       3.860000  -29.139999   39.798000       1.0000      1.0079
  289   1 O    8      -3.320000   20.310001   36.637998       6.0000     15.9994
  290   2 H    1      -3.500000   19.350000   36.948000       1.0000      1.0079
  291   2 H    1      -3.950000   20.980000   36.917999       1.0000      1.0079
  292   1 O    8      10.230000    5.660000   29.087999       6.0000     15.9994
  293   2 H    1      -6.720000    4.730000   29.437998       1.0000      1.0079
  294   2 H    1       9.530001    6.330000   29.547998       1.0000      1.0079
  295   1 O    8       0.840000   27.130001   34.308000       6.0000     15.9994
  296   2 H    1       1.370000   26.570000   33.677997       1.0000      1.0079
  297   2 H    1       1.190000   28.040001   34.087999       1.0000      1.0079
  298   1 O    8     -21.000002   10.920000   36.587999       6.0000     15.9994
  299   2 H    1     -21.780003   10.300001   36.548000       1.0000      1.0079
  300   2 H    1     -20.920000   11.290001   37.457998       1.0000      1.0079
  301   1 O    8       3.700000    7.330000   40.007999       6.0000     15.9994
  302   2 H    1       4.180000    6.490001   40.328001       1.0000      1.0079
  303   2 H    1       2.820000    7.290000   40.398001       1.0000      1.0079
  304   1 O    8      -5.110001    7.690001   29.097998       6.0000     15.9994
  305   2 H    1      -4.150000    7.870001   29.297998       1.0000      1.0079
  306   2 H    1      -5.440001    6.770000   29.288000       1.0000      1.0079
  307   3 Pt  78       1.670000    0.770000   27.047998      10.0000    195.0840
  308   3 Pt  78       4.480000    0.680000   27.067999      10.0000    195.0840
  309   3 Pt  78       7.260000    0.660000   27.177999      10.0000    195.0840
  310   3 Pt  78      10.220001    0.740000   26.777998      10.0000    195.0840
  311   3 Pt  78      13.040000    0.720000   26.957998      10.0000    195.0840
  312   3 Pt  78      15.770000    0.720000   27.218000      10.0000    195.0840
  313   3 Pt  78       3.090000    3.100000   27.007997      10.0000    195.0840
  314   3 Pt  78       5.920000    3.100000   26.967996      10.0000    195.0840
  315   3 Pt  78       8.690001    3.050000   26.827997      10.0000    195.0840
  316   3 Pt  78      11.610001    3.290000   26.747999      10.0000    195.0840
  317   3 Pt  78      14.370001    3.220000   27.037996      10.0000    195.0840
  318   3 Pt  78       0.300000    3.140000   26.807997      10.0000    195.0840
  319   3 Pt  78       4.480000    5.500000   26.948000      10.0000    195.0840
  320   3 Pt  78       7.230001    5.510000   26.877996      10.0000    195.0840
  321   3 Pt  78      10.000000    5.620000   26.897997      10.0000    195.0840
  322   3 Pt  78      13.140000    5.640000   26.788000      10.0000    195.0840
  323   3 Pt  78      -0.960000    5.600000   26.867998      10.0000    195.0840
  324   3 Pt  78       1.790000    5.520000   27.037996      10.0000    195.0840
  325   3 Pt  78       5.960000    8.030001   26.977999      10.0000    195.0840
  326   3 Pt  78       8.690001    7.980001   27.058000      10.0000    195.0840
  327   3 Pt  78      11.580001    8.160001   27.007997      10.0000    195.0840
  328   3 Pt  78      -2.340000    8.050001   26.788000      10.0000    195.0840
  329   3 Pt  78       0.360000    8.040000   26.867998      10.0000    195.0840
  330   3 Pt  78       3.240000    7.950000   26.967996      10.0000    195.0840
  331   3 Pt  78       7.450001   10.550001   26.867998      10.0000    195.0840
  332   3 Pt  78      10.230000   10.500001   27.058000      10.0000    195.0840
  333   3 Pt  78      -3.830000   10.559999   27.017999      10.0000    195.0840
  334   3 Pt  78      -1.040000   10.520000   27.017999      10.0000    195.0840
  335   3 Pt  78       1.870000   10.400001   26.858000      10.0000    195.0840
  336   3 Pt  78       4.470000   10.520000   26.858000      10.0000    195.0840
  337   3 Pt  78       8.660001   12.990000   26.918001      10.0000    195.0840
  338   3 Pt  78      -5.500000   12.850000   27.097998      10.0000    195.0840
  339   3 Pt  78      -2.490000   12.900001   27.117998      10.0000    195.0840
  340   3 Pt  78       0.320000   12.860001   26.848001      10.0000    195.0840
  341   3 Pt  78       3.070000   12.920000   26.918001      10.0000    195.0840
  342   3 Pt  78       5.860000   12.960000   27.067999      10.0000    195.0840
  343   3 Pt  78       0.270000    1.520000   24.687998      10.0000    195.0840
  344   3 Pt  78       3.150000    1.610000   24.737997      10.0000    195.0840
  345   3 Pt  78       5.910000    1.520000   24.567999      10.0000    195.0840
  346   3 Pt  78       8.610001    1.470000   24.547998      10.0000    195.0840
  347   3 Pt  78      11.470001    1.520000   24.558000      10.0000    195.0840
  348   3 Pt  78      14.210001    1.480000   24.617998      10.0000    195.0840
  349   3 Pt  78       1.660000    4.000000   24.567999      10.0000    195.0840
  350   3 Pt  78       4.490000    4.040000   24.657999      10.0000    195.0840
  351   3 Pt  78       7.320001    3.970000   24.537996      10.0000    195.0840
  352   3 Pt  78      10.090000    3.980000   24.517999      10.0000    195.0840
  353   3 Pt  78      12.880001    3.950000   24.477999      10.0000    195.0840
  354   3 Pt  78      -1.240000    4.000000   24.617998      10.0000    195.0840
  355   3 Pt  78       3.030000    6.340000   24.737997      10.0000    195.0840
  356   3 Pt  78       5.870000    6.400001   24.587999      10.0000    195.0840
  357   3 Pt  78       8.780001    6.400001   24.628000      10.0000    195.0840
  358   3 Pt  78      11.500001    6.380000   24.578001      10.0000    195.0840
  359   3 Pt  78      -2.580000    6.390000   24.407999      10.0000    195.0840
  360   3 Pt  78       0.260000    6.420000   24.597998      10.0000    195.0840
  361   3 Pt  78       4.460000    8.790001   24.507997      10.0000    195.0840
  362   3 Pt  78       7.280001    8.780001   24.597998      10.0000    195.0840
  363   3 Pt  78      10.100000    8.860001   24.788000      10.0000    195.0840
  364   3 Pt  78      -3.950000    8.780001   24.587999      10.0000    195.0840
  365   3 Pt  78      -1.060000    8.890000   24.637998      10.0000    195.0840
  366   3 Pt  78       1.700000    8.810000   24.597998      10.0000    195.0840
  367   3 Pt  78       5.800000   11.410000   24.578001      10.0000    195.0840
  368   3 Pt  78       8.610001   11.360001   24.628000      10.0000    195.0840
  369   3 Pt  78      -5.410000   11.300000   24.727999      10.0000    195.0840
  370   3 Pt  78      -2.490000   11.340000   24.637998      10.0000    195.0840
  371   3 Pt  78       0.310000   11.300000   24.578001      10.0000    195.0840
  372   3 Pt  78       3.030000   11.290001   24.467996      10.0000    195.0840
  373   3 Pt  78       7.270000   13.780001   24.587999      10.0000    195.0840
  374   3 Pt  78      -6.640000   13.700001   24.747999      10.0000    195.0840
  375   3 Pt  78      -3.960000   13.760000   24.698000      10.0000    195.0840
  376   3 Pt  78      -1.200000   13.800001   24.847998      10.0000    195.0840
  377   3 Pt  78       1.630000   13.720001   24.547998      10.0000    195.0840
  378   3 Pt  78       4.420000   13.750001   24.628000      10.0000    195.0840
  379   3 Pt  78      -8.280001   14.550000   22.367998      10.0000    195.0840
  380   3 Pt  78      -5.480001   14.540001   22.397997      10.0000    195.0840
  381   3 Pt  78      -2.620000   14.480001   22.327997      10.0000    195.0840
  382   3 Pt  78       0.110000   14.380001   22.337999      10.0000    195.0840
  383   3 Pt  78       3.030000   14.470000   22.198000      10.0000    195.0840
  384   3 Pt  78       5.810000   14.570000   22.157995      10.0000    195.0840
  385   3 Pt  78       1.590000    2.400000   22.367998      10.0000    195.0840
  386   3 Pt  78       4.410000    2.390000   22.297998      10.0000    195.0840
  387   3 Pt  78       7.270000    2.350000   22.217996      10.0000    195.0840
  388   3 Pt  78      10.020000    2.190000   22.297998      10.0000    195.0840
  389   3 Pt  78      12.920000    2.300000   22.217996      10.0000    195.0840
  390   3 Pt  78      -1.150000    2.240000   22.247999      10.0000    195.0840
  391   3 Pt  78       3.100000    4.840000   22.297998      10.0000    195.0840
  392   3 Pt  78       5.910000    4.830000   22.308000      10.0000    195.0840
  393   3 Pt  78       8.740000    4.800000   22.207998      10.0000    195.0840
  394   3 Pt  78      11.360001    4.740000   22.198000      10.0000    195.0840
  395   3 Pt  78      -2.610000    4.740000   22.177999      10.0000    195.0840
  396   3 Pt  78       0.200000    4.730000   22.297998      10.0000    195.0840
  397   3 Pt  78       4.420000    7.240000   22.267999      10.0000    195.0840
  398   3 Pt  78       7.230001    7.230001   22.287996      10.0000    195.0840
  399   3 Pt  78       9.970000    7.350000   22.308000      10.0000    195.0840
  400   3 Pt  78      -4.100000    7.190001   22.308000      10.0000    195.0840
  401   3 Pt  78      -1.220000    7.190001   22.257997      10.0000    195.0840
  402   3 Pt  78       1.600000    7.100000   22.277998      10.0000    195.0840
  403   3 Pt  78       5.840001    9.700001   22.267999      10.0000    195.0840
  404   3 Pt  78       8.660001    9.660000   22.407999      10.0000    195.0840
  405   3 Pt  78      -5.400000    9.680000   22.378000      10.0000    195.0840
  406   3 Pt  78      -2.570000    9.550000   22.287996      10.0000    195.0840
  407   3 Pt  78       0.280000    9.570000   22.247999      10.0000    195.0840
  408   3 Pt  78       2.940000    9.660000   22.187998      10.0000    195.0840
  409   3 Pt  78       7.200000   12.160001   22.217996      10.0000    195.0840
  410   3 Pt  78      -6.920000   12.120000   22.407999      10.0000    195.0840
  411   3 Pt  78      -4.000000   12.070000   22.308000      10.0000    195.0840
  412   3 Pt  78      -1.240000   12.000000   22.287996      10.0000    195.0840
  413   3 Pt  78       1.540000   12.050000   22.177999      10.0000    195.0840
  414   3 Pt  78       4.400000   12.150001   22.247999      10.0000    195.0840
  415   3 Pt  78       1.580000    0.770000   20.090000      10.0000    195.0840
  416   3 Pt  78       4.420000    0.600000   20.130000      10.0000    195.0840
  417   3 Pt  78       7.180000    0.660000   19.950000      10.0000    195.0840
  418   3 Pt  78       9.900001    0.730000   19.890000      10.0000    195.0840
  419   3 Pt  78      12.750001    0.640000   19.870000      10.0000    195.0840
  420   3 Pt  78      15.530001    0.710000   19.960000      10.0000    195.0840
  421   3 Pt  78       3.100000    3.060000   19.980000      10.0000    195.0840
  422   3 Pt  78       5.770000    3.190000   19.960000      10.0000    195.0840
  423   3 Pt  78       8.580000    3.240000   19.980000      10.0000    195.0840
  424   3 Pt  78      11.400002    3.020000   20.000000      10.0000    195.0840
  425   3 Pt  78      14.150001    3.110000   19.880000      10.0000    195.0840
  426   3 Pt  78       0.140000    3.000000   19.990000      10.0000    195.0840
  427   3 Pt  78       4.380000    5.610001   19.970000      10.0000    195.0840
  428   3 Pt  78       7.180000    5.700001   20.000000      10.0000    195.0840
  429   3 Pt  78       9.970000    5.640000   19.920000      10.0000    195.0840
  430   3 Pt  78      12.770000    5.500000   19.970000      10.0000    195.0840
  431   3 Pt  78      -1.230000    5.500000   20.030000      10.0000    195.0840
  432   3 Pt  78       1.610000    5.490000   20.020000      10.0000    195.0840
  433   3 Pt  78       5.810000    8.130000   20.040000      10.0000    195.0840
  434   3 Pt  78       8.630000    8.090000   19.950000      10.0000    195.0840
  435   3 Pt  78      11.420001    8.010000   20.020000      10.0000    195.0840
  436   3 Pt  78      -2.680000    7.890000   19.970000      10.0000    195.0840
  437   3 Pt  78       0.150000    7.920001   19.950000      10.0000    195.0840
  438   3 Pt  78       2.980000    7.960001   20.000000      10.0000    195.0840
  439   3 Pt  78       7.210000   10.530001   20.020000      10.0000    195.0840
  440   3 Pt  78       9.970000   10.450001   20.160000      10.0000    195.0840
  441   3 Pt  78      -4.020000   10.370001   20.090000      10.0000    195.0840
  442   3 Pt  78      -1.260000   10.330000   19.950000      10.0000    195.0840
  443   3 Pt  78       1.490000   10.440001   19.840000      10.0000    195.0840
  444   3 Pt  78       4.360000   10.450001   19.960000      10.0000    195.0840
  445   3 Pt  78       8.570001   12.930001   19.970000      10.0000    195.0840
  446   3 Pt  78      -5.540000   12.850000   20.270000      10.0000    195.0840
  447   3 Pt  78      -2.660000   12.810000   19.940000      10.0000    195.0840
  448   3 Pt  78       0.080000   12.820001   19.940000      10.0000    195.0840
  449   3 Pt  78       2.890000   12.860001   19.870000      10.0000    195.0840
  450   3 Pt  78       5.730000   12.860001   19.880000      10.0000    195.0840
  451   3 Pt  78       0.120000    1.310000   17.640000      10.0000    195.0840
  452   3 Pt  78       2.960000    1.300000   17.740000      10.0000    195.0840
  453   3 Pt  78       5.760000    1.540000   17.750000      10.0000    195.0840
  454   3 Pt  78       8.580000    1.570000   17.630000      10.0000    195.0840
  455   3 Pt  78      11.330000    1.490000   17.720000      10.0000    195.0840
  456   3 Pt  78      14.100000    1.490000   17.550000      10.0000    195.0840
  457   3 Pt  78       1.530000    3.830000   17.760000      10.0000    195.0840
  458   3 Pt  78       4.370000    3.900000   17.700000      10.0000    195.0840
  459   3 Pt  78       7.120000    3.940000   17.590000      10.0000    195.0840
  460   3 Pt  78       9.900001    3.990000   17.740000      10.0000    195.0840
  461   3 Pt  78      12.720001    4.010000   17.640000      10.0000    195.0840
  462   3 Pt  78      -1.150000    3.840000   17.610000      10.0000    195.0840
  463   3 Pt  78       3.010000    6.280000   17.740000      10.0000    195.0840
  464   3 Pt  78       5.810000    6.410000   17.750000      10.0000    195.0840
  465   3 Pt  78       8.530001    6.350000   17.580000      10.0000    195.0840
  466   3 Pt  78      11.460000    6.410000   17.580000      10.0000    195.0840
  467   3 Pt  78      -2.510000    6.340000   17.660000      10.0000    195.0840
  468   3 Pt  78       0.220000    6.220000   17.690000      10.0000    195.0840
  469   3 Pt  78       4.410000    8.910000   17.710000      10.0000    195.0840
  470   3 Pt  78       7.190001    8.860001   17.640000      10.0000    195.0840
  471   3 Pt  78      10.090000    8.720000   17.650000      10.0000    195.0840
  472   3 Pt  78      -3.890000    8.620001   17.680000      10.0000    195.0840
  473   3 Pt  78      -1.310000    8.760000   17.560000      10.0000    195.0840
  474   3 Pt  78       1.470000    8.790001   17.630000      10.0000    195.0840
  475   3 Pt  78       5.820000   11.280001   17.640000      10.0000    195.0840
  476   3 Pt  78       8.660001   11.270000   17.740000      10.0000    195.0840
  477   3 Pt  78      -5.450000   11.230000   17.820000      10.0000    195.0840
  478   3 Pt  78      -2.640000   11.240001   17.630000      10.0000    195.0840
  479   3 Pt  78       0.040000   11.260000   17.570000      10.0000    195.0840
  480   3 Pt  78       2.830000   11.170001   17.670000      10.0000    195.0840
  481   3 Pt  78       7.190001   13.620001   17.620000      10.0000    195.0840
  482   3 Pt  78      -6.800000   13.630000   17.810000      10.0000    195.0840
  483   3 Pt  78      -4.050000   13.670001   17.740000      10.0000    195.0840
  484   3 Pt  78      -1.260000   13.710001   17.660000      10.0000    195.0840
  485   3 Pt  78       1.390000   13.620001   17.690000      10.0000    195.0840
  486   3 Pt  78       4.280000   13.660001   17.600000      10.0000    195.0840
  487   3 Pt  78      -8.230000   14.490002   15.380000      10.0000    195.0840
  488   3 Pt  78      -5.520000   14.520000   15.449999      10.0000    195.0840
  489   3 Pt  78      -2.660000   14.510001   15.360000      10.0000    195.0840
  490   3 Pt  78       0.230000   14.580001   15.370000      10.0000    195.0840
  491   3 Pt  78       3.010000   14.470000   15.340000      10.0000    195.0840
  492   3 Pt  78       5.860000   14.440001   15.350000      10.0000    195.0840
  493   3 Pt  78       1.640000    2.290000   15.430000      10.0000    195.0840
  494   3 Pt  78       4.420000    2.250000   15.470000      10.0000    195.0840
  495   3 Pt  78       7.190001    2.380000   15.100000      10.0000    195.0840
  496   3 Pt  78      10.030001    2.470000   15.360000      10.0000    195.0840
  497   3 Pt  78      12.730000    2.350000   15.240000      10.0000    195.0840
  498   3 Pt  78      -1.280000    2.250000   15.280000      10.0000    195.0840
  499   3 Pt  78       2.940000    4.630000   15.400000      10.0000    195.0840
  500   3 Pt  78       5.680000    4.650001   15.280000      10.0000    195.0840
  501   3 Pt  78       8.580000    4.880000   15.240000      10.0000    195.0840
  502   3 Pt  78      11.300000    4.830000   15.220000      10.0000    195.0840
  503   3 Pt  78      -2.770000    4.840000   15.320000      10.0000    195.0840
  504   3 Pt  78       0.190000    4.600000   15.330000      10.0000    195.0840
  505   3 Pt  78       4.260000    7.230001   15.480000      10.0000    195.0840
[...]
 flops    20 x    13 x    96           5487056640       0.0%    100.0%      0.0%
 flops    13 x    20 x    96           5514013440       0.0%    100.0%      0.0%
 flops    20 x    13 x   100           5715684000       0.0%    100.0%      0.0%
 flops    13 x    20 x   100           5743764000       0.0%    100.0%      0.0%
 flops     5 x    20 x    96           5915462400       0.0%    100.0%      0.0%
 flops    20 x     5 x    96           5933606400       0.0%    100.0%      0.0%
 flops    13 x    32 x    13           6127869696       0.0%    100.0%      0.0%
 flops     5 x    20 x   100           6161940000       0.0%    100.0%      0.0%
 flops    20 x     5 x   100           6180840000       0.0%    100.0%      0.0%
 flops    13 x    32 x    20           8420572160       0.0%    100.0%      0.0%
 flops    20 x    32 x    13           8420572160       0.0%    100.0%      0.0%
 flops     5 x    32 x    20           9069657600       0.0%    100.0%      0.0%
 flops    20 x    32 x     5           9069657600       0.0%    100.0%      0.0%
 flops    20 x    20 x    96          48596889600       0.0%    100.0%      0.0%
 flops     5 x     5 x   128          50578214400       0.0%    100.0%      0.0%
 flops    20 x    20 x   100          50621760000       0.0%    100.0%      0.0%
 flops    13 x     5 x   128          63880427520       0.0%    100.0%      0.0%
 flops     5 x    13 x   128          64018805760       0.0%    100.0%      0.0%
 flops    20 x    32 x    20          74052403200       0.0%    100.0%      0.0%
 flops    13 x    13 x   128          75554519040       0.0%    100.0%      0.0%
 flops    20 x    13 x   128         102425057280       0.0%    100.0%      0.0%
 flops    13 x    20 x   128         102928250880       0.0%    100.0%      0.0%
 flops     5 x    20 x   128         110421964800       0.0%    100.0%      0.0%
 flops    20 x     5 x   128         110760652800       0.0%    100.0%      0.0%
 flops    20 x    20 x   128         907141939200       0.0%    100.0%      0.0%
 flops inhomo. stacks                           0       0.0%      0.0%      0.0%
 flops total                         1.891405E+12       0.0%    100.0%      0.0%
 flops max/rank                     17.029531E+09       0.0%    100.0%      0.0%
 matmuls inhomo. stacks                         0       0.0%      0.0%      0.0%
 matmuls total                           55943442       0.0%    100.0%      0.0%
 number of processed stacks                520066       0.0%    100.0%      0.0%
 average stack size                                     0.0     107.6       0.0
 marketing flops                     3.893354E+12
 -------------------------------------------------------------------------------
 # multiplications                             28
 max memory usage/rank               1.612562E+09
 # max total images/rank                        2
 # max 3D layers                                1
 # MPI messages exchanged                  103936
 MPI messages size (bytes):
  total size                        67.640377E+09
  min size                         278.784000E+03
  max size                           2.274368E+06
  average size                     650.788750E+03
 MPI breakdown and total messages size (bytes):
             size <=      128                   0                        0
       128 < size <=     8192                   0                        0
      8192 < size <=    32768                   0                        0
     32768 < size <=   131072                   0                        0
    131072 < size <=  4194304              103936              67640378304
   4194304 < size <= 16777216                   0                        0
  16777216 < size                               0                        0
 -------------------------------------------------------------------------------

 *** WARNING in dbcsr_mm.F:290 :: Using a non-square number of MPI ranks ***
 *** might lead to poor performance. Used ranks: 128 Suggested: 121 256  ***

 -------------------------------------------------------------------------------
 -                                                                             -
 -                      DBCSR MESSAGE PASSING PERFORMANCE                      -
 -                                                                             -
 -------------------------------------------------------------------------------
 ROUTINE             CALLS      AVE VOLUME [Bytes]
 MP_Bcast               46                     12.
 MP_Allreduce          299                     14.
 MP_Alltoall           777                 599733.
 MP_ISend             1792                 309813.
 MP_IRecv             1792                 303469.
 -------------------------------------------------------------------------------

 -------------------------------------------------------------------------------
 -                                                                             -
 -                                DBM STATISTICS                               -
 -                                                                             -
 -------------------------------------------------------------------------------
    M  x    N  x    K                                          COUNT     PERCENT
 -------------------------------------------------------------------------------

 -------------------------------------------------------------------------------
 -                                                                             -
 -                                GRID STATISTICS                              -
 -                                                                             -
 -------------------------------------------------------------------------------
 LP    KERNEL             BACKEND                              COUNT     PERCENT
 4     collocate general  REF                               10546224      21.94%
 4     integrate general  REF                               10423266      21.69%
 3     collocate general  REF                                7349316      15.29%
 3     integrate general  REF                                7297468      15.18%
 2     collocate general  REF                                6001268      12.49%
 2     integrate general  REF                                5770450      12.01%
 5     integrate general  REF                                 405624       0.84%
 0     collocate general  REF                                 133632       0.28%
 0     integrate general  REF                                  66816       0.14%
 1     integrate general  REF                                  66816       0.14%
 -------------------------------------------------------------------------------

 MEMORY| Estimated peak process memory [MiB]                                1789

 -------------------------------------------------------------------------------
 ----                             MULTIGRID INFO                            ----
 -------------------------------------------------------------------------------
 count for grid        1:        1097590          cutoff [a.u.]          200.00
 count for grid        2:        1092632          cutoff [a.u.]           66.67
 count for grid        3:         717411          cutoff [a.u.]           22.22
 count for grid        4:         556820          cutoff [a.u.]            7.41
 total gridlevel count  :        3464453

 -------------------------------------------------------------------------------
 -                                                                             -
 -                         MESSAGE PASSING PERFORMANCE                         -
 -                                                                             -
 -------------------------------------------------------------------------------

 ROUTINE             CALLS      AVE VOLUME [Bytes]
 MP_Group                4
 MP_Bcast             2178                 310626.
 MP_Allreduce         3107                  35283.
 MP_Sync                58
 MP_Alltoall          1582               16713215.
 MP_SendRecv           508                   5904.
 MP_ISendRecv        13208                  61740.
 MP_Wait             23600
 MP_comm_split          27
 MP_ISend             9800                 256644.
 MP_IRecv             9800                 256644.
 MP_Recv               124                1706496.
 MP_Write_All            3                1797408.
 -------------------------------------------------------------------------------


 -------------------------------------------------------------------------------
 -                                                                             -
 -                           R E F E R E N C E S                               -
 -                                                                             -
 -------------------------------------------------------------------------------
 
 CP2K version 2022.1, the CP2K developers group (2022).
 CP2K is freely available from https://www.cp2k.org/ .

 Kuehne,Thomas D.; Iannuzzi,Marcella; Del Ben,Mauro;
 Rybkin,Vladimir V.; Seewald,Patrick; Stein,Frederick; Laino,Teodoro;
 Khaliullin,Rustam Z.; Schuett,Ole; Schiffmann,Florian; Golze,Dorothea;
 Wilhelm,Jan; Chulkov,Sergey; Bani-Hashemian,Mohammad Hossein;
 Weber,Valery; Borstnik,Urban; Taillefumier,Mathieu;
 Jakobovits,Alice Shoshana; Lazzaro,Alfio; Pabst,Hans; Mueller,Tiziano;
 Schade,Robert; Guidon,Manuel; Andermatt,Samuel; Holmberg,Nico;
 Schenter,Gregory K.; Hehn,Anna; Bussy,Augustin; Belleflamme,Fabian;
 Tabacchi,Gloria; Gloess,Andreas; Lass,Michael; Bethune,Iain;
 Mundy,Christopher J.; Plessl,Christian; Watkins,Matt;
 VandeVondele,Joost; Krack,Matthias; Hutter,Juerg. 
 The Journal of Chemical Physics, 152 (19), (2020). 
 CP2K: An electronic structure and molecular dynamics software package -
 Quickstep: Efficient and accurate electronic structure calculations.
 https://doi.org/10.1063/5.0007045

 Goerigk, Lars; Hansen, Andreas; Bauer, Christoph; Ehrlich, Stephan;
 Najibi, Asim; Grimme, Stefan. , 19 (48), (2017). 
 A look at the density functional theory zoo with the advanced GMTKN55 database
 for general main group thermochemistry, kinetics and noncovalent interactions.
 https://doi.org/10.1039/C7CP04913G

 Bani-Hashemian, MH; Bruck, S; Luisier, M; VandeVondele, J. 
 JOURNAL OF CHEMICAL PHYSICS, 144 (4), 044113 (2016). 
 A generalized Poisson solver for first-principles device simulations.
 https://doi.org/10.1063/1.4940796

 Schuett, Ole; Messmer, Peter; Hutter, Juerg; VandeVondele, Joost. 
 Electronic Structure Calculations on Graphics Processing Units, John
 Wiley & Sons, Ltd, 173-190 (2016). 
 GPU-Accelerated Sparse Matrix-Matrix Multiplication for
 Linear Scaling Density Functional Theory.
 https://doi.org/10.1002/9781118670712.ch8

 Heinecke, A; Henry, G; Hutchinson, M; Pabst, H. 
 Proceedings of Intl. Supercomputing Conference, 981-991 (2016). 
 LIBXSMM: Accelerating Small Matrix Multiplications
 by Runtime Code Generation.
 https://doi.org/10.1109/SC.2016.83

 Borstnik, U; VandeVondele, J; Weber, V; Hutter, J. 
 PARALLEL COMPUTING, 40 (5-6), 47-58 (2014). 
 Sparse matrix multiplication: The distributed block-compressed sparse
 row library.
 https://doi.org/10.1016/j.parco.2014.03.012

 Hutter, J; Iannuzzi, M; Schiffmann, F; VandeVondele, J. 
 WIREs Comput Mol Sci., 4 (1), 15-25 (2014). 
 CP2K: atomistic simulations of condensed matter systems.
 https://doi.org/10.1002/wcms.1159

 Marek, A; Blum, V; Johanni, R; Havu, V; Lang, B; Auckenthaler, T;
 Heinecke, A; Bungartz, H; Lederer, H. 
 Journal of Physics: Condensed Matter, 26 (21), (2014). 
 The ELPA library: scalable parallel eigenvalue solutions for
 electronic structure
 theory and computational science.
 https://doi.org/10.1088/0953-8984/26/21/213201

 Grimme, S; Ehrlich, S; Goerigk, L. 
 JOURNAL OF COMPUTATIONAL CHEMISTRY, 32, 1456 (2011). 
 Effect of the damping function in dispersion corrected density functional theory.
 https://doi.org/10.1002/jcc.21759

 Grimme, S; Antony, J; Ehrlich, S; Krieg, H. 
 JOURNAL OF CHEMICAL PHYSICS, 132 (15), 154104 (2010). 
 A consistent and accurate ab initio parametrization of density
 functional dispersion correction (DFT-D) for the 94 elements H-Pu.
 https://doi.org/10.1063/1.3382344

 VandeVondele, J; Hutter, J. 
 JOURNAL OF CHEMICAL PHYSICS, 127 (11), 114105 (2007). 
 Gaussian basis sets for accurate calculations on molecular systems in
 gas and condensed phases.
 https://doi.org/10.1063/1.2770708

 Krack, M. 
 THEORETICAL CHEMISTRY ACCOUNTS, 114 (1-3), 145-152 (2005). 
 Pseudopotentials for H to Kr optimized for gradient-corrected
 exchange-correlation functionals.
 https://doi.org/10.1007/s00214-005-0655-y

 VandeVondele, J; Krack, M; Mohamed, F; Parrinello, M; Chassaing, T;
 Hutter, J. COMPUTER PHYSICS COMMUNICATIONS, 167 (2), 103-128 (2005). 
 QUICKSTEP: Fast and accurate density functional calculations using a
 mixed Gaussian and plane waves approach.
 https://doi.org/10.1016/j.cpc.2004.12.014

 Frigo, M; Johnson, SG. 
 PROCEEDINGS OF THE IEEE, 93 (2), 216-231 (2005). 
 The design and implementation of FFTW3.
 https://doi.org/10.1109/JPROC.2004.840301

 Hartwigsen, C; Goedecker, S; Hutter, J. 
 PHYSICAL REVIEW B, 58 (7), 3641-3662 (1998). 
 Relativistic separable dual-space Gaussian pseudopotentials from H to Rn.
 https://doi.org/10.1103/PhysRevB.58.3641

 Lippert, G; Hutter, J; Parrinello, M. 
 MOLECULAR PHYSICS, 92 (3), 477-487 (1997). 
 A hybrid Gaussian and plane wave density functional scheme.
 https://doi.org/10.1080/002689797170220

 Perdew, JP; Burke, K; Ernzerhof, M. 
 PHYSICAL REVIEW LETTERS, 77 (18), 3865-3868 (1996). 
 Generalized gradient approximation made simple.
 https://doi.org/10.1103/PhysRevLett.77.3865

 Goedecker, S; Teter, M; Hutter, J. 
 PHYSICAL REVIEW B, 54 (3), 1703-1710 (1996). 
 Separable dual-space Gaussian pseudopotentials.
 https://doi.org/10.1103/PhysRevB.54.1703


 -------------------------------------------------------------------------------
 -                                                                             -
 -                                T I M I N G                                  -
 -                                                                             -
 -------------------------------------------------------------------------------
 SUBROUTINE                       CALLS  ASD         SELF TIME        TOTAL TIME
                                MAXIMUM       AVERAGE  MAXIMUM  AVERAGE  MAXIMUM
 CP2K                                 1  1.0    0.449    0.593  716.510  716.515
 qs_forces                            1  2.0    0.003    0.110  710.475  710.480
 qs_energies                          1  3.0    0.000    0.001  696.549  696.632
 scf_env_do_scf                       1  4.0    0.000    0.000  637.652  637.850
 scf_env_do_scf_inner_loop           25  5.0    0.002    0.012  637.646  637.846
 qs_scf_new_mos                      25  6.0    0.002    0.022  295.055  296.994
 eigensolver                         25  7.0    0.002    0.003  275.842  276.218
 rebuild_ks_matrix                   26  6.9    0.000    0.000  265.914  266.091
 qs_ks_build_kohn_sham_matrix        26  7.9    0.005    0.041  265.914  266.091
 qs_ks_update_qs_env                 25  6.0    0.000    0.000  255.741  255.926
 cp_fm_diag_elpa                     27  8.1    0.000    0.001  221.873  222.189
 cp_fm_redistribute_end              27  9.1   31.011  219.515   31.142  219.645
 cp_fm_diag_elpa_base                27  9.1  187.328  217.458  188.193  218.041
 pw_transfer                       1356 12.2    0.104    0.166  205.068  207.361
 fft_wrap_pw1pw2                   1356 13.2    0.013    0.058  204.964  207.262
 fft3d_ps                          1356 15.2   16.856   20.054  193.925  197.610
 fft_wrap_pw1pw2_200               1200 14.4    3.833    4.651  193.666  196.077
 mp_alltoall_z22v                  1356 17.2  162.362  171.863  162.362  171.863
 pw_poisson_solve                    26  8.9    0.003    0.006  160.606  160.835
 implicit_poisson_solver_mixed_      26  9.9    1.104    1.688  151.154  151.376
 x_to_yz                            781 16.4    3.335    4.662  103.371  105.855
 derive_fft                         156 12.1    0.009    0.032   98.772   99.630
 apply_P_operator                   130 11.1    0.750    1.116   84.144   85.048
 cp_fm_triangular_multiply           75  8.0   70.191   70.659   70.191   70.659
 qs_rho_update_rho_low               26  6.0    0.000    0.000   69.826   70.026
 calculate_rho_elec                  26  7.0    0.054    0.116   69.826   70.026
 yz_to_x                            419 16.4    1.109    1.396   62.592   67.408
 sum_up_and_integrate                26  8.9    0.150    0.305   64.131   64.316
 integrate_v_rspace                  26  9.9    0.001    0.001   63.981   64.184
 rs_pw_transfer                     212 10.4    0.003    0.004   59.423   60.668
 density_rs2pw                       26  8.0    0.002    0.002   45.601   46.653
 mp_waitany                        9800 12.3   39.014   40.480   39.014   40.480
 qs_vxc_create                       26  8.9    0.001    0.001   36.095   36.410
 xc_vxc_pw_create                    26  9.9    0.220    0.313   36.094   36.409
 potential_pw2rs                     26 10.9    0.009    0.099   34.335   34.628
 scf_post_calculation_gpw             1  4.0    0.000    0.000   30.145   30.254
 write_available_results              1  5.0    0.000    0.000   30.145   30.254
 apply_poisson_operator_fft          26 10.9    0.000    0.000   29.161   29.497
 xc_pw_derive                       156 11.9    0.002    0.003   27.454   28.619
 mp_sum_d                           905  6.0   25.459   27.892   25.459   27.892
 apply_inv_laplace_operator_fft      80 11.6    0.186    0.238   27.031   27.619
 init_scf_run                         1  4.0    0.001    0.024   24.498   24.571
 write_mo_dependent_results           1  6.0    0.000    0.000   21.723   23.202
 calculate_projected_dos              1  7.0    0.424    2.080   21.723   23.201
 grid_collocate_task_list            26  8.0   19.199   22.838   19.199   22.838
 ps_implicit_compute_error_fft       52 10.9    0.341    0.658   22.158   22.728
 rs_pw_transfer_RS2PW_200            28  9.9    1.726    2.386   21.355   22.654
 xc_pw_divergence                    26 10.9    0.001    0.001   19.886   20.798
 grid_integrate_task_list            26 10.9   18.037   19.894   18.037   19.894
 mp_alltoall_d11v                   386 10.3   18.389   19.194   18.389   19.194
 mp_waitall_1                     16936 12.6   16.838   19.049   16.838   19.049
 cp_fm_power                          2  8.0    0.018    0.064   18.071   18.178
 scf_env_initial_rho_setup            1  5.0    0.001    0.024   16.290   16.360
 cp_dbcsr_plus_fm_fm_t_native        27  7.9    0.003    0.058   14.198   16.326
 gspace_mixing                       24  6.0    0.048    0.117   16.000   16.048
 ps_implicit_compute_veps            26 10.9    0.162    0.295   15.543   15.999
 calculate_dm_sparse                 26  7.0    0.003    0.041   13.269   15.381
 xc_rho_set_and_dset_create          26 10.9    0.130    0.176   13.870   14.655
 -------------------------------------------------------------------------------

 The number of warnings for this run is : 1
 
 -------------------------------------------------------------------------------
  **** **** ******  **  PROGRAM ENDED AT                 2023-12-02 20:47:20.020
 ***** ** ***  *** **   PROGRAM RAN ON                                     cu005
 **    ****   ******    PROGRAM RAN BY                                     jxzhu
 ***** **    ** ** **   PROGRAM PROCESS ID                                 50872
  **** **  *******  **  PROGRAM STOPPED IN /public/home/jxzhu/tmp_calc/832820baf
                                           f66b93540ac87c7b61c79468ca7fcf2/calc/
                                           002100.000/search_hi.000001
