 DBCSR| CPU Multiplication driver                                           XSMM
 DBCSR| Multrec recursion limit                                              512
 DBCSR| Multiplication stack size                                           1000
 DBCSR| Maximum elements for images                                    UNLIMITED
 DBCSR| Multiplicative factor virtual images                                   1
 DBCSR| Use multiplication densification                                       T
 DBCSR| Multiplication size stacks                                             3
 DBCSR| Use memory pool for CPU allocation                                     F
 DBCSR| Number of 3D layers                                               SINGLE
 DBCSR| Use MPI memory allocation                                              F
 DBCSR| Use RMA algorithm                                                      F
 DBCSR| Use Communication thread                                               T
 DBCSR| Communication thread load                                             87
 DBCSR| MPI: My node id                                                        0
 DBCSR| MPI: Number of nodes                                                 128
 DBCSR| OMP: Current number of threads                                         1
 DBCSR| OMP: Max number of threads                                             1
 DBCSR| Split modifier for TAS multiplication algorithm                  1.0E+00


  **** **** ******  **  PROGRAM STARTED AT               2024-07-17 22:17:36.498
 ***** ** ***  *** **   PROGRAM STARTED ON                                 cu360
 **    ****   ******    PROGRAM STARTED BY                                 jxzhu
 ***** **    ** ** **   PROGRAM PROCESS ID                                   993
  **** **  *******  **  PROGRAM STARTED IN /public/home/jxzhu/tmp_calc/d332fb3e9
                                           c0ce623e04bf3ec84878abc6222bc62/calc/
                                           000000.000/search_lo.000000

 CP2K| version string:                                       CP2K version 2022.1
 CP2K| source code revision number:                                  git:2caeb6f
 CP2K| cp2kflags: omp libint fftw3 libxc elpa parallel mpi3 scalapack cosma xsmm
 CP2K|             plumed2 spglib mkl sirius libvori libbqb
 CP2K| is freely available from                            https://www.cp2k.org/
 CP2K| Program compiled at                           Mon Jul 3 17:37:06 CST 2023
 CP2K| Program compiled on                                                 mu003
 CP2K| Program compiled for                                                local
 CP2K| Data directory path                             /public/home/jxzhu/basis/
 CP2K| Input file name                                                 input.inp
 
 GLOBAL| Force Environment number                                              1
 GLOBAL| Basis set file name                                        BASIS_MOLOPT
 GLOBAL| Potential file name                                      GTH_POTENTIALS
 GLOBAL| MM Potential file name                                     MM_POTENTIAL
 GLOBAL| Coordinate file name                                          coord.xyz
 GLOBAL| Method name                                                        CP2K
 GLOBAL| Project name                                                       cp2k
 GLOBAL| Run type                                                   ENERGY_FORCE
 GLOBAL| FFT library                                                       FFTW3
 GLOBAL| Diagonalization library                                            ELPA
 GLOBAL| Minimum number of eigenvectors for ELPA usage                        16
 GLOBAL| Orthonormality check for eigenvectors                          DISABLED
 GLOBAL| Matrix multiplication library                                     COSMA
 GLOBAL| All-to-all communication in single precision                          F
 GLOBAL| FFTs using library dependent lengths                                  T
 GLOBAL| Grid backend                                                       AUTO
 GLOBAL| Global print level                                               MEDIUM
 GLOBAL| MPI I/O enabled                                                       T
 GLOBAL| Total number of message passing processes                           128
 GLOBAL| Number of threads for this process                                    1
 GLOBAL| This output is from process                                           0
 GLOBAL| Stack size for threads created by OpenMP (OMP_STACKSIZE)        default
 GLOBAL| CPU model name                 Intel(R) Xeon(R) Gold 6338 CPU @ 2.00GHz
 GLOBAL| CPUID                                                              1003

 MEMORY| system memory details [Kb]
 MEMORY|                        rank 0           min           max       average
 MEMORY| MemTotal            263619172     263619172     263619172     263619172
 MEMORY| MemFree             208360388     208360388     211914780     210137379
 MEMORY| Buffers                   568           568           572           570
 MEMORY| Cached                1264260       1264260       1308592       1286423
 MEMORY| Slab                  1402668       1402668       1406068       1404360
 MEMORY| SReclaimable           322340        295884        322340        309112
 MEMORY| MemLikelyFree       209947556     209947556     213519820     211733484


 *** Fundamental physical constants (SI units) ***

 *** Literature: B. J. Mohr and B. N. Taylor,
 ***             CODATA recommended values of the fundamental physical
 ***             constants: 2006, Web Version 5.1
 ***             http://physics.nist.gov/constants

 Speed of light in vacuum [m/s]                             2.99792458000000E+08
 Magnetic constant or permeability of vacuum [N/A**2]       1.25663706143592E-06
 Electric constant or permittivity of vacuum [F/m]          8.85418781762039E-12
 Planck constant (h) [J*s]                                  6.62606896000000E-34
 Planck constant (h-bar) [J*s]                              1.05457162825177E-34
 Elementary charge [C]                                      1.60217648700000E-19
 Electron mass [kg]                                         9.10938215000000E-31
 Electron g factor [ ]                                     -2.00231930436220E+00
 Proton mass [kg]                                           1.67262163700000E-27
 Fine-structure constant                                    7.29735253760000E-03
 Rydberg constant [1/m]                                     1.09737315685270E+07
 Avogadro constant [1/mol]                                  6.02214179000000E+23
 Boltzmann constant [J/K]                                   1.38065040000000E-23
 Atomic mass unit [kg]                                      1.66053878200000E-27
 Bohr radius [m]                                            5.29177208590000E-11

 *** Conversion factors ***

 [u] -> [a.u.]                                              1.82288848426455E+03
 [Angstrom] -> [Bohr] = [a.u.]                              1.88972613288564E+00
 [a.u.] = [Bohr] -> [Angstrom]                              5.29177208590000E-01
 [a.u.] -> [s]                                              2.41888432650478E-17
 [a.u.] -> [fs]                                             2.41888432650478E-02
 [a.u.] -> [J]                                              4.35974393937059E-18
 [a.u.] -> [N]                                              8.23872205491840E-08
 [a.u.] -> [K]                                              3.15774647902944E+05
 [a.u.] -> [kJ/mol]                                         2.62549961709828E+03
 [a.u.] -> [kcal/mol]                                       6.27509468713739E+02
 [a.u.] -> [Pa]                                             2.94210107994716E+13
 [a.u.] -> [bar]                                            2.94210107994716E+08
 [a.u.] -> [atm]                                            2.90362800883016E+08
 [a.u.] -> [eV]                                             2.72113838565563E+01
 [a.u.] -> [Hz]                                             6.57968392072181E+15
 [a.u.] -> [1/cm] (wave numbers)                            2.19474631370540E+05
 [a.u./Bohr**2] -> [1/cm]                                   5.14048714338585E+03
 

 CELL_TOP| Volume [angstrom^3]:                                     17614.982639
 CELL_TOP| Vector a [angstrom    16.869     0.000     0.000   |a| =    16.869000
 CELL_TOP| Vector b [angstrom    -8.434    14.609     0.000   |b| =    16.869015
 CELL_TOP| Vector c [angstrom     0.000     0.000    71.478   |c| =    71.478000
 CELL_TOP| Angle (b,c), alpha [degree]:                                90.000000
 CELL_TOP| Angle (a,c), beta  [degree]:                                90.000000
 CELL_TOP| Angle (a,b), gamma [degree]:                               119.999970
 CELL_TOP| Numerically orthorhombic:                                          NO
 
 GENERATE|  Preliminary Number of Bonds generated:                             0
 GENERATE|  Achieved consistency in connectivity generation.

 CELL| Volume [angstrom^3]:                                         17614.982639
 CELL| Vector a [angstrom]:      16.869     0.000     0.000   |a| =    16.869000
 CELL| Vector b [angstrom]:      -8.434    14.609     0.000   |b| =    16.869015
 CELL| Vector c [angstrom]:       0.000     0.000    71.478   |c| =    71.478000
 CELL| Angle (b,c), alpha [degree]:                                    90.000000
 CELL| Angle (a,c), beta  [degree]:                                    90.000000
 CELL| Angle (a,b), gamma [degree]:                                   119.999970
 CELL| Numerically orthorhombic:                                              NO

 CELL_REF| Volume [angstrom^3]:                                     17614.982639
 CELL_REF| Vector a [angstrom    16.869     0.000     0.000   |a| =    16.869000
 CELL_REF| Vector b [angstrom    -8.434    14.609     0.000   |b| =    16.869015
 CELL_REF| Vector c [angstrom     0.000     0.000    71.478   |c| =    71.478000
 CELL_REF| Angle (b,c), alpha [degree]:                                90.000000
 CELL_REF| Angle (a,c), beta  [degree]:                                90.000000
 CELL_REF| Angle (a,b), gamma [degree]:                               119.999970
 CELL_REF| Numerically orthorhombic:                                          NO

 *******************************************************************************
 *******************************************************************************
 **                                                                           **
 **     #####                         ##              ##                      **
 **    ##   ##            ##          ##              ##                      **
 **   ##     ##                       ##            ######                    **
 **   ##     ##  ##   ##  ##   #####  ##  ##   ####   ##    #####    #####    **
 **   ##     ##  ##   ##  ##  ##      ## ##   ##      ##   ##   ##  ##   ##   **
 **   ##  ## ##  ##   ##  ##  ##      ####     ###    ##   ######   ######    **
 **    ##  ###   ##   ##  ##  ##      ## ##      ##   ##   ##       ##        **
 **     #######   #####   ##   #####  ##  ##  ####    ##    #####   ##        **
 **           ##                                                    ##        **
 **                                                                           **
 **                                                ... make the atoms dance   **
 **                                                                           **
 **            Copyright (C) by CP2K developers group (2000-2022)             **
 **                      J. Chem. Phys. 152, 194103 (2020)                    **
 **                                                                           **
 *******************************************************************************

 DFT| Spin restricted Kohn-Sham (RKS) calculation                            RKS
 DFT| Multiplicity                                                             1
 DFT| Number of spin states                                                    1
 DFT| Charge                                                                   0
 DFT| Self-interaction correction (SIC)                                       NO
 DFT| Cutoffs: density                                              1.000000E-10
 DFT|          gradient                                             1.000000E-10
 DFT|          tau                                                  1.000000E-10
 DFT|          cutoff_smoothing_range                               0.000000E+00
 DFT| XC density smoothing                                                  NONE
 DFT| XC derivatives                                                          PW

 FUNCTIONAL| PBE:
 FUNCTIONAL| J.P.Perdew, K.Burke, M.Ernzerhof, Phys. Rev. Letter, vol. 77, n 18,
 FUNCTIONAL|  pp. 3865-3868, (1996){spin unpolarized}                           

 vdW POTENTIAL|                                                   Pair Potential
 vdW POTENTIAL|          DFT-D3 (Version 3.1)
 vdW POTENTIAL|          Potential Form: S. Grimme et al, JCP 132: 154104 (2010)
 vdW POTENTIAL|          Zero Damping
 vdW POTENTIAL|          Cutoff Radius [Bohr]:                             20.00
 vdW POTENTIAL|          s6 Scaling Factor:                               1.0000
 vdW POTENTIAL|          sr6 Scaling Factor:                              1.2170
 vdW POTENTIAL|          s8 Scaling Factor:                               0.7220
 vdW POTENTIAL|          Cutoff for CN calculation:                   0.1000E-05

 QS| Method:                                                                 GPW
 QS| Density plane wave grid type                        NON-SPHERICAL FULLSPACE
 QS| Number of grid levels:                                                    4
 QS| Density cutoff [a.u.]:                                                200.0
 QS| Multi grid cutoff [a.u.]: 1) grid level                               200.0
 QS|                           2) grid level                                66.7
 QS|                           3) grid level                                22.2
 QS|                           4) grid level                                 7.4
 QS| Grid level progression factor:                                          3.0
 QS| Relative density cutoff [a.u.]:                                        20.0
 QS| Interaction thresholds: eps_pgf_orb:                                3.2E-07
 QS|                         eps_filter_matrix:                          0.0E+00
 QS|                         eps_core_charge:                            1.0E-15
 QS|                         eps_rho_gspace:                             1.0E-13
 QS|                         eps_rho_rspace:                             1.0E-13
 QS|                         eps_gvg_rspace:                             3.2E-07
 QS|                         eps_ppl:                                    1.0E-02
 QS|                         eps_ppnl:                                   3.2E-09


 ATOMIC KIND INFORMATION

  1. Atomic kind: O                                     Number of atoms:      74

     Orbital Basis Set                                        DZVP-MOLOPT-SR-GTH

       Number of orbital shell sets:                                           1
       Number of orbital shells:                                               5
       Number of primitive Cartesian functions:                                5
       Number of Cartesian basis functions:                                   14
       Number of spherical basis functions:                                   13
       Norm type:                                                              2

       Normalised Cartesian orbitals:

                        Set   Shell   Orbital            Exponent    Coefficient

                          1       1    2s               10.389228       0.396646
                                                         3.849621       0.208811
                                                         1.388401      -0.301641
                                                         0.496955      -0.274061
                                                         0.162492      -0.033677

                          1       2    3s               10.389228       0.303673
                                                         3.849621       0.240943
                                                         1.388401      -0.313066
                                                         0.496955      -0.043055
                                                         0.162492       0.213991

                          1       3    3px              10.389228      -1.530415
                                                         3.849621      -1.371928
                                                         1.388401      -0.761951
                                                         0.496955      -0.253695
                                                         0.162492      -0.035541
                          1       3    3py              10.389228      -1.530415
                                                         3.849621      -1.371928
                                                         1.388401      -0.761951
                                                         0.496955      -0.253695
                                                         0.162492      -0.035541
                          1       3    3pz              10.389228      -1.530415
                                                         3.849621      -1.371928
                                                         1.388401      -0.761951
                                                         0.496955      -0.253695
                                                         0.162492      -0.035541

                          1       4    4px              10.389228      -0.565392
                                                         3.849621      -0.038231
                                                         1.388401      -0.382373
                                                         0.496955       0.179070
                                                         0.162492       0.122714
                          1       4    4py              10.389228      -0.565392
                                                         3.849621      -0.038231
                                                         1.388401      -0.382373
                                                         0.496955       0.179070
                                                         0.162492       0.122714
                          1       4    4pz              10.389228      -0.565392
                                                         3.849621      -0.038231
                                                         1.388401      -0.382373
                                                         0.496955       0.179070
                                                         0.162492       0.122714

                          1       5    4dx2             10.389228       1.867377
                                                         3.849621       0.670994
                                                         1.388401       1.353441
                                                         0.496955       0.273538
                                                         0.162492       0.006620
                          1       5    4dxy             10.389228       3.234392
                                                         3.849621       1.162195
                                                         1.388401       2.344229
                                                         0.496955       0.473781
                                                         0.162492       0.011466
                          1       5    4dxz             10.389228       3.234392
                                                         3.849621       1.162195
                                                         1.388401       2.344229
                                                         0.496955       0.473781
                                                         0.162492       0.011466
                          1       5    4dy2             10.389228       1.867377
                                                         3.849621       0.670994
                                                         1.388401       1.353441
                                                         0.496955       0.273538
                                                         0.162492       0.006620
                          1       5    4dyz             10.389228       3.234392
                                                         3.849621       1.162195
                                                         1.388401       2.344229
                                                         0.496955       0.473781
                                                         0.162492       0.011466
                          1       5    4dz2             10.389228       1.867377
                                                         3.849621       0.670994
                                                         1.388401       1.353441
                                                         0.496955       0.273538
                                                         0.162492       0.006620

       Atomic covalent radius [Angstrom]:                                  0.730

       Atomic van der Waals radius [Angstrom]:                             1.520

     GTH Potential information for                                    GTH-PBE-q6

       Description:                       Goedecker-Teter-Hutter pseudopotential
                                           Goedecker et al., PRB 54, 1703 (1996)
                                          Hartwigsen et al., PRB 58, 3641 (1998)
                                                      Krack, TCA 114, 145 (2005)

       Gaussian exponent of the core charge distribution:               8.360253
       Electronic configuration (s p d ...):                               2   4

       Parameters of the local part of the GTH pseudopotential:

                          rloc        C1          C2          C3          C4
                        0.244554  -16.667215    2.487311

       Parameters of the non-local part of the GTH pseudopotential:

                   l      r(l)      h(i,j,l)

                   0    0.220956   18.337458
                   1    0.211332

  2. Atomic kind: H                                     Number of atoms:     148

     Orbital Basis Set                                        DZVP-MOLOPT-SR-GTH

       Number of orbital shell sets:                                           1
       Number of orbital shells:                                               3
       Number of primitive Cartesian functions:                                5
       Number of Cartesian basis functions:                                    5
       Number of spherical basis functions:                                    5
       Norm type:                                                              2

       Normalised Cartesian orbitals:

                        Set   Shell   Orbital            Exponent    Coefficient

                          1       1    2s               10.068468      -0.133023
                                                         2.680223      -0.177618
                                                         0.791502      -0.258419
                                                         0.239116      -0.107525
                                                         0.082193      -0.014019

                          1       2    3s               10.068468       0.344673
                                                         2.680223       1.819821
                                                         0.791502      -0.999069
                                                         0.239116       0.017430
                                                         0.082193       0.082660

                          1       3    3px              10.068468       0.155326
                                                         2.680223       0.367157
                                                         0.791502       0.311480
                                                         0.239116       0.080105
                                                         0.082193       0.033440
                          1       3    3py              10.068468       0.155326
                                                         2.680223       0.367157
                                                         0.791502       0.311480
                                                         0.239116       0.080105
                                                         0.082193       0.033440
                          1       3    3pz              10.068468       0.155326
                                                         2.680223       0.367157
                                                         0.791502       0.311480
                                                         0.239116       0.080105
                                                         0.082193       0.033440

       Atomic covalent radius [Angstrom]:                                  0.320

       Atomic van der Waals radius [Angstrom]:                             1.090

     GTH Potential information for                                    GTH-PBE-q1

       Description:                       Goedecker-Teter-Hutter pseudopotential
                                           Goedecker et al., PRB 54, 1703 (1996)
                                          Hartwigsen et al., PRB 58, 3641 (1998)
                                                      Krack, TCA 114, 145 (2005)

       Gaussian exponent of the core charge distribution:              12.500000
       Electronic configuration (s p d ...):                                   1

       Parameters of the local part of the GTH pseudopotential:

                          rloc        C1          C2          C3          C4
                        0.200000   -4.178900    0.724463

  3. Atomic kind: Pt                                    Number of atoms:     216

     Orbital Basis Set                      DZVP-A5-Q10-323-MOL-T1-DERIVED_SET-1

       Number of orbital shell sets:                                           1
       Number of orbital shells:                                               6
       Number of primitive Cartesian functions:                                5
       Number of Cartesian basis functions:                                   23
       Number of spherical basis functions:                                   20
       Norm type:                                                              2

       Normalised Cartesian orbitals:

                        Set   Shell   Orbital            Exponent    Coefficient

                          1       1    2s                2.521825       0.177473
                                                         1.453920      -0.063399
                                                         0.614053      -0.407089
                                                         0.232656       0.262254
                                                         0.074788       0.047371

                          1       2    3s                2.521825      -0.049056
                                                         1.453920       0.044904
                                                         0.614053      -0.009756
                                                         0.232656      -0.144709
                                                         0.074788       0.144085

                          1       3    3px               2.521825      -0.317572
                                                         1.453920       0.534826
                                                         0.614053      -0.489458
                                                         0.232656       0.245631
                                                         0.074788       0.018221
                          1       3    3py               2.521825      -0.317572
                                                         1.453920       0.534826
                                                         0.614053      -0.489458
                                                         0.232656       0.245631
                                                         0.074788       0.018221
                          1       3    3pz               2.521825      -0.317572
                                                         1.453920       0.534826
                                                         0.614053      -0.489458
                                                         0.232656       0.245631
                                                         0.074788       0.018221

                          1       4    4dx2              2.521825       3.008522
                                                         1.453920      -1.224251
                                                         0.614053       0.225691
                                                         0.232656       0.125144
                                                         0.074788      -0.015348
                          1       4    4dxy              2.521825       5.210912
                                                         1.453920      -2.120465
                                                         0.614053       0.390909
                                                         0.232656       0.216756
                                                         0.074788      -0.026584
                          1       4    4dxz              2.521825       5.210912
                                                         1.453920      -2.120465
                                                         0.614053       0.390909
                                                         0.232656       0.216756
                                                         0.074788      -0.026584
                          1       4    4dy2              2.521825       3.008522
                                                         1.453920      -1.224251
                                                         0.614053       0.225691
                                                         0.232656       0.125144
                                                         0.074788      -0.015348
                          1       4    4dyz              2.521825       5.210912
                                                         1.453920      -2.120465
                                                         0.614053       0.390909
                                                         0.232656       0.216756
                                                         0.074788      -0.026584
                          1       4    4dz2              2.521825       3.008522
                                                         1.453920      -1.224251
                                                         0.614053       0.225691
                                                         0.232656       0.125144
                                                         0.074788      -0.015348

                          1       5    5dx2              2.521825       0.698026
                                                         1.453920      -1.511486
                                                         0.614053      -0.335394
                                                         0.232656      -0.025564
                                                         0.074788      -0.002699
                          1       5    5dxy              2.521825       1.209017
                                                         1.453920      -2.617970
                                                         0.614053      -0.580920
                                                         0.232656      -0.044277
                                                         0.074788      -0.004674
                          1       5    5dxz              2.521825       1.209017
                                                         1.453920      -2.617970
                                                         0.614053      -0.580920
                                                         0.232656      -0.044277
                                                         0.074788      -0.004674
                          1       5    5dy2              2.521825       0.698026
                                                         1.453920      -1.511486
                                                         0.614053      -0.335394
                                                         0.232656      -0.025564
                                                         0.074788      -0.002699
                          1       5    5dyz              2.521825       1.209017
                                                         1.453920      -2.617970
                                                         0.614053      -0.580920
                                                         0.232656      -0.044277
                                                         0.074788      -0.004674
                          1       5    5dz2              2.521825       0.698026
                                                         1.453920      -1.511486
                                                         0.614053      -0.335394
                                                         0.232656      -0.025564
                                                         0.074788      -0.002699

                          1       6    6dx2              2.521825       0.831079
                                                         1.453920      -0.709226
                                                         0.614053      -0.137351
                                                         0.232656       0.068642
                                                         0.074788       0.011745
                          1       6    6dxy              2.521825       1.439472
                                                         1.453920      -1.228415
                                                         0.614053      -0.237899
                                                         0.232656       0.118891
                                                         0.074788       0.020343
                          1       6    6dxz              2.521825       1.439472
                                                         1.453920      -1.228415
                                                         0.614053      -0.237899
                                                         0.232656       0.118891
                                                         0.074788       0.020343
                          1       6    6dy2              2.521825       0.831079
                                                         1.453920      -0.709226
                                                         0.614053      -0.137351
                                                         0.232656       0.068642
                                                         0.074788       0.011745
                          1       6    6dyz              2.521825       1.439472
                                                         1.453920      -1.228415
                                                         0.614053      -0.237899
                                                         0.232656       0.118891
                                                         0.074788       0.020343
                          1       6    6dz2              2.521825       0.831079
                                                         1.453920      -0.709226
                                                         0.614053      -0.137351
                                                         0.232656       0.068642
                                                         0.074788       0.011745

       Atomic covalent radius [Angstrom]:                                  1.300

       Atomic van der Waals radius [Angstrom]:                             1.750

     GTH Potential information for                                   GTH-PBE-q10

       Description:                       Goedecker-Teter-Hutter pseudopotential
                                           Goedecker et al., PRB 54, 1703 (1996)
                                          Hartwigsen et al., PRB 58, 3641 (1998)
                                                      Krack, TCA 114, 145 (2005)

       Gaussian exponent of the core charge distribution:               1.317676
       Electronic configuration (s p d ...):                           1   0   9

       Parameters of the local part of the GTH pseudopotential:

                          rloc        C1          C2          C3          C4
                        0.616000   11.313635

       Parameters of the non-local part of the GTH pseudopotential:

                   l      r(l)      h(i,j,l)

                   0    0.550904    4.733491   -1.784594
                                   -1.784594    2.303901
                   1    0.674138    2.534798   -1.778066
                                   -1.778066    2.103836
                   2    0.457392   -7.264011    2.558665
                                    2.558665   -2.901253


 MOLECULE KIND INFORMATION


 All atoms are their own molecule, skipping detailed information


 TOTAL NUMBERS AND MAXIMUM NUMBERS

  Total number of            - Atomic kinds:                                   3
                             - Atoms:                                        438
                             - Shell sets:                                   438
                             - Shells:                                      2110
                             - Primitive Cartesian functions:               2190
                             - Cartesian basis functions:                   6744
                             - Spherical basis functions:                   6022

  Maximum angular momentum of- Orbital basis functions:                        2
                             - Local part of the GTH pseudopotential:          2
                             - Non-local part of the GTH pseudopotential:      4


 MODULE QUICKSTEP:  ATOMIC COORDINATES IN angstrom

 Atom  Kind  Element       X           Y           Z          Z(eff)       Mass
    1   1 O    8       9.170000    6.330000   33.098001       6.0000     15.9994
    2   2 H    1       8.650001    7.130001   32.808000       1.0000      1.0079
    3   2 H    1       8.640000    5.550000   32.918001       1.0000      1.0079
    4   1 O    8      -3.360000   13.330001   32.628001       6.0000     15.9994
    5   2 H    1      -3.740000   13.340001   31.718001       1.0000      1.0079
    6   2 H    1      -3.300000   12.340001   32.708000       1.0000      1.0079
    7   1 O    8       2.200000   10.330000   30.898000       6.0000     15.9994
    8   2 H    1       2.900000   10.110001   30.268000       1.0000      1.0079
    9   2 H    1       1.880000   11.200000   30.598001       1.0000      1.0079
   10   1 O    8       6.080000    6.020000   32.618001       6.0000     15.9994
   11   2 H    1       5.340000    5.880000   33.198001       1.0000      1.0079
   12   2 H    1       6.480000    6.940000   32.758001       1.0000      1.0079
   13   1 O    8      12.250000    5.610001   36.678001       6.0000     15.9994
   14   2 H    1      12.810000    5.360000   35.908001       1.0000      1.0079
   15   2 H    1      12.960000    6.320000   37.128002       1.0000      1.0079
   16   1 O    8       8.330001   11.560000   29.758001       6.0000     15.9994
   17   2 H    1       9.400001   11.490001   29.918001       1.0000      1.0079
   18   2 H    1       8.060000   12.510000   29.878001       1.0000      1.0079
   19   1 O    8      -1.010000    2.080000   30.868000       6.0000     15.9994
   20   2 H    1      -0.700000    2.630000   30.088001       1.0000      1.0079
   21   2 H    1      14.880000    1.800000   30.628001       1.0000      1.0079
   22   1 O    8      13.310001    0.170000   35.158000       6.0000     15.9994
   23   2 H    1       4.260000   14.380001   35.808001       1.0000      1.0079
   24   2 H    1      12.690001    0.430000   34.428001       1.0000      1.0079
   25   1 O    8       9.340000    8.840000   35.868000       6.0000     15.9994
   26   2 H    1       8.610001    9.160001   35.288000       1.0000      1.0079
   27   2 H    1       9.490001    7.900000   35.578001       1.0000      1.0079
   28   1 O    8      -0.860000    9.830000   34.538001       6.0000     15.9994
   29   2 H    1       0.030000   10.320001   34.528001       1.0000      1.0079
   30   2 H    1      -0.650000    8.900001   34.298001       1.0000      1.0079
   31   1 O    8      15.600000    1.420000   35.458000       6.0000     15.9994
   32   2 H    1      -0.890000    2.010000   34.728001       1.0000      1.0079
   33   2 H    1      14.750000    1.020000   35.118001       1.0000      1.0079
   34   1 O    8       7.610001    8.240001   32.448000       6.0000     15.9994
   35   2 H    1       7.450001    8.460000   31.478000       1.0000      1.0079
   36   2 H    1       7.340000    9.040001   32.938001       1.0000      1.0079
   37   1 O    8       2.630000    0.580000   36.418001       6.0000     15.9994
   38   2 H    1       2.610000    1.560000   36.678001       1.0000      1.0079
   39   2 H    1       3.330000    0.130000   36.888000       1.0000      1.0079
   40   1 O    8       0.040000    7.190001   34.018001       6.0000     15.9994
   41   2 H    1       0.830000    6.880000   33.538001       1.0000      1.0079
   42   2 H    1      -0.570000    6.570000   33.448000       1.0000      1.0079
   43   1 O    8      12.940001    1.790000   30.628001       6.0000     15.9994
   44   2 H    1      12.200001    1.340000   31.208000       1.0000      1.0079
   45   2 H    1      12.830001    1.520000   29.708000       1.0000      1.0079
   46   1 O    8       4.960000    4.670000   35.158000       6.0000     15.9994
   47   2 H    1       5.510000    5.450000   35.378002       1.0000      1.0079
   48   2 H    1       4.040000    4.950000   35.318001       1.0000      1.0079
   49   1 O    8       0.880000   12.810000   30.428001       6.0000     15.9994
   50   2 H    1       0.780000   13.490001   31.138001       1.0000      1.0079
   51   2 H    1      -0.030000   12.640000   30.018001       1.0000      1.0079
   52   1 O    8       7.480001    0.060000   36.408000       6.0000     15.9994
   53   2 H    1       6.740000    0.590000   36.788000       1.0000      1.0079
   54   2 H    1      -1.240000   14.600000   35.398001       1.0000      1.0079
   55   1 O    8       4.530000    9.890000   29.628001       6.0000     15.9994
   56   2 H    1       5.480001    9.520000   29.528000       1.0000      1.0079
   57   2 H    1       4.540000   10.170001   28.628001       1.0000      1.0079
   58   1 O    8      -5.220000   10.480001   35.648001       6.0000     15.9994
   59   2 H    1      10.940001    9.820001   35.498000       1.0000      1.0079
   60   2 H    1      -5.610001   11.330000   35.238000       1.0000      1.0079
   61   1 O    8       3.050000   10.390000   33.478001       6.0000     15.9994
   62   2 H    1       3.730000   11.090001   33.428001       1.0000      1.0079
   63   2 H    1       2.560000   10.320001   32.588001       1.0000      1.0079
   64   1 O    8       4.860000   12.840000   30.568000       6.0000     15.9994
   65   2 H    1       5.760000   13.110001   30.378001       1.0000      1.0079
   66   2 H    1       4.910000   11.900001   30.338001       1.0000      1.0079
   67   1 O    8      -2.820000    9.500000   36.438001       6.0000     15.9994
   68   2 H    1      -2.040000    9.730001   35.908001       1.0000      1.0079
   69   2 H    1      -3.630000    9.600000   35.848001       1.0000      1.0079
   70   1 O    8       2.590000    7.180000   36.698001       6.0000     15.9994
   71   2 H    1       1.680000    6.820001   36.748000       1.0000      1.0079
   72   2 H    1       2.490000    7.810000   37.458001       1.0000      1.0079
   73   1 O    8       7.290000    0.370000   30.218001       6.0000     15.9994
   74   2 H    1      -1.440000   14.360001   29.558001       1.0000      1.0079
   75   2 H    1       6.730001    0.140000   30.928001       1.0000      1.0079
   76   1 O    8      10.630001    2.800000   34.428001       6.0000     15.9994
   77   2 H    1      10.150002    2.300000   35.108001       1.0000      1.0079
   78   2 H    1       9.960001    3.150000   33.748000       1.0000      1.0079
   79   1 O    8       2.700000    6.380000   33.108001       6.0000     15.9994
   80   2 H    1       2.680000    5.540000   33.588001       1.0000      1.0079
   81   2 H    1       3.060000    7.150001   33.758001       1.0000      1.0079
   82   1 O    8      -7.740001   13.900002   32.398000       6.0000     15.9994
   83   2 H    1      -7.010000   14.350000   32.888001       1.0000      1.0079
   84   2 H    1       9.210001   12.980001   32.868001       1.0000      1.0079
   85   1 O    8      11.600000    0.920000   32.678001       6.0000     15.9994
   86   2 H    1      11.200000    1.540000   33.418001       1.0000      1.0079
   87   2 H    1      10.870000    0.260000   32.478000       1.0000      1.0079
   88   1 O    8      -6.620001   14.420000   30.028000       6.0000     15.9994
   89   2 H    1      -7.060000   14.110001   30.908000       1.0000      1.0079
   90   2 H    1      -7.220001   14.220000   29.258001       1.0000      1.0079
   91   1 O    8       8.520000    3.540000   32.508001       6.0000     15.9994
   92   2 H    1       7.670000    3.300000   32.928001       1.0000      1.0079
   93   2 H    1       8.700001    3.170000   31.638001       1.0000      1.0079
   94   1 O    8       5.990000   10.380001   36.098001       6.0000     15.9994
   95   2 H    1       6.590000   10.900001   36.668001       1.0000      1.0079
   96   2 H    1       5.900001    9.520000   36.518001       1.0000      1.0079
   97   1 O    8       6.910000    0.210000   33.888001       6.0000     15.9994
   98   2 H    1      -2.260000   14.340000   33.448000       1.0000      1.0079
   99   2 H    1       6.920000    1.210000   33.748000       1.0000      1.0079
  100   1 O    8      -1.640000    5.430000   32.788000       6.0000     15.9994
  101   2 H    1      -1.960000    5.420001   31.848001       1.0000      1.0079
  102   2 H    1      -2.430000    5.100000   33.238000       1.0000      1.0079
  103   1 O    8       8.670000    4.870000   29.418001       6.0000     15.9994
  104   2 H    1       8.930000    3.890000   29.578000       1.0000      1.0079
  105   2 H    1       7.730001    4.800000   29.598001       1.0000      1.0079
  106   1 O    8      -2.080000    9.840000   30.358000       6.0000     15.9994
  107   2 H    1      -1.180000    9.400001   30.338001       1.0000      1.0079
  108   2 H    1      -2.230000   10.080000   31.338001       1.0000      1.0079
  109   1 O    8       4.650001    2.200000   28.978000       6.0000     15.9994
  110   2 H    1       5.110001    3.000000   29.298001       1.0000      1.0079
  111   2 H    1       3.660000    2.420000   29.218001       1.0000      1.0079
  112   1 O    8       1.080000   11.920000   34.438000       6.0000     15.9994
  113   2 H    1       1.040000   12.090001   35.398001       1.0000      1.0079
  114   2 H    1       2.000000   11.390000   34.228001       1.0000      1.0079
  115   1 O    8       8.790001   13.870001   35.868000       6.0000     15.9994
  116   2 H    1      16.710001    0.060000   35.528001       1.0000      1.0079
  117   2 H    1      -7.310000   14.250001   36.318001       1.0000      1.0079
  118   1 O    8       2.850000   14.070001   29.278000       6.0000     15.9994
  119   2 H    1       3.590000   13.470001   29.588001       1.0000      1.0079
  120   2 H    1       2.010000   13.570002   29.558001       1.0000      1.0079
  121   1 O    8       7.020000    6.020000   36.428001       6.0000     15.9994
  122   2 H    1       7.130001    5.200000   36.988001       1.0000      1.0079
  123   2 H    1       7.940001    6.210001   36.198001       1.0000      1.0079
  124   1 O    8       9.150001    1.990000   36.648001       6.0000     15.9994
  125   2 H    1       8.410000    2.530000   37.128002       1.0000      1.0079
  126   2 H    1       8.600000    1.170000   36.338001       1.0000      1.0079
  127   1 O    8       4.100000    8.080000   34.758001       6.0000     15.9994
  128   2 H    1       3.510000    7.870001   35.578001       1.0000      1.0079
  129   2 H    1       4.010000    9.070001   34.538001       1.0000      1.0079
  130   1 O    8      -0.300000    2.960000   33.288000       6.0000     15.9994
  131   2 H    1      -0.450000    2.470000   32.448000       1.0000      1.0079
  132   2 H    1      -0.940000    3.700000   33.178001       1.0000      1.0079
  133   1 O    8      -3.870000    8.040000   29.688001       6.0000     15.9994
  134   2 H    1      -3.210000    8.670000   29.948001       1.0000      1.0079
  135   2 H    1      -3.970000    8.220000   28.648000       1.0000      1.0079
  136   1 O    8       9.290000   11.890000   34.018001       6.0000     15.9994
  137   2 H    1       8.320000   11.610001   33.988000       1.0000      1.0079
  138   2 H    1       9.300001   12.530001   34.778001       1.0000      1.0079
  139   1 O    8       7.350000    9.060000   29.838001       6.0000     15.9994
  140   2 H    1       7.860000    9.900001   29.818001       1.0000      1.0079
  141   2 H    1       7.880001    8.360001   29.348001       1.0000      1.0079
  142   1 O    8      11.600000    6.650000   32.058001       6.0000     15.9994
  143   2 H    1      11.750001    5.980001   31.428001       1.0000      1.0079
  144   2 H    1      10.620001    6.530001   32.388001       1.0000      1.0079
  145   1 O    8       4.930000   12.670001   33.228001       6.0000     15.9994
  146   2 H    1       4.830000   13.020000   32.338001       1.0000      1.0079
  147   2 H    1       5.070000   13.400001   33.898001       1.0000      1.0079
  148   1 O    8       2.110000    3.950000   34.408001       6.0000     15.9994
  149   2 H    1       2.630000    3.480000   33.668001       1.0000      1.0079
  150   2 H    1       1.190000    3.790000   34.138001       1.0000      1.0079
  151   1 O    8      -2.300000    5.430000   29.988000       6.0000     15.9994
  152   2 H    1      -2.770000    6.220000   29.618000       1.0000      1.0079
  153   2 H    1      13.690001    4.970000   30.138001       1.0000      1.0079
  154   1 O    8       9.050000    2.310000   29.848001       6.0000     15.9994
  155   2 H    1       8.230000    1.690000   29.988000       1.0000      1.0079
  156   2 H    1       9.400001    2.080000   28.968000       1.0000      1.0079
  157   1 O    8       9.610001    6.160001   35.808001       6.0000     15.9994
  158   2 H    1       9.560000    5.810000   34.928001       1.0000      1.0079
  159   2 H    1      10.480001    6.060000   36.248001       1.0000      1.0079
  160   1 O    8       1.000000   14.040001   32.648001       6.0000     15.9994
  161   2 H    1       1.150000   13.360001   33.378001       1.0000      1.0079
  162   2 H    1       0.150000   14.450001   32.858000       1.0000      1.0079
  163   1 O    8       6.000000    4.840000   29.908000       6.0000     15.9994
  164   2 H    1       6.150000    5.260000   30.738001       1.0000      1.0079
  165   2 H    1       5.490000    5.570001   29.408000       1.0000      1.0079
  166   1 O    8       4.180000    6.940000   29.328000       6.0000     15.9994
  167   2 H    1       4.060000    7.930000   29.428001       1.0000      1.0079
  168   2 H    1       3.260000    6.570000   29.528000       1.0000      1.0079
  169   1 O    8       6.760001   10.610001   33.748000       6.0000     15.9994
  170   2 H    1       6.370000   10.640000   34.698000       1.0000      1.0079
  171   2 H    1       6.220000   11.150000   33.138000       1.0000      1.0079
  172   1 O    8       0.240000    4.610000   29.228001       6.0000     15.9994
  173   2 H    1       0.850000    5.310000   29.638001       1.0000      1.0079
  174   2 H    1      -0.730000    5.010000   29.368000       1.0000      1.0079
  175   1 O    8       6.110000    2.870000   33.498000       6.0000     15.9994
  176   2 H    1       5.260000    2.930000   33.008001       1.0000      1.0079
  177   2 H    1       5.850000    3.400000   34.298001       1.0000      1.0079
  178   1 O    8       2.310000    2.480000   29.918001       6.0000     15.9994
  179   2 H    1       2.020000    1.510000   29.968001       1.0000      1.0079
  180   2 H    1       1.500000    2.930000   29.528000       1.0000      1.0079
  181   1 O    8       9.750000    7.200000   29.338001       6.0000     15.9994
  182   2 H    1       9.390000    6.290000   29.528000       1.0000      1.0079
  183   2 H    1      10.730000    7.120000   29.618000       1.0000      1.0079
  184   1 O    8      12.130001    4.390000   30.268000       6.0000     15.9994
  185   2 H    1      11.860001    4.480000   29.288000       1.0000      1.0079
  186   2 H    1      12.440001    3.370000   30.408000       1.0000      1.0079
  187   1 O    8       2.870000    0.180000   33.768001       6.0000     15.9994
  188   2 H    1      -4.740000   14.250001   33.678001       1.0000      1.0079
  189   2 H    1       2.790000    0.310000   34.788001       1.0000      1.0079
  190   1 O    8      -0.110000    6.090000   36.478002       6.0000     15.9994
  191   2 H    1      -0.970000    6.540000   36.718001       1.0000      1.0079
  192   2 H    1      -0.110000    6.310000   35.528001       1.0000      1.0079
  193   1 O    8       7.270000   13.920001   29.988000       6.0000     15.9994
  194   2 H    1       7.650001   14.570000   30.658000       1.0000      1.0079
  195   2 H    1       7.370000   14.420000   29.108000       1.0000      1.0079
  196   1 O    8       1.670000    6.230001   30.618000       6.0000     15.9994
  197   2 H    1       2.160000    6.080000   31.538000       1.0000      1.0079
  198   2 H    1       1.210000    7.170000   30.678001       1.0000      1.0079
  199   1 O    8      12.830001    4.850000   33.908000       6.0000     15.9994
  200   2 H    1      12.340001    4.040000   34.168001       1.0000      1.0079
  201   2 H    1      12.100000    5.530000   33.678001       1.0000      1.0079
  202   1 O    8      -2.660000   10.680000   32.688001       6.0000     15.9994
  203   2 H    1      -3.320000    9.990001   32.848001       1.0000      1.0079
  204   2 H    1      -1.970000   10.550001   33.368000       1.0000      1.0079
  205   1 O    8       3.460000    2.580000   32.598000       6.0000     15.9994
  206   2 H    1       3.020000    2.540000   31.728001       1.0000      1.0079
  207   2 H    1       3.280000    1.630000   33.008001       1.0000      1.0079
  208   1 O    8       0.390000    8.470000   30.068000       6.0000     15.9994
  209   2 H    1       0.450000    8.410000   29.068000       1.0000      1.0079
  210   2 H    1       0.970000    9.140000   30.388001       1.0000      1.0079
  211   1 O    8      -4.980001    9.250001   32.068000       6.0000     15.9994
  212   2 H    1      11.100000    9.300001   32.668001       1.0000      1.0079
  213   2 H    1      11.920000    8.210000   31.818000       1.0000      1.0079
  214   1 O    8      -4.240000   13.010001   30.118000       6.0000     15.9994
  215   2 H    1      -4.630000   12.090001   30.108001       1.0000      1.0079
  216   2 H    1      -5.050000   13.650000   30.018001       1.0000      1.0079
  217   1 O    8      -1.720000   12.140001   29.088001       6.0000     15.9994
  218   2 H    1      -1.600000   11.310000   29.598001       1.0000      1.0079
  219   2 H    1      -2.640000   12.490001   29.148000       1.0000      1.0079
  220   1 O    8      -5.810000   10.720000   29.868000       6.0000     15.9994
  221   2 H    1      -5.350000   10.120001   30.548001       1.0000      1.0079
  222   2 H    1      11.020000   10.120001   29.068000       1.0000      1.0079
  223   3 Pt  78       1.580000    0.650000   15.180004      10.0000    195.0840
  224   3 Pt  78       4.430000    0.680000   15.250004      10.0000    195.0840
  225   3 Pt  78       7.180000    0.540000   15.150002      10.0000    195.0840
  226   3 Pt  78      10.030001    0.630000   15.310001      10.0000    195.0840
  227   3 Pt  78      12.860001    0.560000   15.240002      10.0000    195.0840
  228   3 Pt  78      15.810001    0.690000   15.139999      10.0000    195.0840
  229   3 Pt  78       3.080000    3.150000   15.190002      10.0000    195.0840
  230   3 Pt  78       5.740000    3.040000   15.340004      10.0000    195.0840
  231   3 Pt  78       8.590000    3.130000   15.200001      10.0000    195.0840
  232   3 Pt  78      11.470001    3.020000   15.330002      10.0000    195.0840
  233   3 Pt  78      14.260001    3.090000   15.390003      10.0000    195.0840
  234   3 Pt  78       0.300000    3.070000   15.080002      10.0000    195.0840
  235   3 Pt  78       4.390000    5.680000   15.190002      10.0000    195.0840
  236   3 Pt  78       7.250000    5.400000   15.360001      10.0000    195.0840
  237   3 Pt  78      10.140000    5.500000   15.400002      10.0000    195.0840
  238   3 Pt  78      13.000001    5.590000   15.280003      10.0000    195.0840
  239   3 Pt  78      -1.190000    5.590000   15.250004      10.0000    195.0840
  240   3 Pt  78       1.610000    5.520000   15.170002      10.0000    195.0840
  241   3 Pt  78       5.920000    7.940001   15.230000      10.0000    195.0840
  242   3 Pt  78       8.720000    7.870001   15.220001      10.0000    195.0840
  243   3 Pt  78      11.480000    7.880001   15.320004      10.0000    195.0840
  244   3 Pt  78      -2.510000    8.020000   15.299999      10.0000    195.0840
  245   3 Pt  78       0.130000    8.020000   15.260002      10.0000    195.0840
  246   3 Pt  78       2.860000    8.000000   15.230000      10.0000    195.0840
  247   3 Pt  78       7.340000   10.400001   15.250004      10.0000    195.0840
  248   3 Pt  78      10.270000   10.340000   15.000000      10.0000    195.0840
  249   3 Pt  78      -3.950000   10.400001   15.190002      10.0000    195.0840
  250   3 Pt  78      -1.150000   10.630001   15.200001      10.0000    195.0840
  251   3 Pt  78       1.600000   10.430001   15.280003      10.0000    195.0840
  252   3 Pt  78       4.540000   10.450001   15.420002      10.0000    195.0840
  253   3 Pt  78       8.650001   12.740001   15.280003      10.0000    195.0840
  254   3 Pt  78      -5.380001   12.880001   15.310001      10.0000    195.0840
  255   3 Pt  78      -2.560000   12.800001   15.170002      10.0000    195.0840
  256   3 Pt  78       0.270000   12.820001   15.299999      10.0000    195.0840
  257   3 Pt  78       3.160000   12.840000   15.320004      10.0000    195.0840
  258   3 Pt  78       5.890000   12.830001   15.350002      10.0000    195.0840
  259   3 Pt  78       0.320000    1.570000   17.580002      10.0000    195.0840
  260   3 Pt  78       3.100000    1.420000   17.530003      10.0000    195.0840
  261   3 Pt  78       5.880000    1.450000   17.670002      10.0000    195.0840
  262   3 Pt  78       8.640000    1.450000   17.580002      10.0000    195.0840
  263   3 Pt  78      11.450001    1.400000   17.690002      10.0000    195.0840
  264   3 Pt  78      14.270000    1.610000   17.620003      10.0000    195.0840
  265   3 Pt  78       1.600000    4.000000   17.510002      10.0000    195.0840
  266   3 Pt  78       4.470000    3.900000   17.470001      10.0000    195.0840
  267   3 Pt  78       7.260000    3.790000   17.620003      10.0000    195.0840
  268   3 Pt  78       9.930000    3.810000   17.720001      10.0000    195.0840
  269   3 Pt  78      12.820001    3.940000   17.639999      10.0000    195.0840
  270   3 Pt  78      -1.190000    3.850000   17.570000      10.0000    195.0840
  271   3 Pt  78       3.060000    6.370000   17.490002      10.0000    195.0840
  272   3 Pt  78       5.830000    6.370000   17.590000      10.0000    195.0840
  273   3 Pt  78       8.660001    6.330000   17.630001      10.0000    195.0840
  274   3 Pt  78      11.420001    6.330000   17.630001      10.0000    195.0840
  275   3 Pt  78      -2.640000    6.490001   17.650002      10.0000    195.0840
  276   3 Pt  78       0.230000    6.290000   17.590000      10.0000    195.0840
  277   3 Pt  78       4.460000    8.790001   17.660000      10.0000    195.0840
  278   3 Pt  78       7.130001    8.770000   17.610004      10.0000    195.0840
  279   3 Pt  78      10.060000    8.790001   17.540001      10.0000    195.0840
  280   3 Pt  78      -3.940000    8.820001   17.570000      10.0000    195.0840
  281   3 Pt  78      -1.040000    8.830000   17.670002      10.0000    195.0840
  282   3 Pt  78       1.640000    8.870000   17.600002      10.0000    195.0840
  283   3 Pt  78       5.860000   11.300000   17.690002      10.0000    195.0840
  284   3 Pt  78       8.580000   11.190001   17.560001      10.0000    195.0840
  285   3 Pt  78      -5.400000   11.170001   17.610004      10.0000    195.0840
  286   3 Pt  78      -2.680000   11.330000   17.560001      10.0000    195.0840
  287   3 Pt  78       0.290000   11.260000   17.620003      10.0000    195.0840
  288   3 Pt  78       3.030000   11.260000   17.720001      10.0000    195.0840
  289   3 Pt  78       7.280001   13.920001   17.630001      10.0000    195.0840
  290   3 Pt  78      -6.910000   13.610001   17.540001      10.0000    195.0840
  291   3 Pt  78      -4.060000   13.650000   17.590000      10.0000    195.0840
  292   3 Pt  78      -1.170000   13.630000   17.670002      10.0000    195.0840
  293   3 Pt  78       1.610000   13.550000   17.620003      10.0000    195.0840
  294   3 Pt  78       4.440001   13.720001   17.620003      10.0000    195.0840
  295   3 Pt  78      -8.260000   14.500000   19.870003      10.0000    195.0840
  296   3 Pt  78      -5.430000   14.530001   19.780003      10.0000    195.0840
  297   3 Pt  78      -2.580000   14.440001   19.910000      10.0000    195.0840
  298   3 Pt  78       0.150000   14.380001   19.950001      10.0000    195.0840
  299   3 Pt  78       2.990000   14.470000   19.940002      10.0000    195.0840
  300   3 Pt  78       5.810000   14.560001   20.049999      10.0000    195.0840
  301   3 Pt  78       1.560000    2.450000   19.860004      10.0000    195.0840
  302   3 Pt  78       4.430000    2.430000   19.940002      10.0000    195.0840
  303   3 Pt  78       7.260000    2.350000   20.040001      10.0000    195.0840
  304   3 Pt  78      10.010000    2.160000   19.960003      10.0000    195.0840
  305   3 Pt  78      12.920000    2.300000   20.030003      10.0000    195.0840
  306   3 Pt  78      -1.230000    2.310000   19.930004      10.0000    195.0840
  307   3 Pt  78       3.110000    4.840000   19.880001      10.0000    195.0840
  308   3 Pt  78       5.840001    4.810000   19.910000      10.0000    195.0840
  309   3 Pt  78       8.740000    4.780000   20.010002      10.0000    195.0840
  310   3 Pt  78      11.390000    4.760000   19.980000      10.0000    195.0840
  311   3 Pt  78      -2.650000    4.730000   19.920002      10.0000    195.0840
  312   3 Pt  78       0.240000    4.740000   19.910000      10.0000    195.0840
  313   3 Pt  78       4.440001    7.280001   19.940002      10.0000    195.0840
  314   3 Pt  78       7.200000    7.160000   19.940002      10.0000    195.0840
  315   3 Pt  78      10.000000    7.350000   19.880001      10.0000    195.0840
  316   3 Pt  78      -4.140000    7.200000   19.930004      10.0000    195.0840
  317   3 Pt  78      -1.140000    7.180000   20.000004      10.0000    195.0840
  318   3 Pt  78       1.630000    7.180000   19.890003      10.0000    195.0840
  319   3 Pt  78       5.810000    9.730001   19.940002      10.0000    195.0840
  320   3 Pt  78       8.640000    9.650001   19.820004      10.0000    195.0840
  321   3 Pt  78      -5.370000    9.680000   19.800003      10.0000    195.0840
  322   3 Pt  78      -2.610000    9.560000   19.850002      10.0000    195.0840
  323   3 Pt  78       0.330000    9.570000   19.940002      10.0000    195.0840
  324   3 Pt  78       3.030000    9.680000   19.990002      10.0000    195.0840
  325   3 Pt  78       7.200000   12.120000   19.960003      10.0000    195.0840
  326   3 Pt  78      -6.920000   12.110001   19.800003      10.0000    195.0840
  327   3 Pt  78      -4.020000   12.070000   19.930004      10.0000    195.0840
  328   3 Pt  78      -1.230000   11.990000   19.900002      10.0000    195.0840
  329   3 Pt  78       1.550000   12.110001   20.000004      10.0000    195.0840
  330   3 Pt  78       4.330000   12.160001   19.950001      10.0000    195.0840
  331   3 Pt  78       1.600000    0.730000   22.108000      10.0000    195.0840
  332   3 Pt  78       4.460000    0.610000   22.078000      10.0000    195.0840
  333   3 Pt  78       7.200000    0.690000   22.238000      10.0000    195.0840
  334   3 Pt  78       9.910001    0.680000   22.318000      10.0000    195.0840
  335   3 Pt  78      12.790001    0.630000   22.328000      10.0000    195.0840
  336   3 Pt  78      15.520000    0.690000   22.268000      10.0000    195.0840
  337   3 Pt  78       3.050000    3.060000   22.208000      10.0000    195.0840
  338   3 Pt  78       5.730000    3.170000   22.308000      10.0000    195.0840
  339   3 Pt  78       8.520000    3.210000   22.268000      10.0000    195.0840
  340   3 Pt  78      11.340000    3.070000   22.278000      10.0000    195.0840
  341   3 Pt  78      14.190001    3.070000   22.338000      10.0000    195.0840
  342   3 Pt  78       0.160000    3.060000   22.288000      10.0000    195.0840
  343   3 Pt  78       4.330000    5.600000   22.228000      10.0000    195.0840
  344   3 Pt  78       7.140000    5.700001   22.228000      10.0000    195.0840
  345   3 Pt  78       9.910001    5.640000   22.288000      10.0000    195.0840
  346   3 Pt  78      12.680000    5.510000   22.208000      10.0000    195.0840
  347   3 Pt  78      -1.220000    5.520000   22.208000      10.0000    195.0840
  348   3 Pt  78       1.680000    5.460000   22.178000      10.0000    195.0840
  349   3 Pt  78       5.780000    8.070001   22.258000      10.0000    195.0840
  350   3 Pt  78       8.610001    8.070001   22.248000      10.0000    195.0840
  351   3 Pt  78      11.420001    8.020000   22.228000      10.0000    195.0840
  352   3 Pt  78      -2.690000    7.930000   22.238000      10.0000    195.0840
  353   3 Pt  78       0.190000    7.890000   22.258000      10.0000    195.0840
  354   3 Pt  78       3.010000    8.020000   22.248000      10.0000    195.0840
  355   3 Pt  78       7.180000   10.540000   22.168000      10.0000    195.0840
  356   3 Pt  78       9.980000   10.460000   22.088000      10.0000    195.0840
  357   3 Pt  78      -4.000000   10.440001   22.128000      10.0000    195.0840
  358   3 Pt  78      -1.240000   10.350000   22.298000      10.0000    195.0840
  359   3 Pt  78       1.470000   10.500001   22.368000      10.0000    195.0840
  360   3 Pt  78       4.340000   10.430001   22.208000      10.0000    195.0840
  361   3 Pt  78       8.560000   12.940001   22.248000      10.0000    195.0840
  362   3 Pt  78      -5.540000   12.780001   21.958000      10.0000    195.0840
  363   3 Pt  78      -2.640000   12.790001   22.268000      10.0000    195.0840
  364   3 Pt  78       0.050000   12.770000   22.298000      10.0000    195.0840
  365   3 Pt  78       2.850000   12.910000   22.408000      10.0000    195.0840
  366   3 Pt  78       5.720000   12.930001   22.318000      10.0000    195.0840
  367   3 Pt  78       0.110000    1.420000   24.578000      10.0000    195.0840
  368   3 Pt  78       2.920000    1.460000   24.378001      10.0000    195.0840
  369   3 Pt  78       5.750000    1.480000   24.478000      10.0000    195.0840
  370   3 Pt  78       8.620001    1.500000   24.518000      10.0000    195.0840
  371   3 Pt  78      11.280001    1.440000   24.708000      10.0000    195.0840
  372   3 Pt  78      14.090000    1.420000   24.648000      10.0000    195.0840
  373   3 Pt  78       1.480000    3.930000   24.568000      10.0000    195.0840
  374   3 Pt  78       4.300000    3.880000   24.418000      10.0000    195.0840
  375   3 Pt  78       7.150001    4.030000   24.548000      10.0000    195.0840
  376   3 Pt  78       9.950001    3.940000   24.548000      10.0000    195.0840
  377   3 Pt  78      12.830001    3.870000   24.508000      10.0000    195.0840
  378   3 Pt  78      -1.210000    3.980000   24.508000      10.0000    195.0840
  379   3 Pt  78       3.010000    6.410000   24.538000      10.0000    195.0840
  380   3 Pt  78       5.680000    6.390000   24.568000      10.0000    195.0840
  381   3 Pt  78       8.560000    6.440001   24.578000      10.0000    195.0840
  382   3 Pt  78      11.430000    6.390000   24.598000      10.0000    195.0840
  383   3 Pt  78      -2.580000    6.300001   24.528000      10.0000    195.0840
  384   3 Pt  78       0.290000    6.340000   24.608000      10.0000    195.0840
  385   3 Pt  78       4.360000    8.820001   24.478000      10.0000    195.0840
  386   3 Pt  78       7.200000    8.870000   24.578000      10.0000    195.0840
  387   3 Pt  78       9.960001    8.750001   24.458000      10.0000    195.0840
  388   3 Pt  78      -4.030000    8.740000   24.548000      10.0000    195.0840
  389   3 Pt  78      -1.230000    8.640000   24.508000      10.0000    195.0840
  390   3 Pt  78       1.530000    8.740000   24.498000      10.0000    195.0840
  391   3 Pt  78       5.850000   11.230000   24.598000      10.0000    195.0840
  392   3 Pt  78       8.730000   11.190001   24.618000      10.0000    195.0840
  393   3 Pt  78      -5.460000   11.200000   24.438000      10.0000    195.0840
  394   3 Pt  78      -2.700000   11.230000   24.508000      10.0000    195.0840
  395   3 Pt  78      -0.020000   11.140001   24.658000      10.0000    195.0840
  396   3 Pt  78       2.930000   11.240001   24.578000      10.0000    195.0840
  397   3 Pt  78       7.270000   13.630000   24.668000      10.0000    195.0840
  398   3 Pt  78      -6.840000   13.620001   24.388000      10.0000    195.0840
  399   3 Pt  78      -4.100000   13.770000   24.588000      10.0000    195.0840
  400   3 Pt  78      -1.300000   13.620001   24.648000      10.0000    195.0840
  401   3 Pt  78       1.540000   13.600000   24.608000      10.0000    195.0840
  402   3 Pt  78       4.370000   13.570002   24.728000      10.0000    195.0840
  403   3 Pt  78      -8.250000   14.480001   26.908001      10.0000    195.0840
  404   3 Pt  78      -5.480001   14.530001   26.758000      10.0000    195.0840
  405   3 Pt  78      -2.500000   14.570000   26.838001      10.0000    195.0840
  406   3 Pt  78       0.280000   14.550000   26.868000      10.0000    195.0840
  407   3 Pt  78       2.970000   14.430000   27.128000      10.0000    195.0840
  408   3 Pt  78       5.710001   14.470000   26.968001      10.0000    195.0840
  409   3 Pt  78       1.640000    2.270000   26.818001      10.0000    195.0840
  410   3 Pt  78       4.490000    2.350000   26.828000      10.0000    195.0840
  411   3 Pt  78       7.340000    2.220000   26.888000      10.0000    195.0840
  412   3 Pt  78      10.100000    2.450000   26.948000      10.0000    195.0840
  413   3 Pt  78      12.880001    2.350000   27.018000      10.0000    195.0840
  414   3 Pt  78      -1.270000    2.290000   26.768001      10.0000    195.0840
  415   3 Pt  78       3.040000    4.730000   26.708000      10.0000    195.0840
  416   3 Pt  78       5.850000    4.800000   26.818001      10.0000    195.0840
  417   3 Pt  78       8.660001    4.750000   26.868000      10.0000    195.0840
  418   3 Pt  78      11.510000    4.880000   26.928000      10.0000    195.0840
  419   3 Pt  78      -2.630000    4.810000   26.748000      10.0000    195.0840
  420   3 Pt  78       0.170000    4.690000   26.998000      10.0000    195.0840
  421   3 Pt  78       4.190001    7.090001   26.878001      10.0000    195.0840
  422   3 Pt  78       7.110000    7.210000   26.908001      10.0000    195.0840
  423   3 Pt  78       9.970000    7.290000   26.958000      10.0000    195.0840
  424   3 Pt  78      -4.040000    7.120000   26.818001      10.0000    195.0840
  425   3 Pt  78      -1.210000    7.070000   26.868000      10.0000    195.0840
  426   3 Pt  78       1.580000    7.180000   27.198000      10.0000    195.0840
  427   3 Pt  78       5.600000    9.550000   26.678001      10.0000    195.0840
  428   3 Pt  78       8.500000    9.590000   26.818001      10.0000    195.0840
  429   3 Pt  78      -5.440001    9.630001   26.718000      10.0000    195.0840
  430   3 Pt  78      -2.740000    9.600000   26.818001      10.0000    195.0840
  431   3 Pt  78       0.250000    9.440001   26.818001      10.0000    195.0840
  432   3 Pt  78       2.900000    9.560000   27.028000      10.0000    195.0840
  433   3 Pt  78       7.180000   12.080001   26.988000      10.0000    195.0840
  434   3 Pt  78      -6.880000   12.170000   26.868000      10.0000    195.0840
  435   3 Pt  78      -4.050000   12.100000   26.908001      10.0000    195.0840
  436   3 Pt  78      -1.200000   11.910001   26.898000      10.0000    195.0840
  437   3 Pt  78       1.570000   11.990000   26.808000      10.0000    195.0840
  438   3 Pt  78       4.330000   11.970000   27.018000      10.0000    195.0840




 SCF PARAMETERS         Density guess:                                   RESTART
                        --------------------------------------------------------
                        max_scf:                                             500
                        max_scf_history:                                       0
                        max_diis:                                              4
                        --------------------------------------------------------
                        eps_scf:                                        1.00E-04
                        eps_scf_history:                                0.00E+00
                        eps_diis:                                       1.00E-01
                        eps_eigval:                                     1.00E-05
                        --------------------------------------------------------
                        level_shift [a.u.]:                             0.000000
                        added MOs                                       500    0
                        --------------------------------------------------------
                        Mixing method:                            BROYDEN_MIXING
                                                charge density mixing in g-space
                        --------------------------------------------------------
                        Smear method:                                FERMI_DIRAC
                        Electronic temperature [K]:                        300.0
                        Electronic temperature [a.u.]:                  9.50E-04
                        Accuracy threshold:                             1.00E-10
                        --------------------------------------------------------
                        No outer SCF

 PW_GRID| Information for grid number                                          1
 PW_GRID| Grid distributed over                                   128 processors
 PW_GRID| Real space group dimensions                                   128    1
 PW_GRID| the grid is blocked:                                                NO
 PW_GRID| Cutoff [a.u.]                                                    200.0
 PW_GRID| spherical cutoff:                                                   NO
 PW_GRID|   Bounds   1           -105     104                Points:         210
 PW_GRID|   Bounds   2           -105     104                Points:         210
 PW_GRID|   Bounds   3           -432     431                Points:         864
 PW_GRID| Volume element (a.u.^3)  0.3120E-02     Volume (a.u.^3)    118871.7965
 PW_GRID| Grid span                                                    FULLSPACE
 PW_GRID|   Distribution                         Average         Max         Min
 PW_GRID|   G-Vectors                           297675.0      297780      297570
 PW_GRID|   G-Rays                                1417.5        1418        1417
 PW_GRID|   Real Space Points                   297675.0      362880      181440

 PW_GRID| Information for grid number                                          2
 PW_GRID| Number of the reference grid                                         1
 PW_GRID| Grid distributed over                                   128 processors
 PW_GRID| Real space group dimensions                                     8   16
 PW_GRID| the grid is blocked:                                                NO
 PW_GRID| Cutoff [a.u.]                                                     66.7
 PW_GRID| spherical cutoff:                                                   NO
 PW_GRID|   Bounds   1            -60      59                Points:         120
 PW_GRID|   Bounds   2            -60      59                Points:         120
 PW_GRID|   Bounds   3           -252     251                Points:         504
 PW_GRID| Volume element (a.u.^3)  0.1638E-01     Volume (a.u.^3)    118871.7965
 PW_GRID| Grid span                                                    FULLSPACE
 PW_GRID|   Distribution                         Average         Max         Min
 PW_GRID|   G-Vectors                            56700.0       57960       55320
 PW_GRID|   G-Rays                                 472.5         483         461
 PW_GRID|   Real Space Points                    56700.0       60480       52920

 PW_GRID| Information for grid number                                          3
 PW_GRID| Number of the reference grid                                         1
 PW_GRID| Grid distributed over                                   128 processors
 PW_GRID| Real space group dimensions                                     8   16
 PW_GRID| the grid is blocked:                                                NO
 PW_GRID| Cutoff [a.u.]                                                     22.2
 PW_GRID| spherical cutoff:                                                   NO
 PW_GRID|   Bounds   1            -35      34                Points:          70
 PW_GRID|   Bounds   2            -35      34                Points:          70
 PW_GRID|   Bounds   3           -144     143                Points:         288
 PW_GRID| Volume element (a.u.^3)  0.8423E-01     Volume (a.u.^3)    118871.7965
 PW_GRID| Grid span                                                    FULLSPACE
 PW_GRID|   Distribution                         Average         Max         Min
 PW_GRID|   G-Vectors                            11025.0       12040        9730
[...]
 flops    13 x    13 x    96           5709387840       0.0%    100.0%      0.0%
 flops    13 x    32 x    20           7597424640       0.0%    100.0%      0.0%
 flops    20 x    32 x    13           7597424640       0.0%    100.0%      0.0%
 flops    20 x    32 x     5           7682355200       0.0%    100.0%      0.0%
 flops     5 x    32 x    20           7682355200       0.0%    100.0%      0.0%
 flops     5 x     5 x   128           9173632000       0.0%    100.0%      0.0%
 flops     5 x    13 x   128          11843520000       0.0%    100.0%      0.0%
 flops    13 x     5 x   128          11845683200       0.0%    100.0%      0.0%
 flops    13 x    20 x    96          12761798400       0.0%    100.0%      0.0%
 flops    20 x    13 x    96          12781267200       0.0%    100.0%      0.0%
 flops    20 x     5 x    96          12908064000       0.0%    100.0%      0.0%
 flops     5 x    20 x    96          12920544000       0.0%    100.0%      0.0%
 flops    13 x    13 x   128          15225034240       0.0%    100.0%      0.0%
 flops    20 x    20 x   116          28273190400       0.0%    100.0%      0.0%
 flops    13 x    20 x   128          34031462400       0.0%    100.0%      0.0%
 flops    20 x    13 x   128          34083379200       0.0%    100.0%      0.0%
 flops    20 x     5 x   128          34421504000       0.0%    100.0%      0.0%
 flops     5 x    20 x   128          34454784000       0.0%    100.0%      0.0%
 flops    20 x    32 x    20          69274828800       0.0%    100.0%      0.0%
 flops    20 x    20 x    96         116992512000       0.0%    100.0%      0.0%
 flops    20 x    20 x   128         311980032000       0.0%    100.0%      0.0%
 flops inhomo. stacks                           0       0.0%      0.0%      0.0%
 flops total                       840.194417E+09       0.0%    100.0%      0.0%
 flops max/rank                      7.334648E+09       0.0%    100.0%      0.0%
 matmuls inhomo. stacks                         0       0.0%      0.0%      0.0%
 matmuls total                           24974446       0.0%    100.0%      0.0%
 number of processed stacks                260852       0.0%    100.0%      0.0%
 average stack size                                     0.0      95.7       0.0
 marketing flops                     1.490978E+12
 -------------------------------------------------------------------------------
 # multiplications                             14
 max memory usage/rank               1.489342E+09
 # max total images/rank                        2
 # max 3D layers                                1
 # MPI messages exchanged                   51968
 MPI messages size (bytes):
  total size                        30.053054E+09
  min size                         265.728000E+03
  max size                           1.988600E+06
  average size                     578.299250E+03
 MPI breakdown and total messages size (bytes):
             size <=      128                   0                        0
       128 < size <=     8192                   0                        0
      8192 < size <=    32768                   0                        0
     32768 < size <=   131072                   0                        0
    131072 < size <=  4194304               51968              30053053168
   4194304 < size <= 16777216                   0                        0
  16777216 < size                               0                        0
 -------------------------------------------------------------------------------

 *** WARNING in dbcsr_mm.F:290 :: Using a non-square number of MPI ranks ***
 *** might lead to poor performance. Used ranks: 128 Suggested: 121 256  ***

 -------------------------------------------------------------------------------
 -                                                                             -
 -                      DBCSR MESSAGE PASSING PERFORMANCE                      -
 -                                                                             -
 -------------------------------------------------------------------------------
 ROUTINE             CALLS      AVE VOLUME [Bytes]
 MP_Bcast               46                     12.
 MP_Allreduce          201                     17.
 MP_Alltoall           385                 540851.
 MP_ISend              896                 274566.
 MP_IRecv              896                 268962.
 -------------------------------------------------------------------------------

 -------------------------------------------------------------------------------
 -                                                                             -
 -                                DBM STATISTICS                               -
 -                                                                             -
 -------------------------------------------------------------------------------
    M  x    N  x    K                                          COUNT     PERCENT
 -------------------------------------------------------------------------------

 -------------------------------------------------------------------------------
 -                                                                             -
 -                                GRID STATISTICS                              -
 -                                                                             -
 -------------------------------------------------------------------------------
 LP    KERNEL             BACKEND                              COUNT     PERCENT
 4     collocate general  REF                                4751304      25.79%
 4     integrate general  REF                                4576273      24.84%
 3     collocate general  REF                                2650932      14.39%
 3     integrate general  REF                                2571375      13.96%
 2     collocate general  REF                                1696248       9.21%
 2     integrate general  REF                                1554894       8.44%
 5     integrate general  REF                                 395942       2.15%
 0     collocate general  REF                                 112128       0.61%
 0     integrate general  REF                                  56064       0.30%
 1     integrate general  REF                                  56064       0.30%
 -------------------------------------------------------------------------------

 MEMORY| Estimated peak process memory [MiB]                                1679

 -------------------------------------------------------------------------------
 ----                             MULTIGRID INFO                            ----
 -------------------------------------------------------------------------------
 count for grid        1:        1070984          cutoff [a.u.]          200.00
 count for grid        2:        1065646          cutoff [a.u.]           66.67
 count for grid        3:         671281          cutoff [a.u.]           22.22
 count for grid        4:         495610          cutoff [a.u.]            7.41
 total gridlevel count  :        3303521

 -------------------------------------------------------------------------------
 -                                                                             -
 -                         MESSAGE PASSING PERFORMANCE                         -
 -                                                                             -
 -------------------------------------------------------------------------------

 ROUTINE             CALLS      AVE VOLUME [Bytes]
 MP_Group                4
 MP_Bcast             2024                 324216.
 MP_Allreduce         2645                  35509.
 MP_Sync                30
 MP_Alltoall           742               19411287.
 MP_SendRecv           508                   5982.
 MP_ISendRecv         6096                  61740.
 MP_Wait             11196
 MP_comm_split          13
 MP_ISend             4816                 257253.
 MP_IRecv             4816                 257253.
 MP_Recv                58                1541632.
 MP_Write_All            3                1797408.
 -------------------------------------------------------------------------------


 -------------------------------------------------------------------------------
 -                                                                             -
 -                           R E F E R E N C E S                               -
 -                                                                             -
 -------------------------------------------------------------------------------
 
 CP2K version 2022.1, the CP2K developers group (2022).
 CP2K is freely available from https://www.cp2k.org/ .

 Kuehne,Thomas D.; Iannuzzi,Marcella; Del Ben,Mauro;
 Rybkin,Vladimir V.; Seewald,Patrick; Stein,Frederick; Laino,Teodoro;
 Khaliullin,Rustam Z.; Schuett,Ole; Schiffmann,Florian; Golze,Dorothea;
 Wilhelm,Jan; Chulkov,Sergey; Bani-Hashemian,Mohammad Hossein;
 Weber,Valery; Borstnik,Urban; Taillefumier,Mathieu;
 Jakobovits,Alice Shoshana; Lazzaro,Alfio; Pabst,Hans; Mueller,Tiziano;
 Schade,Robert; Guidon,Manuel; Andermatt,Samuel; Holmberg,Nico;
 Schenter,Gregory K.; Hehn,Anna; Bussy,Augustin; Belleflamme,Fabian;
 Tabacchi,Gloria; Gloess,Andreas; Lass,Michael; Bethune,Iain;
 Mundy,Christopher J.; Plessl,Christian; Watkins,Matt;
 VandeVondele,Joost; Krack,Matthias; Hutter,Juerg. 
 The Journal of Chemical Physics, 152 (19), (2020). 
 CP2K: An electronic structure and molecular dynamics software package -
 Quickstep: Efficient and accurate electronic structure calculations.
 https://doi.org/10.1063/5.0007045

 Goerigk, Lars; Hansen, Andreas; Bauer, Christoph; Ehrlich, Stephan;
 Najibi, Asim; Grimme, Stefan. , 19 (48), (2017). 
 A look at the density functional theory zoo with the advanced GMTKN55 database
 for general main group thermochemistry, kinetics and noncovalent interactions.
 https://doi.org/10.1039/C7CP04913G

 Bani-Hashemian, MH; Bruck, S; Luisier, M; VandeVondele, J. 
 JOURNAL OF CHEMICAL PHYSICS, 144 (4), 044113 (2016). 
 A generalized Poisson solver for first-principles device simulations.
 https://doi.org/10.1063/1.4940796

 Schuett, Ole; Messmer, Peter; Hutter, Juerg; VandeVondele, Joost. 
 Electronic Structure Calculations on Graphics Processing Units, John
 Wiley & Sons, Ltd, 173-190 (2016). 
 GPU-Accelerated Sparse Matrix-Matrix Multiplication for
 Linear Scaling Density Functional Theory.
 https://doi.org/10.1002/9781118670712.ch8

 Heinecke, A; Henry, G; Hutchinson, M; Pabst, H. 
 Proceedings of Intl. Supercomputing Conference, 981-991 (2016). 
 LIBXSMM: Accelerating Small Matrix Multiplications
 by Runtime Code Generation.
 https://doi.org/10.1109/SC.2016.83

 Borstnik, U; VandeVondele, J; Weber, V; Hutter, J. 
 PARALLEL COMPUTING, 40 (5-6), 47-58 (2014). 
 Sparse matrix multiplication: The distributed block-compressed sparse
 row library.
 https://doi.org/10.1016/j.parco.2014.03.012

 Hutter, J; Iannuzzi, M; Schiffmann, F; VandeVondele, J. 
 WIREs Comput Mol Sci., 4 (1), 15-25 (2014). 
 CP2K: atomistic simulations of condensed matter systems.
 https://doi.org/10.1002/wcms.1159

 Marek, A; Blum, V; Johanni, R; Havu, V; Lang, B; Auckenthaler, T;
 Heinecke, A; Bungartz, H; Lederer, H. 
 Journal of Physics: Condensed Matter, 26 (21), (2014). 
 The ELPA library: scalable parallel eigenvalue solutions for
 electronic structure
 theory and computational science.
 https://doi.org/10.1088/0953-8984/26/21/213201

 Grimme, S; Ehrlich, S; Goerigk, L. 
 JOURNAL OF COMPUTATIONAL CHEMISTRY, 32, 1456 (2011). 
 Effect of the damping function in dispersion corrected density functional theory.
 https://doi.org/10.1002/jcc.21759

 Grimme, S; Antony, J; Ehrlich, S; Krieg, H. 
 JOURNAL OF CHEMICAL PHYSICS, 132 (15), 154104 (2010). 
 A consistent and accurate ab initio parametrization of density
 functional dispersion correction (DFT-D) for the 94 elements H-Pu.
 https://doi.org/10.1063/1.3382344

 VandeVondele, J; Hutter, J. 
 JOURNAL OF CHEMICAL PHYSICS, 127 (11), 114105 (2007). 
 Gaussian basis sets for accurate calculations on molecular systems in
 gas and condensed phases.
 https://doi.org/10.1063/1.2770708

 Krack, M. 
 THEORETICAL CHEMISTRY ACCOUNTS, 114 (1-3), 145-152 (2005). 
 Pseudopotentials for H to Kr optimized for gradient-corrected
 exchange-correlation functionals.
 https://doi.org/10.1007/s00214-005-0655-y

 VandeVondele, J; Krack, M; Mohamed, F; Parrinello, M; Chassaing, T;
 Hutter, J. COMPUTER PHYSICS COMMUNICATIONS, 167 (2), 103-128 (2005). 
 QUICKSTEP: Fast and accurate density functional calculations using a
 mixed Gaussian and plane waves approach.
 https://doi.org/10.1016/j.cpc.2004.12.014

 Frigo, M; Johnson, SG. 
 PROCEEDINGS OF THE IEEE, 93 (2), 216-231 (2005). 
 The design and implementation of FFTW3.
 https://doi.org/10.1109/JPROC.2004.840301

 Hartwigsen, C; Goedecker, S; Hutter, J. 
 PHYSICAL REVIEW B, 58 (7), 3641-3662 (1998). 
 Relativistic separable dual-space Gaussian pseudopotentials from H to Rn.
 https://doi.org/10.1103/PhysRevB.58.3641

 Lippert, G; Hutter, J; Parrinello, M. 
 MOLECULAR PHYSICS, 92 (3), 477-487 (1997). 
 A hybrid Gaussian and plane wave density functional scheme.
 https://doi.org/10.1080/002689797170220

 Perdew, JP; Burke, K; Ernzerhof, M. 
 PHYSICAL REVIEW LETTERS, 77 (18), 3865-3868 (1996). 
 Generalized gradient approximation made simple.
 https://doi.org/10.1103/PhysRevLett.77.3865

 Goedecker, S; Teter, M; Hutter, J. 
 PHYSICAL REVIEW B, 54 (3), 1703-1710 (1996). 
 Separable dual-space Gaussian pseudopotentials.
 https://doi.org/10.1103/PhysRevB.54.1703


 -------------------------------------------------------------------------------
 -                                                                             -
 -                                T I M I N G                                  -
 -                                                                             -
 -------------------------------------------------------------------------------
 SUBROUTINE                       CALLS  ASD         SELF TIME        TOTAL TIME
                                MAXIMUM       AVERAGE  MAXIMUM  AVERAGE  MAXIMUM
 CP2K                                 1  1.0    0.025    0.037   90.329   90.329
 qs_forces                            1  2.0    0.002    0.009   89.867   89.867
 qs_energies                          1  3.0    0.000    0.000   83.716   83.731
 scf_env_do_scf                       1  4.0    0.000    0.000   72.561   72.692
 scf_env_do_scf_inner_loop           11  5.0    0.002    0.002   72.557   72.688
 rebuild_ks_matrix                   12  6.8    0.000    0.000   44.004   44.014
 qs_ks_build_kohn_sham_matrix        12  7.8    0.002    0.003   44.004   44.014
 qs_ks_update_qs_env                 11  6.0    0.000    0.000   39.939   39.949
 pw_transfer                        628 12.0    0.046    0.060   28.415   28.968
 fft_wrap_pw1pw2                    628 13.0    0.006    0.007   28.369   28.913
 fft_wrap_pw1pw2_200                556 14.3    1.856    2.185   27.971   28.502
 pw_poisson_solve                    12  8.8    0.001    0.003   23.858   23.877
 fft3d_ps                           628 15.0    7.922    8.800   22.996   23.862
 implicit_poisson_solver_mixed_      12  9.8    0.499    0.621   22.275   22.297
 qs_scf_new_mos                      11  6.0    0.001    0.002   18.951   18.976
 eigensolver                         11  7.0    0.001    0.001   17.872   17.929
 derive_fft                          72 11.9    0.005    0.006   15.593   15.634
 mp_alltoall_z22v                   628 17.0   12.741   15.476   12.741   15.476
 cp_fm_diag_elpa                     13  8.2    0.000    0.000   13.833   13.870
 cp_fm_redistribute_end              13  9.2    2.756   13.684    2.768   13.688
 cp_fm_diag_elpa_base                13  9.1   10.749   13.366   10.858   13.513
 qs_rho_update_rho_low               12  6.0    0.000    0.000   13.400   13.404
 calculate_rho_elec                  12  7.0    0.023    0.028   13.400   13.404
 apply_P_operator                    60 10.9    0.325    0.366   13.340   13.389
 sum_up_and_integrate                12  8.8    0.065    0.083   13.348   13.369
 integrate_v_rspace                  12  9.8    0.000    0.001   13.283   13.320
 grid_collocate_task_list            12  8.0    7.635   10.487    7.635   10.487
 x_to_yz                            361 16.3    1.534    1.972    9.742   10.144
 grid_integrate_task_list            12 10.8    7.156    9.719    7.156    9.719
 rs_pw_transfer                     100 10.3    0.001    0.001    7.425    9.445
 scf_post_calculation_gpw             1  4.0    0.000    0.001    7.691    7.696
 write_available_results              1  5.0    0.000    0.000    7.691    7.696
 density_rs2pw                       12  8.0    0.001    0.001    5.535    7.476
 yz_to_x                            195 16.3    0.527    0.608    5.011    6.804
 qs_vxc_create                       12  8.8    0.000    0.001    5.965    6.039
 xc_vxc_pw_create                    12  9.8    0.104    0.130    5.964    6.038
 mp_waitany                        4816 12.1    3.907    5.946    3.907    5.946
 rs_pw_transfer_RS2PW_200            14  9.8    0.840    0.983    3.899    5.901
 cp_fm_triangular_multiply           33  8.0    5.532    5.632    5.532    5.632
 write_mo_free_results                1  6.0    0.244    0.344    5.486    5.497
 mp_alltoall_d11v                   190 10.2    2.998    4.963    2.998    4.963
 xc_pw_derive                        72 11.8    0.001    0.001    4.236    4.673
 rs_gather_matrices                  12 10.8    0.013    0.017    2.681    4.622
 qs_ks_update_qs_env_forces           1  3.0    0.000    0.000    4.080    4.081
 apply_poisson_operator_fft          12 10.8    0.000    0.000    3.929    3.996
 apply_inv_laplace_operator_fft      38 11.5    0.094    0.105    3.697    3.832
 pw_to_cube                           3  7.0    0.481    3.358    3.496    3.611
 potential_pw2rs                     12 10.8    0.004    0.004    3.433    3.464
 write_mo_dependent_results           1  6.0    0.000    0.000    2.205    3.329
 calculate_projected_dos              1  7.0    0.282    1.536    2.205    3.329
 xc_pw_divergence                    12 10.8    0.001    0.001    2.862    3.200
 xc_rho_set_and_dset_create          12 10.8    0.060    0.071    2.898    3.062
 ps_implicit_compute_error_fft       24 10.8    0.151    0.184    2.623    2.828
 mp_bcast_l                           3  8.0    2.718    2.740    2.718    2.740
 ps_implicit_compute_veps            12 10.8    0.071    0.086    2.650    2.692
 pw_scatter_p                       397 15.2    2.224    2.601    2.224    2.601
 init_scf_run                         1  4.0    0.000    0.001    2.460    2.462
 rs_pw_transfer_PW2RS_200            14 12.1    1.066    1.118    2.209    2.276
 scf_env_initial_rho_setup            1  5.0    0.000    0.001    2.061    2.062
 build_core_hamiltonian_matrix_       1  3.0    0.000    0.000    1.831    2.044
 pw_derive                          288 12.9    1.822    1.939    1.822    1.939
 mp_sum_d                           639  4.2    0.917    1.927    0.917    1.927
 -------------------------------------------------------------------------------

 The number of warnings for this run is : 1
 
 -------------------------------------------------------------------------------
  **** **** ******  **  PROGRAM ENDED AT                 2024-07-17 22:19:11.338
 ***** ** ***  *** **   PROGRAM RAN ON                                     cu360
 **    ****   ******    PROGRAM RAN BY                                     jxzhu
 ***** **    ** ** **   PROGRAM PROCESS ID                                   993
  **** **  *******  **  PROGRAM STOPPED IN /public/home/jxzhu/tmp_calc/d332fb3e9
                                           c0ce623e04bf3ec84878abc6222bc62/calc/
                                           000000.000/search_lo.000000
