 DBCSR| CPU Multiplication driver                                           XSMM
 DBCSR| Multrec recursion limit                                              512
 DBCSR| Multiplication stack size                                           1000
 DBCSR| Maximum elements for images                                    UNLIMITED
 DBCSR| Multiplicative factor virtual images                                   1
 DBCSR| Use multiplication densification                                       T
 DBCSR| Multiplication size stacks                                             3
 DBCSR| Use memory pool for CPU allocation                                     F
 DBCSR| Number of 3D layers                                               SINGLE
 DBCSR| Use MPI memory allocation                                              F
 DBCSR| Use RMA algorithm                                                      F
 DBCSR| Use Communication thread                                               T
 DBCSR| Communication thread load                                             87
 DBCSR| MPI: My node id                                                        0
 DBCSR| MPI: Number of nodes                                                 128
 DBCSR| OMP: Current number of threads                                         1
 DBCSR| OMP: Max number of threads                                             1
 DBCSR| Split modifier for TAS multiplication algorithm                  1.0E+00


  **** **** ******  **  PROGRAM STARTED AT               2023-12-03 01:52:17.434
 ***** ** ***  *** **   PROGRAM STARTED ON                                 cu001
 **    ****   ******    PROGRAM STARTED BY                                 jxzhu
 ***** **    ** ** **   PROGRAM PROCESS ID                                 32444
  **** **  *******  **  PROGRAM STARTED IN /public/home/jxzhu/tmp_calc/74414c912
                                           e5821022d77189cbd67eb6fe5d66a65/calc/
                                           002400.000/search_lo.000000

 CP2K| version string:                                       CP2K version 2022.1
 CP2K| source code revision number:                                  git:2caeb6f
 CP2K| cp2kflags: omp libint fftw3 libxc elpa parallel mpi3 scalapack cosma xsmm
 CP2K|             plumed2 spglib mkl sirius libvori libbqb
 CP2K| is freely available from                            https://www.cp2k.org/
 CP2K| Program compiled at                           Mon Jul 3 17:37:06 CST 2023
 CP2K| Program compiled on                                                 mu003
 CP2K| Program compiled for                                                local
 CP2K| Data directory path                             /public/home/jxzhu/basis/
 CP2K| Input file name                                                 input.inp
 
 GLOBAL| Force Environment number                                              1
 GLOBAL| Basis set file name                                        BASIS_MOLOPT
 GLOBAL| Potential file name                                      GTH_POTENTIALS
 GLOBAL| MM Potential file name                                     MM_POTENTIAL
 GLOBAL| Coordinate file name                                          coord.xyz
 GLOBAL| Method name                                                        CP2K
 GLOBAL| Project name                                                       cp2k
 GLOBAL| Run type                                                   ENERGY_FORCE
 GLOBAL| FFT library                                                       FFTW3
 GLOBAL| Diagonalization library                                            ELPA
 GLOBAL| Minimum number of eigenvectors for ELPA usage                        16
 GLOBAL| Orthonormality check for eigenvectors                          DISABLED
 GLOBAL| Matrix multiplication library                                     COSMA
 GLOBAL| All-to-all communication in single precision                          F
 GLOBAL| FFTs using library dependent lengths                                  T
 GLOBAL| Grid backend                                                       AUTO
 GLOBAL| Global print level                                               MEDIUM
 GLOBAL| MPI I/O enabled                                                       T
 GLOBAL| Total number of message passing processes                           128
 GLOBAL| Number of threads for this process                                    1
 GLOBAL| This output is from process                                           0
 GLOBAL| Stack size for threads created by OpenMP (OMP_STACKSIZE)        default
 GLOBAL| CPU model name                 Intel(R) Xeon(R) Gold 6338 CPU @ 2.00GHz
 GLOBAL| CPUID                                                              1003

 MEMORY| system memory details [Kb]
 MEMORY|                        rank 0           min           max       average
 MEMORY| MemTotal            263619172     263619172     263619172     263619172
 MEMORY| MemFree             219263096     215989264     219263096     217626169
 MEMORY| Buffers                    20            20            36            28
 MEMORY| Cached                1166852        638712       1166852        902782
 MEMORY| Slab                  1344076       1344076       1414400       1379238
 MEMORY| SReclaimable           240528        230236        240528        235382
 MEMORY| MemLikelyFree       220670496     216858248     220670496     218764361


 *** Fundamental physical constants (SI units) ***

 *** Literature: B. J. Mohr and B. N. Taylor,
 ***             CODATA recommended values of the fundamental physical
 ***             constants: 2006, Web Version 5.1
 ***             http://physics.nist.gov/constants

 Speed of light in vacuum [m/s]                             2.99792458000000E+08
 Magnetic constant or permeability of vacuum [N/A**2]       1.25663706143592E-06
 Electric constant or permittivity of vacuum [F/m]          8.85418781762039E-12
 Planck constant (h) [J*s]                                  6.62606896000000E-34
 Planck constant (h-bar) [J*s]                              1.05457162825177E-34
 Elementary charge [C]                                      1.60217648700000E-19
 Electron mass [kg]                                         9.10938215000000E-31
 Electron g factor [ ]                                     -2.00231930436220E+00
 Proton mass [kg]                                           1.67262163700000E-27
 Fine-structure constant                                    7.29735253760000E-03
 Rydberg constant [1/m]                                     1.09737315685270E+07
 Avogadro constant [1/mol]                                  6.02214179000000E+23
 Boltzmann constant [J/K]                                   1.38065040000000E-23
 Atomic mass unit [kg]                                      1.66053878200000E-27
 Bohr radius [m]                                            5.29177208590000E-11

 *** Conversion factors ***

 [u] -> [a.u.]                                              1.82288848426455E+03
 [Angstrom] -> [Bohr] = [a.u.]                              1.88972613288564E+00
 [a.u.] = [Bohr] -> [Angstrom]                              5.29177208590000E-01
 [a.u.] -> [s]                                              2.41888432650478E-17
 [a.u.] -> [fs]                                             2.41888432650478E-02
 [a.u.] -> [J]                                              4.35974393937059E-18
 [a.u.] -> [N]                                              8.23872205491840E-08
 [a.u.] -> [K]                                              3.15774647902944E+05
 [a.u.] -> [kJ/mol]                                         2.62549961709828E+03
 [a.u.] -> [kcal/mol]                                       6.27509468713739E+02
 [a.u.] -> [Pa]                                             2.94210107994716E+13
 [a.u.] -> [bar]                                            2.94210107994716E+08
 [a.u.] -> [atm]                                            2.90362800883016E+08
 [a.u.] -> [eV]                                             2.72113838565563E+01
 [a.u.] -> [Hz]                                             6.57968392072181E+15
 [a.u.] -> [1/cm] (wave numbers)                            2.19474631370540E+05
 [a.u./Bohr**2] -> [1/cm]                                   5.14048714338585E+03
 

 CELL_TOP| Volume [angstrom^3]:                                     17614.982639
 CELL_TOP| Vector a [angstrom    16.869     0.000     0.000   |a| =    16.869000
 CELL_TOP| Vector b [angstrom    -8.434    14.609     0.000   |b| =    16.869015
 CELL_TOP| Vector c [angstrom     0.000     0.000    71.478   |c| =    71.478000
 CELL_TOP| Angle (b,c), alpha [degree]:                                90.000000
 CELL_TOP| Angle (a,c), beta  [degree]:                                90.000000
 CELL_TOP| Angle (a,b), gamma [degree]:                               119.999970
 CELL_TOP| Numerically orthorhombic:                                          NO
 
 GENERATE|  Preliminary Number of Bonds generated:                             0
 GENERATE|  Achieved consistency in connectivity generation.

 CELL| Volume [angstrom^3]:                                         17614.982639
 CELL| Vector a [angstrom]:      16.869     0.000     0.000   |a| =    16.869000
 CELL| Vector b [angstrom]:      -8.434    14.609     0.000   |b| =    16.869015
 CELL| Vector c [angstrom]:       0.000     0.000    71.478   |c| =    71.478000
 CELL| Angle (b,c), alpha [degree]:                                    90.000000
 CELL| Angle (a,c), beta  [degree]:                                    90.000000
 CELL| Angle (a,b), gamma [degree]:                                   119.999970
 CELL| Numerically orthorhombic:                                              NO

 CELL_REF| Volume [angstrom^3]:                                     17614.982639
 CELL_REF| Vector a [angstrom    16.869     0.000     0.000   |a| =    16.869000
 CELL_REF| Vector b [angstrom    -8.434    14.609     0.000   |b| =    16.869015
 CELL_REF| Vector c [angstrom     0.000     0.000    71.478   |c| =    71.478000
 CELL_REF| Angle (b,c), alpha [degree]:                                90.000000
 CELL_REF| Angle (a,c), beta  [degree]:                                90.000000
 CELL_REF| Angle (a,b), gamma [degree]:                               119.999970
 CELL_REF| Numerically orthorhombic:                                          NO

 *******************************************************************************
 *******************************************************************************
 **                                                                           **
 **     #####                         ##              ##                      **
 **    ##   ##            ##          ##              ##                      **
 **   ##     ##                       ##            ######                    **
 **   ##     ##  ##   ##  ##   #####  ##  ##   ####   ##    #####    #####    **
 **   ##     ##  ##   ##  ##  ##      ## ##   ##      ##   ##   ##  ##   ##   **
 **   ##  ## ##  ##   ##  ##  ##      ####     ###    ##   ######   ######    **
 **    ##  ###   ##   ##  ##  ##      ## ##      ##   ##   ##       ##        **
 **     #######   #####   ##   #####  ##  ##  ####    ##    #####   ##        **
 **           ##                                                    ##        **
 **                                                                           **
 **                                                ... make the atoms dance   **
 **                                                                           **
 **            Copyright (C) by CP2K developers group (2000-2022)             **
 **                      J. Chem. Phys. 152, 194103 (2020)                    **
 **                                                                           **
 *******************************************************************************

 DFT| Spin restricted Kohn-Sham (RKS) calculation                            RKS
 DFT| Multiplicity                                                             1
 DFT| Number of spin states                                                    1
 DFT| Charge                                                                   0
 DFT| Self-interaction correction (SIC)                                       NO
 DFT| Cutoffs: density                                              1.000000E-10
 DFT|          gradient                                             1.000000E-10
 DFT|          tau                                                  1.000000E-10
 DFT|          cutoff_smoothing_range                               0.000000E+00
 DFT| XC density smoothing                                                  NONE
 DFT| XC derivatives                                                          PW

 FUNCTIONAL| PBE:
 FUNCTIONAL| J.P.Perdew, K.Burke, M.Ernzerhof, Phys. Rev. Letter, vol. 77, n 18,
 FUNCTIONAL|  pp. 3865-3868, (1996){spin unpolarized}                           

 vdW POTENTIAL|                                                   Pair Potential
 vdW POTENTIAL|          DFT-D3 (Version 3.1)
 vdW POTENTIAL|          Potential Form: S. Grimme et al, JCP 132: 154104 (2010)
 vdW POTENTIAL|          Zero Damping
 vdW POTENTIAL|          Cutoff Radius [Bohr]:                             20.00
 vdW POTENTIAL|          s6 Scaling Factor:                               1.0000
 vdW POTENTIAL|          sr6 Scaling Factor:                              1.2170
 vdW POTENTIAL|          s8 Scaling Factor:                               0.7220
 vdW POTENTIAL|          Cutoff for CN calculation:                   0.1000E-05

 QS| Method:                                                                 GPW
 QS| Density plane wave grid type                        NON-SPHERICAL FULLSPACE
 QS| Number of grid levels:                                                    4
 QS| Density cutoff [a.u.]:                                                200.0
 QS| Multi grid cutoff [a.u.]: 1) grid level                               200.0
 QS|                           2) grid level                                66.7
 QS|                           3) grid level                                22.2
 QS|                           4) grid level                                 7.4
 QS| Grid level progression factor:                                          3.0
 QS| Relative density cutoff [a.u.]:                                        20.0
 QS| Interaction thresholds: eps_pgf_orb:                                3.2E-07
 QS|                         eps_filter_matrix:                          0.0E+00
 QS|                         eps_core_charge:                            1.0E-15
 QS|                         eps_rho_gspace:                             1.0E-13
 QS|                         eps_rho_rspace:                             1.0E-13
 QS|                         eps_gvg_rspace:                             3.2E-07
 QS|                         eps_ppl:                                    1.0E-02
 QS|                         eps_ppnl:                                   3.2E-09


 ATOMIC KIND INFORMATION

  1. Atomic kind: O                                     Number of atoms:      97

     Orbital Basis Set                                        DZVP-MOLOPT-SR-GTH

       Number of orbital shell sets:                                           1
       Number of orbital shells:                                               5
       Number of primitive Cartesian functions:                                5
       Number of Cartesian basis functions:                                   14
       Number of spherical basis functions:                                   13
       Norm type:                                                              2

       Normalised Cartesian orbitals:

                        Set   Shell   Orbital            Exponent    Coefficient

                          1       1    2s               10.389228       0.396646
                                                         3.849621       0.208811
                                                         1.388401      -0.301641
                                                         0.496955      -0.274061
                                                         0.162492      -0.033677

                          1       2    3s               10.389228       0.303673
                                                         3.849621       0.240943
                                                         1.388401      -0.313066
                                                         0.496955      -0.043055
                                                         0.162492       0.213991

                          1       3    3px              10.389228      -1.530415
                                                         3.849621      -1.371928
                                                         1.388401      -0.761951
                                                         0.496955      -0.253695
                                                         0.162492      -0.035541
                          1       3    3py              10.389228      -1.530415
                                                         3.849621      -1.371928
                                                         1.388401      -0.761951
                                                         0.496955      -0.253695
                                                         0.162492      -0.035541
                          1       3    3pz              10.389228      -1.530415
                                                         3.849621      -1.371928
                                                         1.388401      -0.761951
                                                         0.496955      -0.253695
                                                         0.162492      -0.035541

                          1       4    4px              10.389228      -0.565392
                                                         3.849621      -0.038231
                                                         1.388401      -0.382373
                                                         0.496955       0.179070
                                                         0.162492       0.122714
                          1       4    4py              10.389228      -0.565392
                                                         3.849621      -0.038231
                                                         1.388401      -0.382373
                                                         0.496955       0.179070
                                                         0.162492       0.122714
                          1       4    4pz              10.389228      -0.565392
                                                         3.849621      -0.038231
                                                         1.388401      -0.382373
                                                         0.496955       0.179070
                                                         0.162492       0.122714

                          1       5    4dx2             10.389228       1.867377
                                                         3.849621       0.670994
                                                         1.388401       1.353441
                                                         0.496955       0.273538
                                                         0.162492       0.006620
                          1       5    4dxy             10.389228       3.234392
                                                         3.849621       1.162195
                                                         1.388401       2.344229
                                                         0.496955       0.473781
                                                         0.162492       0.011466
                          1       5    4dxz             10.389228       3.234392
                                                         3.849621       1.162195
                                                         1.388401       2.344229
                                                         0.496955       0.473781
                                                         0.162492       0.011466
                          1       5    4dy2             10.389228       1.867377
                                                         3.849621       0.670994
                                                         1.388401       1.353441
                                                         0.496955       0.273538
                                                         0.162492       0.006620
                          1       5    4dyz             10.389228       3.234392
                                                         3.849621       1.162195
                                                         1.388401       2.344229
                                                         0.496955       0.473781
                                                         0.162492       0.011466
                          1       5    4dz2             10.389228       1.867377
                                                         3.849621       0.670994
                                                         1.388401       1.353441
                                                         0.496955       0.273538
                                                         0.162492       0.006620

       Atomic covalent radius [Angstrom]:                                  0.730

       Atomic van der Waals radius [Angstrom]:                             1.520

     GTH Potential information for                                    GTH-PBE-q6

       Description:                       Goedecker-Teter-Hutter pseudopotential
                                           Goedecker et al., PRB 54, 1703 (1996)
                                          Hartwigsen et al., PRB 58, 3641 (1998)
                                                      Krack, TCA 114, 145 (2005)

       Gaussian exponent of the core charge distribution:               8.360253
       Electronic configuration (s p d ...):                               2   4

       Parameters of the local part of the GTH pseudopotential:

                          rloc        C1          C2          C3          C4
                        0.244554  -16.667215    2.487311

       Parameters of the non-local part of the GTH pseudopotential:

                   l      r(l)      h(i,j,l)

                   0    0.220956   18.337458
                   1    0.211332

  2. Atomic kind: H                                     Number of atoms:     194

     Orbital Basis Set                                        DZVP-MOLOPT-SR-GTH

       Number of orbital shell sets:                                           1
       Number of orbital shells:                                               3
       Number of primitive Cartesian functions:                                5
       Number of Cartesian basis functions:                                    5
       Number of spherical basis functions:                                    5
       Norm type:                                                              2

       Normalised Cartesian orbitals:

                        Set   Shell   Orbital            Exponent    Coefficient

                          1       1    2s               10.068468      -0.133023
                                                         2.680223      -0.177618
                                                         0.791502      -0.258419
                                                         0.239116      -0.107525
                                                         0.082193      -0.014019

                          1       2    3s               10.068468       0.344673
                                                         2.680223       1.819821
                                                         0.791502      -0.999069
                                                         0.239116       0.017430
                                                         0.082193       0.082660

                          1       3    3px              10.068468       0.155326
                                                         2.680223       0.367157
                                                         0.791502       0.311480
                                                         0.239116       0.080105
                                                         0.082193       0.033440
                          1       3    3py              10.068468       0.155326
                                                         2.680223       0.367157
                                                         0.791502       0.311480
                                                         0.239116       0.080105
                                                         0.082193       0.033440
                          1       3    3pz              10.068468       0.155326
                                                         2.680223       0.367157
                                                         0.791502       0.311480
                                                         0.239116       0.080105
                                                         0.082193       0.033440

       Atomic covalent radius [Angstrom]:                                  0.320

       Atomic van der Waals radius [Angstrom]:                             1.090

     GTH Potential information for                                    GTH-PBE-q1

       Description:                       Goedecker-Teter-Hutter pseudopotential
                                           Goedecker et al., PRB 54, 1703 (1996)
                                          Hartwigsen et al., PRB 58, 3641 (1998)
                                                      Krack, TCA 114, 145 (2005)

       Gaussian exponent of the core charge distribution:              12.500000
       Electronic configuration (s p d ...):                                   1

       Parameters of the local part of the GTH pseudopotential:

                          rloc        C1          C2          C3          C4
                        0.200000   -4.178900    0.724463

  3. Atomic kind: Pt                                    Number of atoms:     216

     Orbital Basis Set                      DZVP-A5-Q10-323-MOL-T1-DERIVED_SET-1

       Number of orbital shell sets:                                           1
       Number of orbital shells:                                               6
       Number of primitive Cartesian functions:                                5
       Number of Cartesian basis functions:                                   23
       Number of spherical basis functions:                                   20
       Norm type:                                                              2

       Normalised Cartesian orbitals:

                        Set   Shell   Orbital            Exponent    Coefficient

                          1       1    2s                2.521825       0.177473
                                                         1.453920      -0.063399
                                                         0.614053      -0.407089
                                                         0.232656       0.262254
                                                         0.074788       0.047371

                          1       2    3s                2.521825      -0.049056
                                                         1.453920       0.044904
                                                         0.614053      -0.009756
                                                         0.232656      -0.144709
                                                         0.074788       0.144085

                          1       3    3px               2.521825      -0.317572
                                                         1.453920       0.534826
                                                         0.614053      -0.489458
                                                         0.232656       0.245631
                                                         0.074788       0.018221
                          1       3    3py               2.521825      -0.317572
                                                         1.453920       0.534826
                                                         0.614053      -0.489458
                                                         0.232656       0.245631
                                                         0.074788       0.018221
                          1       3    3pz               2.521825      -0.317572
                                                         1.453920       0.534826
                                                         0.614053      -0.489458
                                                         0.232656       0.245631
                                                         0.074788       0.018221

                          1       4    4dx2              2.521825       3.008522
                                                         1.453920      -1.224251
                                                         0.614053       0.225691
                                                         0.232656       0.125144
                                                         0.074788      -0.015348
                          1       4    4dxy              2.521825       5.210912
                                                         1.453920      -2.120465
                                                         0.614053       0.390909
                                                         0.232656       0.216756
                                                         0.074788      -0.026584
                          1       4    4dxz              2.521825       5.210912
                                                         1.453920      -2.120465
                                                         0.614053       0.390909
                                                         0.232656       0.216756
                                                         0.074788      -0.026584
                          1       4    4dy2              2.521825       3.008522
                                                         1.453920      -1.224251
                                                         0.614053       0.225691
                                                         0.232656       0.125144
                                                         0.074788      -0.015348
                          1       4    4dyz              2.521825       5.210912
                                                         1.453920      -2.120465
                                                         0.614053       0.390909
                                                         0.232656       0.216756
                                                         0.074788      -0.026584
                          1       4    4dz2              2.521825       3.008522
                                                         1.453920      -1.224251
                                                         0.614053       0.225691
                                                         0.232656       0.125144
                                                         0.074788      -0.015348

                          1       5    5dx2              2.521825       0.698026
                                                         1.453920      -1.511486
                                                         0.614053      -0.335394
                                                         0.232656      -0.025564
                                                         0.074788      -0.002699
                          1       5    5dxy              2.521825       1.209017
                                                         1.453920      -2.617970
                                                         0.614053      -0.580920
                                                         0.232656      -0.044277
                                                         0.074788      -0.004674
                          1       5    5dxz              2.521825       1.209017
                                                         1.453920      -2.617970
                                                         0.614053      -0.580920
                                                         0.232656      -0.044277
                                                         0.074788      -0.004674
                          1       5    5dy2              2.521825       0.698026
                                                         1.453920      -1.511486
                                                         0.614053      -0.335394
                                                         0.232656      -0.025564
                                                         0.074788      -0.002699
                          1       5    5dyz              2.521825       1.209017
                                                         1.453920      -2.617970
                                                         0.614053      -0.580920
                                                         0.232656      -0.044277
                                                         0.074788      -0.004674
                          1       5    5dz2              2.521825       0.698026
                                                         1.453920      -1.511486
                                                         0.614053      -0.335394
                                                         0.232656      -0.025564
                                                         0.074788      -0.002699

                          1       6    6dx2              2.521825       0.831079
                                                         1.453920      -0.709226
                                                         0.614053      -0.137351
                                                         0.232656       0.068642
                                                         0.074788       0.011745
                          1       6    6dxy              2.521825       1.439472
                                                         1.453920      -1.228415
                                                         0.614053      -0.237899
                                                         0.232656       0.118891
                                                         0.074788       0.020343
                          1       6    6dxz              2.521825       1.439472
                                                         1.453920      -1.228415
                                                         0.614053      -0.237899
                                                         0.232656       0.118891
                                                         0.074788       0.020343
                          1       6    6dy2              2.521825       0.831079
                                                         1.453920      -0.709226
                                                         0.614053      -0.137351
                                                         0.232656       0.068642
                                                         0.074788       0.011745
                          1       6    6dyz              2.521825       1.439472
                                                         1.453920      -1.228415
                                                         0.614053      -0.237899
                                                         0.232656       0.118891
                                                         0.074788       0.020343
                          1       6    6dz2              2.521825       0.831079
                                                         1.453920      -0.709226
                                                         0.614053      -0.137351
                                                         0.232656       0.068642
                                                         0.074788       0.011745

       Atomic covalent radius [Angstrom]:                                  1.300

       Atomic van der Waals radius [Angstrom]:                             1.750

     GTH Potential information for                                   GTH-PBE-q10

       Description:                       Goedecker-Teter-Hutter pseudopotential
                                           Goedecker et al., PRB 54, 1703 (1996)
                                          Hartwigsen et al., PRB 58, 3641 (1998)
                                                      Krack, TCA 114, 145 (2005)

       Gaussian exponent of the core charge distribution:               1.317676
       Electronic configuration (s p d ...):                           1   0   9

       Parameters of the local part of the GTH pseudopotential:

                          rloc        C1          C2          C3          C4
                        0.616000   11.313635

       Parameters of the non-local part of the GTH pseudopotential:

                   l      r(l)      h(i,j,l)

                   0    0.550904    4.733491   -1.784594
                                   -1.784594    2.303901
                   1    0.674138    2.534798   -1.778066
                                   -1.778066    2.103836
                   2    0.457392   -7.264011    2.558665
                                    2.558665   -2.901253


 MOLECULE KIND INFORMATION


 All atoms are their own molecule, skipping detailed information


 TOTAL NUMBERS AND MAXIMUM NUMBERS

  Total number of            - Atomic kinds:                                   3
                             - Atoms:                                        507
                             - Shell sets:                                   507
                             - Shells:                                      2363
                             - Primitive Cartesian functions:               2535
                             - Cartesian basis functions:                   7296
                             - Spherical basis functions:                   6551

  Maximum angular momentum of- Orbital basis functions:                        2
                             - Local part of the GTH pseudopotential:          2
                             - Non-local part of the GTH pseudopotential:      4


 MODULE QUICKSTEP:  ATOMIC COORDINATES IN angstrom

 Atom  Kind  Element       X           Y           Z          Z(eff)       Mass
    1   1 O    8       6.060000   -3.780000   29.657999       6.0000     15.9994
    2   2 H    1       6.170001   -4.040000   28.718000       1.0000      1.0079
    3   2 H    1       5.010000   -3.510000   29.798000       1.0000      1.0079
    4   1 O    8      10.110001    1.270000   33.008000       6.0000     15.9994
    5   2 H    1       9.990001    0.820000   32.138000       1.0000      1.0079
    6   2 H    1      10.800000    0.690000   33.398000       1.0000      1.0079
    7   1 O    8     -12.770000  -28.800001   35.868000       6.0000     15.9994
    8   2 H    1     -12.090001  -28.170002   36.187999       1.0000      1.0079
    9   2 H    1     -13.370000  -28.220001   35.317999       1.0000      1.0079
   10   1 O    8      16.570000    6.210001   30.098000       6.0000     15.9994
   11   2 H    1      16.639999    6.180000   29.117999       1.0000      1.0079
   12   2 H    1      15.640001    6.500000   30.188000       1.0000      1.0079
   13   1 O    8       9.340000   26.470001   29.188000       6.0000     15.9994
   14   2 H    1       8.530001   26.950001   29.657999       1.0000      1.0079
   15   2 H    1      17.430000   10.980000   28.918000       1.0000      1.0079
   16   1 O    8     -25.340002  -31.310001   35.827999       6.0000     15.9994
   17   2 H    1     -25.170002  -30.510002   35.258001       1.0000      1.0079
   18   2 H    1     -26.230001  -31.200001   36.228000       1.0000      1.0079
   19   1 O    8     -11.160001  -47.690002   34.048000       6.0000     15.9994
   20   2 H    1     -11.870001  -48.290001   34.248000       1.0000      1.0079
   21   2 H    1     -11.080000  -47.500000   33.068000       1.0000      1.0079
   22   1 O    8      30.140001   20.250000   33.518000       6.0000     15.9994
   23   2 H    1      29.980001   19.310001   33.118000       1.0000      1.0079
   24   2 H    1      29.410002   20.800001   33.197999       1.0000      1.0079
   25   1 O    8      -9.890000    7.050000   32.268000       6.0000     15.9994
   26   2 H    1     -10.320001    7.790000   31.888000       1.0000      1.0079
   27   2 H    1     -10.660001    6.560000   32.787999       1.0000      1.0079
   28   1 O    8      19.570002    2.540000   30.568000       6.0000     15.9994
   29   2 H    1      18.930000    3.210000   30.888000       1.0000      1.0079
   30   2 H    1      19.550001    2.550000   29.588000       1.0000      1.0079
   31   1 O    8      36.130001  -33.880001   39.768001       6.0000     15.9994
   32   2 H    1      36.230003  -34.710003   39.238000       1.0000      1.0079
   33   2 H    1      52.110004  -33.880001   40.148000       1.0000      1.0079
   34   1 O    8      -0.610000  -38.590004   35.948000       6.0000     15.9994
   35   2 H    1      -0.190000  -38.190002   36.758000       1.0000      1.0079
   36   2 H    1      -0.070000  -38.160004   35.197999       1.0000      1.0079
   37   1 O    8      16.900002  -18.040001   39.437999       6.0000     15.9994
   38   2 H    1      17.170002  -18.610001   40.197999       1.0000      1.0079
   39   2 H    1      17.680000  -17.630001   39.027999       1.0000      1.0079
   40   1 O    8      -1.590000   16.620001   32.218000       6.0000     15.9994
   41   2 H    1      -0.900000   17.320002   32.338000       1.0000      1.0079
   42   2 H    1      -1.360000   15.940001   32.867999       1.0000      1.0079
   43   1 O    8       8.750001   -3.700000   33.588000       6.0000     15.9994
   44   2 H    1      -8.310000   -3.140000   34.347999       1.0000      1.0079
   45   2 H    1       8.020000   -3.750000   32.878000       1.0000      1.0079
   46   1 O    8       1.590000   -3.540000   32.487999       6.0000     15.9994
   47   2 H    1       2.510000   -3.190000   32.478000       1.0000      1.0079
   48   2 H    1       1.440000   -3.280000   33.378000       1.0000      1.0079
   49   1 O    8      19.600000   56.430000   39.408000       6.0000     15.9994
   50   2 H    1      19.200001   56.920006   38.628000       1.0000      1.0079
   51   2 H    1      19.560001   55.440002   39.258001       1.0000      1.0079
   52   1 O    8     -24.860001  -14.530001   29.998000       6.0000     15.9994
   53   2 H    1     -24.820002  -14.630001   30.978000       1.0000      1.0079
   54   2 H    1     -23.860001  -14.520000   29.857999       1.0000      1.0079
   55   1 O    8       1.130000    8.410000   31.107999       6.0000     15.9994
   56   2 H    1       0.630000    7.670000   30.687999       1.0000      1.0079
   57   2 H    1       0.450000    9.120001   31.408000       1.0000      1.0079
   58   1 O    8      29.450001    2.510000   30.128000       6.0000     15.9994
   59   2 H    1      29.540003    1.550000   30.148000       1.0000      1.0079
   60   2 H    1      11.560000    2.650000   29.968000       1.0000      1.0079
   61   1 O    8      -2.900000   15.280001   29.827999       6.0000     15.9994
   62   2 H    1      -2.410000   15.800000   30.527999       1.0000      1.0079
   63   2 H    1      -3.070000   15.810001   28.998000       1.0000      1.0079
   64   1 O    8      28.990002   12.280001   36.117999       6.0000     15.9994
   65   2 H    1      28.110001   12.730000   36.198000       1.0000      1.0079
   66   2 H    1      28.950003   11.300000   36.268000       1.0000      1.0079
   67   1 O    8      13.560000   19.630001   36.107999       6.0000     15.9994
   68   2 H    1      13.160001   19.800001   35.208001       1.0000      1.0079
   69   2 H    1      14.510001   19.860001   36.068000       1.0000      1.0079
   70   1 O    8     -23.170002   14.600000   37.617999       6.0000     15.9994
   71   2 H    1     -22.330000   14.760000   37.117999       1.0000      1.0079
   72   2 H    1     -23.860001   14.930000   37.077998       1.0000      1.0079
   73   1 O    8     -10.920000  -15.850000   34.347999       6.0000     15.9994
   74   2 H    1     -11.020000  -16.820000   34.098000       1.0000      1.0079
   75   2 H    1     -19.080002   -0.720000   33.518000       1.0000      1.0079
   76   1 O    8       0.160000   24.200001   29.237999       6.0000     15.9994
   77   2 H    1       0.480000   25.120001   29.408000       1.0000      1.0079
   78   2 H    1      -0.780000   24.209999   29.527999       1.0000      1.0079
   79   1 O    8       6.300001   14.290000   36.898000       6.0000     15.9994
   80   2 H    1       6.100000   15.220001   36.648000       1.0000      1.0079
   81   2 H    1       6.640000   13.920001   36.008000       1.0000      1.0079
   82   1 O    8     -11.400002   25.940001   39.748000       6.0000     15.9994
   83   2 H    1       6.370000   25.930002   40.038001       1.0000      1.0079
   84   2 H    1     -11.890000   26.250002   40.588001       1.0000      1.0079
   85   1 O    8      20.510002  -17.040001   30.478000       6.0000     15.9994
   86   2 H    1      20.300003  -17.560001   29.678000       1.0000      1.0079
   87   2 H    1      19.710001  -16.790001   31.058000       1.0000      1.0079
   88   1 O    8      -5.070000   -5.960000   30.037999       6.0000     15.9994
   89   2 H    1      -5.360000   -5.700001   29.107999       1.0000      1.0079
   90   2 H    1      -5.970000   -5.970000   30.537999       1.0000      1.0079
   91   1 O    8       9.290000  -22.470001   33.737999       6.0000     15.9994
   92   2 H    1       9.440001  -21.800001   34.447999       1.0000      1.0079
   93   2 H    1       8.440001  -22.320002   33.298001       1.0000      1.0079
   94   1 O    8      17.940001   15.210000   29.987999       6.0000     15.9994
   95   2 H    1      18.690001   14.860001   29.498000       1.0000      1.0079
   96   2 H    1      17.330000   14.320001   30.178000       1.0000      1.0079
   97   1 O    8       8.750001  -22.390001   38.187999       6.0000     15.9994
   98   2 H    1       7.920001  -22.260000   38.788001       1.0000      1.0079
   99   2 H    1       9.480001  -22.500000   38.808000       1.0000      1.0079
  100   1 O    8     -23.350000   49.870003   33.527999       6.0000     15.9994
  101   2 H    1     -23.780001   49.350006   32.838001       1.0000      1.0079
  102   2 H    1     -23.800001   50.750004   33.588000       1.0000      1.0079
  103   1 O    8     -31.650002  -13.830000   36.758000       6.0000     15.9994
  104   2 H    1     -31.010000  -13.030001   36.708000       1.0000      1.0079
  105   2 H    1     -32.470001  -13.400001   36.408000       1.0000      1.0079
  106   1 O    8      16.300001   14.980001   34.228000       6.0000     15.9994
  107   2 H    1      17.170002   15.110001   33.778000       1.0000      1.0079
  108   2 H    1      16.250002   15.680000   34.898000       1.0000      1.0079
  109   1 O    8      15.110001    3.270000   32.218000       6.0000     15.9994
  110   2 H    1       6.470000   18.350000   31.338000       1.0000      1.0079
  111   2 H    1      14.760000    4.040000   32.787999       1.0000      1.0079
  112   1 O    8     -24.600000  -10.290001   31.678000       6.0000     15.9994
  113   2 H    1     -25.340002  -10.870000   32.118000       1.0000      1.0079
  114   2 H    1     -25.120001   -9.630001   31.117999       1.0000      1.0079
  115   1 O    8     -46.620003   10.520000   37.738000       6.0000     15.9994
  116   2 H    1     -47.230000   11.310000   37.548000       1.0000      1.0079
  117   2 H    1     -45.770000   10.920000   38.058000       1.0000      1.0079
  118   1 O    8      10.450001   -1.800000   32.487999       6.0000     15.9994
  119   2 H    1      26.880001   -2.650000   32.687999       1.0000      1.0079
  120   2 H    1      11.110001   -1.730000   33.208000       1.0000      1.0079
  121   1 O    8      28.960001   -9.140000   38.437999       6.0000     15.9994
  122   2 H    1      28.060001   -9.290000   38.828000       1.0000      1.0079
  123   2 H    1      28.980003   -9.290000   37.447999       1.0000      1.0079
  124   1 O    8     -25.520000   23.570002   37.947999       6.0000     15.9994
  125   2 H    1     -25.530003   24.460001   38.408000       1.0000      1.0079
  126   2 H    1     -26.080000   23.110001   38.628000       1.0000      1.0079
  127   1 O    8      27.630003  -13.040000   34.178000       6.0000     15.9994
  128   2 H    1      27.340002  -12.110001   34.598001       1.0000      1.0079
  129   2 H    1      36.450001    1.930000   33.398000       1.0000      1.0079
  130   1 O    8       0.830000   -2.070000   34.857999       6.0000     15.9994
  131   2 H    1       0.150000   -2.690000   35.158000       1.0000      1.0079
  132   2 H    1       0.470000   -1.240000   34.518000       1.0000      1.0079
  133   1 O    8      10.670000    8.280001   31.587999       6.0000     15.9994
  134   2 H    1      -6.420000    9.050000   32.157999       1.0000      1.0079
  135   2 H    1      10.120001    7.570000   31.938000       1.0000      1.0079
  136   1 O    8      14.230001  -19.950001   33.398000       6.0000     15.9994
  137   2 H    1       5.080000   -4.720000   33.498000       1.0000      1.0079
  138   2 H    1      15.030001  -19.750002   33.987999       1.0000      1.0079
  139   1 O    8      -4.730000    3.210000   36.847999       6.0000     15.9994
  140   2 H    1      -3.810000    3.040000   36.598000       1.0000      1.0079
  141   2 H    1      -5.340000    3.710000   36.218000       1.0000      1.0079
  142   1 O    8     -13.070001    6.140000   29.848000       6.0000     15.9994
  143   2 H    1     -13.750001    5.770000   29.287999       1.0000      1.0079
  144   2 H    1     -13.140000    7.180000   29.758000       1.0000      1.0079
  145   1 O    8     -29.370001   14.010000   38.988000       6.0000     15.9994
  146   2 H    1     -28.720001   14.120001   38.248000       1.0000      1.0079
  147   2 H    1     -29.580002   14.940001   39.328000       1.0000      1.0079
  148   1 O    8      -9.100000   10.710001   35.758000       6.0000     15.9994
  149   2 H    1      -9.710001   10.510000   34.987999       1.0000      1.0079
  150   2 H    1      -9.630001   11.130000   36.538000       1.0000      1.0079
  151   1 O    8      -8.330001  -14.670001   32.708000       6.0000     15.9994
  152   2 H    1      -7.840000  -13.860001   32.998000       1.0000      1.0079
  153   2 H    1      -9.260000  -14.400001   32.548000       1.0000      1.0079
  154   1 O    8     -10.640000   -1.750000   37.117999       6.0000     15.9994
  155   2 H    1     -11.560000   -1.720000   36.628000       1.0000      1.0079
  156   2 H    1     -10.770000   -2.440000   37.748000       1.0000      1.0079
  157   1 O    8      22.870003   19.410002   33.987999       6.0000     15.9994
  158   2 H    1      23.210001   19.780001   34.857999       1.0000      1.0079
  159   2 H    1      22.000000   19.910000   33.718000       1.0000      1.0079
  160   1 O    8      -1.700000    2.250000   36.228000       6.0000     15.9994
  161   2 H    1      -1.170000    2.640000   36.938000       1.0000      1.0079
  162   2 H    1      -1.340000    2.720000   35.438000       1.0000      1.0079
  163   1 O    8       1.580000    3.910000   35.098000       6.0000     15.9994
  164   2 H    1       1.610000    4.770000   34.628000       1.0000      1.0079
  165   2 H    1       1.130000    3.940000   35.988000       1.0000      1.0079
  166   1 O    8      -0.900000   39.030003   31.458001       6.0000     15.9994
  167   2 H    1      -1.580000   38.680004   32.077999       1.0000      1.0079
  168   2 H    1      -1.400000   39.500004   30.738000       1.0000      1.0079
  169   1 O    8      18.500002   21.460001   29.088000       6.0000     15.9994
  170   2 H    1      18.410000   22.250002   29.598000       1.0000      1.0079
  171   2 H    1      17.800001   20.800001   29.448000       1.0000      1.0079
  172   1 O    8     -12.330000   14.590001   30.048000       6.0000     15.9994
  173   2 H    1     -12.130001   14.640001   29.078000       1.0000      1.0079
  174   2 H    1     -12.810000   13.710001   30.058000       1.0000      1.0079
  175   1 O    8       3.940000  -10.130000   39.388000       6.0000     15.9994
  176   2 H    1       3.830000  -10.370001   38.418001       1.0000      1.0079
  177   2 H    1       3.030000   -9.650001   39.628002       1.0000      1.0079
  178   1 O    8      -8.010000   33.480000   32.388000       6.0000     15.9994
  179   2 H    1      -7.310000   33.030003   31.897999       1.0000      1.0079
  180   2 H    1      -7.570000   34.210003   32.898000       1.0000      1.0079
  181   1 O    8      -4.650001    9.360001   35.488000       6.0000     15.9994
  182   2 H    1      -4.080000    8.770000   36.018000       1.0000      1.0079
  183   2 H    1      -5.560000    9.210001   35.768000       1.0000      1.0079
  184   1 O    8       1.190000   23.220001   36.187999       6.0000     15.9994
  185   2 H    1       9.240000    8.030001   36.858000       1.0000      1.0079
  186   2 H    1       0.630000   24.030001   36.248000       1.0000      1.0079
  187   1 O    8      13.990001    4.540000   29.188000       6.0000     15.9994
  188   2 H    1      13.400001    5.290000   29.498000       1.0000      1.0079
  189   2 H    1      13.370000    3.820000   29.437999       1.0000      1.0079
  190   1 O    8      14.360001    0.800000   32.168001       6.0000     15.9994
  191   2 H    1      14.010000    0.430000   31.348000       1.0000      1.0079
  192   2 H    1      14.520000    1.770000   32.138000       1.0000      1.0079
  193   1 O    8      18.970001   12.350000   37.568000       6.0000     15.9994
  194   2 H    1      19.320000   13.250000   37.777999       1.0000      1.0079
  195   2 H    1      18.360001   12.580000   36.798000       1.0000      1.0079
  196   1 O    8      15.730000    2.210000   29.157999       6.0000     15.9994
  197   2 H    1      16.230000    1.410000   29.518000       1.0000      1.0079
  198   2 H    1      16.410000    2.930000   29.318000       1.0000      1.0079
  199   1 O    8     -16.750000    3.680000   37.608001       6.0000     15.9994
  200   2 H    1     -16.130001    3.900000   38.367999       1.0000      1.0079
  201   2 H    1      -8.860001  -10.130000   37.408000       1.0000      1.0079
  202   1 O    8     -10.960001  -26.600000   37.238000       6.0000     15.9994
  203   2 H    1     -11.300000  -26.360001   38.148000       1.0000      1.0079
  204   2 H    1     -11.240001  -25.770000   36.688000       1.0000      1.0079
  205   1 O    8       8.390000  -17.190001   30.508000       6.0000     15.9994
  206   2 H    1       8.980000  -17.320002   31.348000       1.0000      1.0079
  207   2 H    1      25.510002  -16.440001   29.908000       1.0000      1.0079
  208   1 O    8     -10.990001  -24.750002   29.287999       6.0000     15.9994
  209   2 H    1     -10.130000  -24.290001   29.428000       1.0000      1.0079
  210   2 H    1     -11.720000  -24.050003   29.537999       1.0000      1.0079
  211   1 O    8     -15.380001  -13.570002   39.758001       6.0000     15.9994
  212   2 H    1     -15.220001  -13.860001   38.838001       1.0000      1.0079
  213   2 H    1     -16.100002  -12.890000   39.748000       1.0000      1.0079
  214   1 O    8      14.460001   26.340000   31.628000       6.0000     15.9994
  215   2 H    1      15.260000   26.770000   31.198000       1.0000      1.0079
  216   2 H    1      13.600000   26.630001   31.248000       1.0000      1.0079
  217   1 O    8       7.510000   23.059999   35.248000       6.0000     15.9994
  218   2 H    1       7.720000   23.440001   36.178001       1.0000      1.0079
  219   2 H    1       8.370000   23.110001   34.778000       1.0000      1.0079
  220   1 O    8     -12.450000    8.760000   35.348000       6.0000     15.9994
  221   2 H    1     -11.770000    8.080000   35.447999       1.0000      1.0079
  222   2 H    1     -12.440001    9.300001   36.128001       1.0000      1.0079
  223   1 O    8     -18.110001    5.840001   36.168000       6.0000     15.9994
  224   2 H    1     -17.730001    6.660000   35.868000       1.0000      1.0079
  225   2 H    1     -18.910000    6.190000   36.628000       1.0000      1.0079
  226   1 O    8      14.670001  -15.930000   32.557999       6.0000     15.9994
  227   2 H    1      13.850001  -16.450001   32.898000       1.0000      1.0079
  228   2 H    1      15.160000  -15.520000   33.348001       1.0000      1.0079
  229   1 O    8       3.090000   -0.450000   29.778000       6.0000     15.9994
  230   2 H    1       3.280000   -0.180000   28.797999       1.0000      1.0079
  231   2 H    1       3.740000    0.090000   30.308000       1.0000      1.0079
  232   1 O    8      -5.430000    3.570000   32.658000       6.0000     15.9994
  233   2 H    1      -4.760000    3.400000   31.918001       1.0000      1.0079
  234   2 H    1      -5.910000    2.750000   32.828000       1.0000      1.0079
  235   1 O    8     -23.380001   23.380001   34.388000       6.0000     15.9994
  236   2 H    1     -23.840000   24.170000   34.098000       1.0000      1.0079
  237   2 H    1     -22.520000   23.660002   34.848000       1.0000      1.0079
  238   1 O    8      -2.570000   37.700001   39.848001       6.0000     15.9994
  239   2 H    1      -2.920000   38.620003   39.578000       1.0000      1.0079
  240   2 H    1      -3.220000   37.500004   40.588001       1.0000      1.0079
  241   1 O    8      32.960003   13.430000   30.287999       6.0000     15.9994
  242   2 H    1      32.230000   13.810000   29.758000       1.0000      1.0079
  243   2 H    1      32.470001   13.150001   31.117999       1.0000      1.0079
  244   1 O    8     -21.470001   12.450000   33.477999       6.0000     15.9994
  245   2 H    1     -21.540001   11.870001   34.268001       1.0000      1.0079
  246   2 H    1     -21.600000   13.260001   33.928000       1.0000      1.0079
  247   1 O    8     -10.050000   11.540001   38.238000       6.0000     15.9994
  248   2 H    1      -9.910001   11.230000   39.148000       1.0000      1.0079
  249   2 H    1      -9.930000   12.530001   38.148000       1.0000      1.0079
  250   1 O    8     -17.120001   17.020000   36.008000       6.0000     15.9994
  251   2 H    1     -17.930000   17.250000   36.558000       1.0000      1.0079
  252   2 H    1     -16.860001   17.940001   35.678000       1.0000      1.0079
  253   1 O    8     -14.630001    8.690001   39.308000       6.0000     15.9994
  254   2 H    1     -14.000001    9.250001   38.767999       1.0000      1.0079
  255   2 H    1     -15.360001    8.540000   38.617999       1.0000      1.0079
  256   1 O    8     -19.670002    7.910000   29.897999       6.0000     15.9994
  257   2 H    1     -19.600000    8.870000   30.068000       1.0000      1.0079
  258   2 H    1     -19.540001    7.900000   28.948000       1.0000      1.0079
  259   1 O    8       3.340000   -3.130000   30.238000       6.0000     15.9994
  260   2 H    1       3.360000   -2.160000   30.048000       1.0000      1.0079
  261   2 H    1       3.020000   -3.400000   29.287999       1.0000      1.0079
  262   1 O    8      12.910000   17.720001   32.548000       6.0000     15.9994
  263   2 H    1      12.400000   17.310001   31.798000       1.0000      1.0079
  264   2 H    1      13.710001   17.180000   32.708000       1.0000      1.0079
  265   1 O    8      20.100000   14.030001   34.537999       6.0000     15.9994
  266   2 H    1      28.120001   -0.190000   35.367999       1.0000      1.0079
  267   2 H    1      21.070002   14.090000   34.607999       1.0000      1.0079
  268   1 O    8     -11.680001   -0.230000   39.318000       6.0000     15.9994
  269   2 H    1     -12.460001   -0.690000   39.518001       1.0000      1.0079
  270   2 H    1     -11.420001   -0.590000   38.448001       1.0000      1.0079
  271   1 O    8      19.390001  -10.000000   35.028000       6.0000     15.9994
  272   2 H    1      19.870001   -9.170000   35.148000       1.0000      1.0079
  273   2 H    1      19.730000  -10.330000   34.138000       1.0000      1.0079
  274   1 O    8     -12.940001   21.220001   33.678001       6.0000     15.9994
  275   2 H    1       3.400000   20.950001   32.938000       1.0000      1.0079
  276   2 H    1       4.250000   22.130001   33.498000       1.0000      1.0079
  277   1 O    8      -3.160000    6.700000   37.888000       6.0000     15.9994
  278   2 H    1      -3.000000    7.300000   38.648000       1.0000      1.0079
  279   2 H    1      -3.680000    5.960000   38.277999       1.0000      1.0079
  280   1 O    8      18.240002   17.690001   30.008000       6.0000     15.9994
  281   2 H    1      17.889999   18.060001   29.178000       1.0000      1.0079
  282   2 H    1      17.889999   16.740000   29.978000       1.0000      1.0079
  283   1 O    8     -19.040001  -34.700005   30.478000       6.0000     15.9994
  284   2 H    1     -19.280001  -33.810001   30.827999       1.0000      1.0079
  285   2 H    1     -19.880001  -34.940002   30.018000       1.0000      1.0079
  286   1 O    8      -8.870000   34.940002   30.248000       6.0000     15.9994
  287   2 H    1      -9.270000   35.570000   30.968000       1.0000      1.0079
  288   2 H    1      -8.530001   34.190002   30.928000       1.0000      1.0079
  289   1 O    8     -29.870003   -8.700001   30.748000       6.0000     15.9994
  290   2 H    1     -29.370001   -7.860000   30.817999       1.0000      1.0079
  291   2 H    1     -13.680000   -8.490001   30.098000       1.0000      1.0079
  292   3 Pt  78       1.590000    0.610000   15.300003      10.0000    195.0840
  293   3 Pt  78       4.350000    0.720000   15.160000      10.0000    195.0840
  294   3 Pt  78       7.050000    0.670000   15.180000      10.0000    195.0840
  295   3 Pt  78      10.010000    0.620000   15.310001      10.0000    195.0840
  296   3 Pt  78      12.770000    0.650000   15.280003      10.0000    195.0840
  297   3 Pt  78      15.590000    0.800000   15.259998      10.0000    195.0840
  298   3 Pt  78       2.910000    3.260000   15.240002      10.0000    195.0840
  299   3 Pt  78       5.730000    3.080000   15.259998      10.0000    195.0840
  300   3 Pt  78       8.590000    3.070000   15.320000      10.0000    195.0840
  301   3 Pt  78      11.470001    2.980000   15.410000      10.0000    195.0840
  302   3 Pt  78      14.180001    3.130000   15.280003      10.0000    195.0840
  303   3 Pt  78       0.100000    3.050000   15.150002      10.0000    195.0840
  304   3 Pt  78       4.430000    5.590000   15.130001      10.0000    195.0840
  305   3 Pt  78       7.190001    5.540000   15.160000      10.0000    195.0840
  306   3 Pt  78       9.990001    5.380001   15.389999      10.0000    195.0840
  307   3 Pt  78      12.740001    5.490000   15.280003      10.0000    195.0840
  308   3 Pt  78      -1.260000    5.530000   15.160000      10.0000    195.0840
  309   3 Pt  78       1.460000    5.610001   15.270000      10.0000    195.0840
  310   3 Pt  78       5.810000    7.910000   15.250000      10.0000    195.0840
  311   3 Pt  78       8.690001    7.820001   15.080002      10.0000    195.0840
  312   3 Pt  78      11.420001    7.850000   15.210003      10.0000    195.0840
  313   3 Pt  78      -2.650000    7.840000   15.230000      10.0000    195.0840
  314   3 Pt  78       0.150000    8.050001   15.320000      10.0000    195.0840
  315   3 Pt  78       3.000000    7.960001   15.280003      10.0000    195.0840
  316   3 Pt  78       7.210000   10.350000   15.230000      10.0000    195.0840
  317   3 Pt  78       9.970000   10.140000   15.000000      10.0000    195.0840
  318   3 Pt  78      -4.050000   10.440001   15.150002      10.0000    195.0840
  319   3 Pt  78      -1.340000   10.330000   15.250000      10.0000    195.0840
  320   3 Pt  78       1.590000   10.310000   15.329998      10.0000    195.0840
  321   3 Pt  78       4.350000   10.440001   15.320000      10.0000    195.0840
  322   3 Pt  78       8.570001   12.880001   15.310001      10.0000    195.0840
  323   3 Pt  78      -5.500000   12.890000   15.099998      10.0000    195.0840
  324   3 Pt  78      -2.640000   12.860001   15.170002      10.0000    195.0840
  325   3 Pt  78       0.270000   12.860001   15.090000      10.0000    195.0840
  326   3 Pt  78       3.050000   12.840000   15.259998      10.0000    195.0840
  327   3 Pt  78       5.740000   12.890000   15.270000      10.0000    195.0840
  328   3 Pt  78       0.100000    1.570000   17.689999      10.0000    195.0840
  329   3 Pt  78       3.030000    1.650000   17.510002      10.0000    195.0840
  330   3 Pt  78       5.830000    1.470000   17.670002      10.0000    195.0840
  331   3 Pt  78       8.610001    1.540000   17.619999      10.0000    195.0840
  332   3 Pt  78      11.450001    1.450000   17.700001      10.0000    195.0840
  333   3 Pt  78      14.220000    1.500000   17.660000      10.0000    195.0840
  334   3 Pt  78       1.540000    3.970000   17.459999      10.0000    195.0840
  335   3 Pt  78       4.560000    3.970000   17.510002      10.0000    195.0840
  336   3 Pt  78       7.230001    3.930000   17.560001      10.0000    195.0840
  337   3 Pt  78      10.190001    3.970000   17.730000      10.0000    195.0840
  338   3 Pt  78      12.870001    3.870000   17.619999      10.0000    195.0840
  339   3 Pt  78      -1.290000    3.900000   17.529999      10.0000    195.0840
  340   3 Pt  78       2.940000    6.340000   17.540001      10.0000    195.0840
  341   3 Pt  78       5.800000    6.340000   17.410000      10.0000    195.0840
  342   3 Pt  78       8.620001    6.350000   17.480000      10.0000    195.0840
  343   3 Pt  78      11.460000    6.360001   17.610001      10.0000    195.0840
  344   3 Pt  78      -2.680000    6.430000   17.590000      10.0000    195.0840
  345   3 Pt  78       0.100000    6.420000   17.610001      10.0000    195.0840
  346   3 Pt  78       4.450000    8.710001   17.619999      10.0000    195.0840
  347   3 Pt  78       7.230001    8.820001   17.510002      10.0000    195.0840
  348   3 Pt  78       9.900001    8.820001   17.420002      10.0000    195.0840
  349   3 Pt  78      -4.080000    8.800000   17.560001      10.0000    195.0840
  350   3 Pt  78      -1.290000    8.790001   17.540001      10.0000    195.0840
  351   3 Pt  78       1.540000    8.860001   17.590000      10.0000    195.0840
  352   3 Pt  78       5.770000   11.140001   17.580002      10.0000    195.0840
  353   3 Pt  78       8.560000   11.300000   17.510002      10.0000    195.0840
  354   3 Pt  78      -5.530000   11.360001   17.430000      10.0000    195.0840
  355   3 Pt  78      -2.740000   11.230000   17.500000      10.0000    195.0840
  356   3 Pt  78       0.050000   11.240001   17.560001      10.0000    195.0840
  357   3 Pt  78       2.960000   11.250000   17.660000      10.0000    195.0840
  358   3 Pt  78       7.180000   13.700001   17.520000      10.0000    195.0840
  359   3 Pt  78      -6.940000   13.820001   17.580002      10.0000    195.0840
  360   3 Pt  78      -4.080000   13.680000   17.450001      10.0000    195.0840
  361   3 Pt  78      -1.300000   13.640001   17.540001      10.0000    195.0840
  362   3 Pt  78       1.570000   13.690001   17.520000      10.0000    195.0840
  363   3 Pt  78       4.430000   13.640001   17.630001      10.0000    195.0840
  364   3 Pt  78      -8.250000   14.520000   19.880001      10.0000    195.0840
  365   3 Pt  78      -5.410000   14.560001   19.750000      10.0000    195.0840
  366   3 Pt  78      -2.610000   14.440001   19.869999      10.0000    195.0840
  367   3 Pt  78       0.130000   14.360001   19.960003      10.0000    195.0840
  368   3 Pt  78       3.000000   14.510001   19.970001      10.0000    195.0840
  369   3 Pt  78       5.830000   14.550000   20.030003      10.0000    195.0840
  370   3 Pt  78       1.540000    2.410000   19.820004      10.0000    195.0840
  371   3 Pt  78       4.470000    2.440000   19.860001      10.0000    195.0840
  372   3 Pt  78       7.260000    2.310000   20.000000      10.0000    195.0840
  373   3 Pt  78      10.030001    2.200000   19.980000      10.0000    195.0840
  374   3 Pt  78      12.920000    2.320000   19.980000      10.0000    195.0840
  375   3 Pt  78      -1.210000    2.310000   19.880001      10.0000    195.0840
  376   3 Pt  78       3.130000    4.840000   19.880001      10.0000    195.0840
  377   3 Pt  78       5.900001    4.850000   19.850002      10.0000    195.0840
  378   3 Pt  78       8.710001    4.810000   19.980000      10.0000    195.0840
  379   3 Pt  78      11.420001    4.730000   19.980000      10.0000    195.0840
  380   3 Pt  78      -2.630000    4.770000   19.880001      10.0000    195.0840
  381   3 Pt  78       0.230000    4.740000   19.820004      10.0000    195.0840
  382   3 Pt  78       4.450000    7.260000   19.890003      10.0000    195.0840
  383   3 Pt  78       7.210000    7.150001   19.890003      10.0000    195.0840
  384   3 Pt  78       9.990001    7.260000   19.790001      10.0000    195.0840
  385   3 Pt  78      -4.120000    7.210000   19.910000      10.0000    195.0840
  386   3 Pt  78      -1.160000    7.170000   19.950001      10.0000    195.0840
  387   3 Pt  78       1.620000    7.160000   19.890003      10.0000    195.0840
  388   3 Pt  78       5.810000    9.750000   19.890003      10.0000    195.0840
  389   3 Pt  78       8.630000    9.660000   19.780003      10.0000    195.0840
  390   3 Pt  78      -5.400000    9.730001   19.720001      10.0000    195.0840
  391   3 Pt  78      -2.580000    9.580001   19.840000      10.0000    195.0840
  392   3 Pt  78       0.330000    9.610001   19.920002      10.0000    195.0840
  393   3 Pt  78       3.020000    9.670001   19.939999      10.0000    195.0840
  394   3 Pt  78       7.230001   12.100000   19.960003      10.0000    195.0840
  395   3 Pt  78      -6.890000   12.110001   19.770000      10.0000    195.0840
  396   3 Pt  78      -4.020000   12.040001   19.850002      10.0000    195.0840
  397   3 Pt  78      -1.260000   11.980001   19.860001      10.0000    195.0840
  398   3 Pt  78       1.560000   12.080001   19.960003      10.0000    195.0840
  399   3 Pt  78       4.340000   12.110001   19.950001      10.0000    195.0840
  400   3 Pt  78       1.560000    0.770000   22.097999      10.0000    195.0840
  401   3 Pt  78       4.420000    0.660000   22.017999      10.0000    195.0840
  402   3 Pt  78       7.190001    0.680000   22.207999      10.0000    195.0840
  403   3 Pt  78       9.920000    0.630000   22.317999      10.0000    195.0840
  404   3 Pt  78      12.740001    0.670000   22.337999      10.0000    195.0840
  405   3 Pt  78      15.550001    0.670000   22.217999      10.0000    195.0840
  406   3 Pt  78       2.970000    3.050000   22.137999      10.0000    195.0840
  407   3 Pt  78       5.740000    3.210000   22.217999      10.0000    195.0840
  408   3 Pt  78       8.570001    3.220000   22.187999      10.0000    195.0840
  409   3 Pt  78      11.350001    3.110000   22.267999      10.0000    195.0840
  410   3 Pt  78      14.210001    3.130000   22.267999      10.0000    195.0840
  411   3 Pt  78       0.120000    3.060000   22.237999      10.0000    195.0840
  412   3 Pt  78       4.360000    5.610001   22.237999      10.0000    195.0840
  413   3 Pt  78       7.120000    5.660000   22.237999      10.0000    195.0840
  414   3 Pt  78       9.920000    5.640000   22.277999      10.0000    195.0840
  415   3 Pt  78      12.680000    5.560000   22.197999      10.0000    195.0840
  416   3 Pt  78      -1.230000    5.550000   22.197999      10.0000    195.0840
  417   3 Pt  78       1.640000    5.510000   22.167999      10.0000    195.0840
  418   3 Pt  78       5.780000    8.050001   22.127999      10.0000    195.0840
  419   3 Pt  78       8.550000    8.110001   22.227999      10.0000    195.0840
  420   3 Pt  78      11.390000    8.020000   22.187999      10.0000    195.0840
  421   3 Pt  78      -2.720000    7.940001   22.157999      10.0000    195.0840
  422   3 Pt  78       0.150000    7.920001   22.187999      10.0000    195.0840
  423   3 Pt  78       2.990000    8.030001   22.187999      10.0000    195.0840
  424   3 Pt  78       7.160000   10.490000   22.177999      10.0000    195.0840
  425   3 Pt  78      10.010000   10.460000   22.077999      10.0000    195.0840
  426   3 Pt  78      -4.070000   10.470000   22.157999      10.0000    195.0840
  427   3 Pt  78      -1.280000   10.360001   22.197999      10.0000    195.0840
  428   3 Pt  78       1.500000   10.510000   22.377999      10.0000    195.0840
  429   3 Pt  78       4.390000   10.450001   22.167999      10.0000    195.0840
  430   3 Pt  78       8.630000   12.880001   22.177999      10.0000    195.0840
  431   3 Pt  78      -5.440001   12.840000   22.007999      10.0000    195.0840
  432   3 Pt  78      -2.600000   12.830001   22.187999      10.0000    195.0840
  433   3 Pt  78       0.080000   12.790001   22.277999      10.0000    195.0840
  434   3 Pt  78       2.830000   13.000001   22.327999      10.0000    195.0840
  435   3 Pt  78       5.750000   12.900001   22.267999      10.0000    195.0840
  436   3 Pt  78       0.170000    1.530000   24.537999      10.0000    195.0840
  437   3 Pt  78       2.830000    1.580000   24.438000      10.0000    195.0840
  438   3 Pt  78       5.630000    1.420000   24.487999      10.0000    195.0840
  439   3 Pt  78       8.370000    1.530000   24.417999      10.0000    195.0840
  440   3 Pt  78      11.280001    1.680000   24.668000      10.0000    195.0840
  441   3 Pt  78      14.150001    1.530000   24.567999      10.0000    195.0840
  442   3 Pt  78       1.440000    3.990000   24.557999      10.0000    195.0840
  443   3 Pt  78       4.280000    3.910000   24.387999      10.0000    195.0840
  444   3 Pt  78       7.030000    3.900000   24.508000      10.0000    195.0840
  445   3 Pt  78       9.920000    3.950000   24.487999      10.0000    195.0840
  446   3 Pt  78      12.740001    3.950000   24.577999      10.0000    195.0840
  447   3 Pt  78      -1.290000    3.930000   24.607999      10.0000    195.0840
  448   3 Pt  78       2.830000    6.550000   24.387999      10.0000    195.0840
  449   3 Pt  78       5.670000    6.330000   24.597999      10.0000    195.0840
  450   3 Pt  78       8.540000    6.370000   24.627999      10.0000    195.0840
  451   3 Pt  78      11.330000    6.450000   24.537999      10.0000    195.0840
  452   3 Pt  78      -2.800000    6.300001   24.617999      10.0000    195.0840
  453   3 Pt  78       0.050000    6.320000   24.458000      10.0000    195.0840
  454   3 Pt  78       4.360000    8.860001   24.478000      10.0000    195.0840
  455   3 Pt  78       7.080000    8.780001   24.587999      10.0000    195.0840
  456   3 Pt  78       9.860001    8.900001   24.577999      10.0000    195.0840
  457   3 Pt  78      -4.220000    8.860001   24.508000      10.0000    195.0840
  458   3 Pt  78      -1.370000    8.590000   24.547999      10.0000    195.0840
  459   3 Pt  78       1.290000    8.880001   24.517999      10.0000    195.0840
  460   3 Pt  78       5.710001   11.360001   24.557999      10.0000    195.0840
  461   3 Pt  78       8.460000   11.280001   24.497999      10.0000    195.0840
  462   3 Pt  78      -5.510000   11.380000   24.497999      10.0000    195.0840
  463   3 Pt  78      -2.750000   11.310000   24.527999      10.0000    195.0840
  464   3 Pt  78       0.030000   11.320001   24.577999      10.0000    195.0840
  465   3 Pt  78       2.810000   11.350001   24.668000      10.0000    195.0840
  466   3 Pt  78       7.060000   13.720001   24.557999      10.0000    195.0840
  467   3 Pt  78      -6.910000   13.720001   24.478000      10.0000    195.0840
  468   3 Pt  78      -4.130000   13.780001   24.357999      10.0000    195.0840
  469   3 Pt  78      -1.290000   13.750001   24.527999      10.0000    195.0840
  470   3 Pt  78       1.640000   13.830000   24.597999      10.0000    195.0840
  471   3 Pt  78       4.280000   13.760000   24.677999      10.0000    195.0840
  472   3 Pt  78      -8.190001   14.550000   26.787999      10.0000    195.0840
  473   3 Pt  78      -5.570001   14.500000   26.757999      10.0000    195.0840
  474   3 Pt  78      -2.720000   14.470000   26.968000      10.0000    195.0840
  475   3 Pt  78       0.020000   14.590001   26.968000      10.0000    195.0840
  476   3 Pt  78       2.830000   14.500000   26.987999      10.0000    195.0840
  477   3 Pt  78       5.680000   14.380001   27.008000      10.0000    195.0840
  478   3 Pt  78       1.550000    2.370000   26.978000      10.0000    195.0840
  479   3 Pt  78       4.270000    2.290000   26.857999      10.0000    195.0840
  480   3 Pt  78       7.020000    2.350000   26.827999      10.0000    195.0840
  481   3 Pt  78       9.870001    2.340000   26.897999      10.0000    195.0840
  482   3 Pt  78      12.710000    2.240000   26.827999      10.0000    195.0840
  483   3 Pt  78      -1.250000    2.210000   26.887999      10.0000    195.0840
  484   3 Pt  78       2.910000    4.810000   26.738000      10.0000    195.0840
  485   3 Pt  78       5.640000    4.680000   27.037999      10.0000    195.0840
  486   3 Pt  78       8.420001    4.550000   26.778000      10.0000    195.0840
  487   3 Pt  78      11.140001    4.770000   26.778000      10.0000    195.0840
  488   3 Pt  78      -2.810000    4.670000   26.928000      10.0000    195.0840
  489   3 Pt  78      -0.010000    4.800000   26.838000      10.0000    195.0840
  490   3 Pt  78       4.160000    7.170000   26.787999      10.0000    195.0840
  491   3 Pt  78       7.060000    7.090001   26.968000      10.0000    195.0840
  492   3 Pt  78       9.780001    7.260000   26.907999      10.0000    195.0840
  493   3 Pt  78      -4.220000    7.220001   26.807999      10.0000    195.0840
  494   3 Pt  78      -1.330000    7.150001   26.987999      10.0000    195.0840
  495   3 Pt  78       1.350000    7.150001   26.798000      10.0000    195.0840
  496   3 Pt  78       5.530000    9.600000   26.878000      10.0000    195.0840
  497   3 Pt  78       8.310000    9.640000   26.998000      10.0000    195.0840
  498   3 Pt  78      -5.670000    9.700001   26.887999      10.0000    195.0840
  499   3 Pt  78      -2.910000    9.650001   26.778000      10.0000    195.0840
  500   3 Pt  78      -0.080000    9.640000   26.928000      10.0000    195.0840
  501   3 Pt  78       2.840000    9.630001   26.757999      10.0000    195.0840
  502   3 Pt  78       7.080000   12.040001   26.968000      10.0000    195.0840
  503   3 Pt  78      -6.970000   12.100000   26.827999      10.0000    195.0840
  504   3 Pt  78      -4.130000   12.040001   26.907999      10.0000    195.0840
  505   3 Pt  78      -1.290000   12.030001   26.798000      10.0000    195.0840
[...]
 flops     5 x     5 x    96           5264265600       0.0%    100.0%      0.0%
 flops    13 x    32 x    13           5585003840       0.0%    100.0%      0.0%
 flops     5 x    13 x    96           6689005440       0.0%    100.0%      0.0%
 flops    13 x     5 x    96           6699863040       0.0%    100.0%      0.0%
 flops    20 x    13 x   112           6963582080       0.0%    100.0%      0.0%
 flops    13 x    20 x   112           6988916480       0.0%    100.0%      0.0%
 flops    20 x     5 x   112           7457408000       0.0%    100.0%      0.0%
 flops     5 x    20 x   112           7469100800       0.0%    100.0%      0.0%
 flops    13 x    13 x    96           8056773504       0.0%    100.0%      0.0%
 flops    13 x    32 x    20           8385245440       0.0%    100.0%      0.0%
 flops    20 x    32 x    13           8385245440       0.0%    100.0%      0.0%
 flops     5 x    32 x    20           8970611200       0.0%    100.0%      0.0%
 flops    20 x    32 x     5           8970611200       0.0%    100.0%      0.0%
 flops    20 x    13 x    96          11937569280       0.0%    100.0%      0.0%
 flops    13 x    20 x    96          11980999680       0.0%    100.0%      0.0%
 flops    20 x     5 x    96          12784128000       0.0%    100.0%      0.0%
 flops     5 x    20 x    96          12804172800       0.0%    100.0%      0.0%
 flops     5 x     5 x   128          45623635200       0.0%    100.0%      0.0%
 flops     5 x    13 x   128          57971380480       0.0%    100.0%      0.0%
 flops    13 x     5 x   128          58065479680       0.0%    100.0%      0.0%
 flops    20 x    20 x   112          60896102400       0.0%    100.0%      0.0%
 flops    13 x    13 x   128          69825370368       0.0%    100.0%      0.0%
 flops    20 x    32 x    20          72858009600       0.0%    100.0%      0.0%
 flops    20 x    13 x   128         103458933760       0.0%    100.0%      0.0%
 flops    13 x    20 x   128         103835330560       0.0%    100.0%      0.0%
 flops    20 x    20 x    96         104393318400       0.0%    100.0%      0.0%
 flops    20 x     5 x   128         110795776000       0.0%    100.0%      0.0%
 flops     5 x    20 x   128         110969497600       0.0%    100.0%      0.0%
 flops    20 x    20 x   128         904742092800       0.0%    100.0%      0.0%
 flops inhomo. stacks                           0       0.0%      0.0%      0.0%
 flops total                         1.978502E+12       0.0%    100.0%      0.0%
 flops max/rank                     17.454722E+09       0.0%    100.0%      0.0%
 matmuls inhomo. stacks                         0       0.0%      0.0%      0.0%
 matmuls total                           56629422       0.0%    100.0%      0.0%
 number of processed stacks                556535       0.0%    100.0%      0.0%
 average stack size                                     0.0     101.8       0.0
 marketing flops                     3.973900E+12
 -------------------------------------------------------------------------------
 # multiplications                             30
 max memory usage/rank               1.607012E+09
 # max total images/rank                        2
 # max 3D layers                                1
 # MPI messages exchanged                  111360
 MPI messages size (bytes):
  total size                        70.404162E+09
  min size                         290.304000E+03
  max size                           2.165784E+06
  average size                     632.221250E+03
 MPI breakdown and total messages size (bytes):
             size <=      128                   0                        0
       128 < size <=     8192                   0                        0
      8192 < size <=    32768                   0                        0
     32768 < size <=   131072                   0                        0
    131072 < size <=  4194304              111360              70404160680
   4194304 < size <= 16777216                   0                        0
  16777216 < size                               0                        0
 -------------------------------------------------------------------------------

 *** WARNING in dbcsr_mm.F:290 :: Using a non-square number of MPI ranks ***
 *** might lead to poor performance. Used ranks: 128 Suggested: 121 256  ***

 -------------------------------------------------------------------------------
 -                                                                             -
 -                      DBCSR MESSAGE PASSING PERFORMANCE                      -
 -                                                                             -
 -------------------------------------------------------------------------------
 ROUTINE             CALLS      AVE VOLUME [Bytes]
 MP_Bcast               46                     12.
 MP_Allreduce          313                     14.
 MP_Alltoall           833                 580896.
 MP_ISend             1920                 299270.
 MP_IRecv             1920                 292951.
 -------------------------------------------------------------------------------

 -------------------------------------------------------------------------------
 -                                                                             -
 -                                DBM STATISTICS                               -
 -                                                                             -
 -------------------------------------------------------------------------------
    M  x    N  x    K                                          COUNT     PERCENT
 -------------------------------------------------------------------------------

 -------------------------------------------------------------------------------
 -                                                                             -
 -                                GRID STATISTICS                              -
 -                                                                             -
 -------------------------------------------------------------------------------
 LP    KERNEL             BACKEND                              COUNT     PERCENT
 4     collocate general  REF                               11321492      22.51%
 4     integrate general  REF                               11192009      22.25%
 3     collocate general  REF                                7695968      15.30%
 3     integrate general  REF                                7635607      15.18%
 2     collocate general  REF                                6005860      11.94%
 2     integrate general  REF                                5791365      11.51%
 5     integrate general  REF                                 404339       0.80%
 0     collocate general  REF                                 129792       0.26%
 0     integrate general  REF                                  64896       0.13%
 1     integrate general  REF                                  64896       0.13%
 -------------------------------------------------------------------------------

 MEMORY| Estimated peak process memory [MiB]                                1777

 -------------------------------------------------------------------------------
 ----                             MULTIGRID INFO                            ----
 -------------------------------------------------------------------------------
 count for grid        1:        1093262          cutoff [a.u.]          200.00
 count for grid        2:        1088185          cutoff [a.u.]           66.67
 count for grid        3:         710250          cutoff [a.u.]           22.22
 count for grid        4:         547357          cutoff [a.u.]            7.41
 total gridlevel count  :        3439054

 -------------------------------------------------------------------------------
 -                                                                             -
 -                         MESSAGE PASSING PERFORMANCE                         -
 -                                                                             -
 -------------------------------------------------------------------------------

 ROUTINE             CALLS      AVE VOLUME [Bytes]
 MP_Group                4
 MP_Bcast             2164                 310951.
 MP_Allreduce         3137                  34027.
 MP_Sync                62
 MP_Alltoall          1702               16299811.
 MP_SendRecv           508                   6339.
 MP_ISendRecv        14224                  61740.
 MP_Wait             25372
 MP_comm_split          29
 MP_ISend            10512                 256328.
 MP_IRecv            10512                 256328.
 MP_Recv               122                1677056.
 MP_Write_All            3                1797408.
 -------------------------------------------------------------------------------


 -------------------------------------------------------------------------------
 -                                                                             -
 -                           R E F E R E N C E S                               -
 -                                                                             -
 -------------------------------------------------------------------------------
 
 CP2K version 2022.1, the CP2K developers group (2022).
 CP2K is freely available from https://www.cp2k.org/ .

 Kuehne,Thomas D.; Iannuzzi,Marcella; Del Ben,Mauro;
 Rybkin,Vladimir V.; Seewald,Patrick; Stein,Frederick; Laino,Teodoro;
 Khaliullin,Rustam Z.; Schuett,Ole; Schiffmann,Florian; Golze,Dorothea;
 Wilhelm,Jan; Chulkov,Sergey; Bani-Hashemian,Mohammad Hossein;
 Weber,Valery; Borstnik,Urban; Taillefumier,Mathieu;
 Jakobovits,Alice Shoshana; Lazzaro,Alfio; Pabst,Hans; Mueller,Tiziano;
 Schade,Robert; Guidon,Manuel; Andermatt,Samuel; Holmberg,Nico;
 Schenter,Gregory K.; Hehn,Anna; Bussy,Augustin; Belleflamme,Fabian;
 Tabacchi,Gloria; Gloess,Andreas; Lass,Michael; Bethune,Iain;
 Mundy,Christopher J.; Plessl,Christian; Watkins,Matt;
 VandeVondele,Joost; Krack,Matthias; Hutter,Juerg. 
 The Journal of Chemical Physics, 152 (19), (2020). 
 CP2K: An electronic structure and molecular dynamics software package -
 Quickstep: Efficient and accurate electronic structure calculations.
 https://doi.org/10.1063/5.0007045

 Goerigk, Lars; Hansen, Andreas; Bauer, Christoph; Ehrlich, Stephan;
 Najibi, Asim; Grimme, Stefan. , 19 (48), (2017). 
 A look at the density functional theory zoo with the advanced GMTKN55 database
 for general main group thermochemistry, kinetics and noncovalent interactions.
 https://doi.org/10.1039/C7CP04913G

 Bani-Hashemian, MH; Bruck, S; Luisier, M; VandeVondele, J. 
 JOURNAL OF CHEMICAL PHYSICS, 144 (4), 044113 (2016). 
 A generalized Poisson solver for first-principles device simulations.
 https://doi.org/10.1063/1.4940796

 Schuett, Ole; Messmer, Peter; Hutter, Juerg; VandeVondele, Joost. 
 Electronic Structure Calculations on Graphics Processing Units, John
 Wiley & Sons, Ltd, 173-190 (2016). 
 GPU-Accelerated Sparse Matrix-Matrix Multiplication for
 Linear Scaling Density Functional Theory.
 https://doi.org/10.1002/9781118670712.ch8

 Heinecke, A; Henry, G; Hutchinson, M; Pabst, H. 
 Proceedings of Intl. Supercomputing Conference, 981-991 (2016). 
 LIBXSMM: Accelerating Small Matrix Multiplications
 by Runtime Code Generation.
 https://doi.org/10.1109/SC.2016.83

 Borstnik, U; VandeVondele, J; Weber, V; Hutter, J. 
 PARALLEL COMPUTING, 40 (5-6), 47-58 (2014). 
 Sparse matrix multiplication: The distributed block-compressed sparse
 row library.
 https://doi.org/10.1016/j.parco.2014.03.012

 Hutter, J; Iannuzzi, M; Schiffmann, F; VandeVondele, J. 
 WIREs Comput Mol Sci., 4 (1), 15-25 (2014). 
 CP2K: atomistic simulations of condensed matter systems.
 https://doi.org/10.1002/wcms.1159

 Marek, A; Blum, V; Johanni, R; Havu, V; Lang, B; Auckenthaler, T;
 Heinecke, A; Bungartz, H; Lederer, H. 
 Journal of Physics: Condensed Matter, 26 (21), (2014). 
 The ELPA library: scalable parallel eigenvalue solutions for
 electronic structure
 theory and computational science.
 https://doi.org/10.1088/0953-8984/26/21/213201

 Grimme, S; Ehrlich, S; Goerigk, L. 
 JOURNAL OF COMPUTATIONAL CHEMISTRY, 32, 1456 (2011). 
 Effect of the damping function in dispersion corrected density functional theory.
 https://doi.org/10.1002/jcc.21759

 Grimme, S; Antony, J; Ehrlich, S; Krieg, H. 
 JOURNAL OF CHEMICAL PHYSICS, 132 (15), 154104 (2010). 
 A consistent and accurate ab initio parametrization of density
 functional dispersion correction (DFT-D) for the 94 elements H-Pu.
 https://doi.org/10.1063/1.3382344

 VandeVondele, J; Hutter, J. 
 JOURNAL OF CHEMICAL PHYSICS, 127 (11), 114105 (2007). 
 Gaussian basis sets for accurate calculations on molecular systems in
 gas and condensed phases.
 https://doi.org/10.1063/1.2770708

 Krack, M. 
 THEORETICAL CHEMISTRY ACCOUNTS, 114 (1-3), 145-152 (2005). 
 Pseudopotentials for H to Kr optimized for gradient-corrected
 exchange-correlation functionals.
 https://doi.org/10.1007/s00214-005-0655-y

 VandeVondele, J; Krack, M; Mohamed, F; Parrinello, M; Chassaing, T;
 Hutter, J. COMPUTER PHYSICS COMMUNICATIONS, 167 (2), 103-128 (2005). 
 QUICKSTEP: Fast and accurate density functional calculations using a
 mixed Gaussian and plane waves approach.
 https://doi.org/10.1016/j.cpc.2004.12.014

 Frigo, M; Johnson, SG. 
 PROCEEDINGS OF THE IEEE, 93 (2), 216-231 (2005). 
 The design and implementation of FFTW3.
 https://doi.org/10.1109/JPROC.2004.840301

 Hartwigsen, C; Goedecker, S; Hutter, J. 
 PHYSICAL REVIEW B, 58 (7), 3641-3662 (1998). 
 Relativistic separable dual-space Gaussian pseudopotentials from H to Rn.
 https://doi.org/10.1103/PhysRevB.58.3641

 Lippert, G; Hutter, J; Parrinello, M. 
 MOLECULAR PHYSICS, 92 (3), 477-487 (1997). 
 A hybrid Gaussian and plane wave density functional scheme.
 https://doi.org/10.1080/002689797170220

 Perdew, JP; Burke, K; Ernzerhof, M. 
 PHYSICAL REVIEW LETTERS, 77 (18), 3865-3868 (1996). 
 Generalized gradient approximation made simple.
 https://doi.org/10.1103/PhysRevLett.77.3865

 Goedecker, S; Teter, M; Hutter, J. 
 PHYSICAL REVIEW B, 54 (3), 1703-1710 (1996). 
 Separable dual-space Gaussian pseudopotentials.
 https://doi.org/10.1103/PhysRevB.54.1703


 -------------------------------------------------------------------------------
 -                                                                             -
 -                                T I M I N G                                  -
 -                                                                             -
 -------------------------------------------------------------------------------
 SUBROUTINE                       CALLS  ASD         SELF TIME        TOTAL TIME
                                MAXIMUM       AVERAGE  MAXIMUM  AVERAGE  MAXIMUM
 CP2K                                 1  1.0    0.128    0.141  199.723  199.726
 qs_forces                            1  2.0    0.002    0.002  198.973  198.974
 qs_energies                          1  3.0    0.000    0.000  192.774  192.779
 scf_env_do_scf                       1  4.0    0.000    0.000  183.678  183.823
 scf_env_do_scf_inner_loop           27  5.0    0.002    0.004  183.675  183.819
 rebuild_ks_matrix                   28  6.9    0.000    0.000  101.065  101.092
 qs_ks_build_kohn_sham_matrix        28  7.9    0.005    0.005  101.065  101.091
 qs_ks_update_qs_env                 27  6.0    0.000    0.000   96.984   97.011
 pw_transfer                       1460 12.2    0.107    0.141   63.745   65.013
 fft_wrap_pw1pw2                   1460 13.2    0.014    0.020   63.638   64.883
 fft_wrap_pw1pw2_200               1292 14.4    4.305    5.103   62.796   64.014
 pw_poisson_solve                    28  8.9    0.003    0.007   54.600   54.639
 fft3d_ps                          1460 15.2   18.332   20.546   51.155   53.149
 qs_scf_new_mos                      27  6.0    0.002    0.005   51.918   51.986
 implicit_poisson_solver_mixed_      28  9.9    1.156    1.421   51.540   51.581
 eigensolver                         27  7.0    0.002    0.003   48.996   49.140
 derive_fft                         168 12.1    0.010    0.016   36.079   36.179
 cp_fm_diag_elpa                     29  8.1    0.000    0.001   35.147   35.235
 cp_fm_redistribute_end              29  9.1    4.673   34.799    4.731   34.831
 cp_fm_diag_elpa_base                29  9.0   29.638   34.002   29.932   34.345
 mp_alltoall_z22v                  1460 17.2   27.498   33.934   27.498   33.934
 qs_rho_update_rho_low               28  6.0    0.000    0.000   31.396   31.404
 calculate_rho_elec                  28  7.0    0.054    0.067   31.396   31.404
 sum_up_and_integrate                28  8.9    0.151    0.183   30.952   30.987
 apply_P_operator                   140 11.1    0.749    0.826   30.837   30.931
 integrate_v_rspace                  28  9.9    0.001    0.002   30.801   30.876
 grid_collocate_task_list            28  8.0   20.022   24.661   20.022   24.661
 grid_integrate_task_list            28 10.9   18.631   22.485   18.631   22.485
 x_to_yz                            841 16.4    3.554    4.487   20.939   21.903
 rs_pw_transfer                     228 10.4    0.003    0.003   14.316   17.404
 cp_fm_triangular_multiply           81  8.0   15.384   15.572   15.384   15.572
 yz_to_x                            451 16.4    1.234    1.421   11.244   15.342
 qs_vxc_create                       28  8.9    0.001    0.001   13.830   14.003
 xc_vxc_pw_create                    28  9.9    0.239    0.299   13.829   14.003
 density_rs2pw                       28  8.0    0.002    0.002   10.709   13.881
 xc_pw_derive                       168 11.9    0.003    0.003    9.713   10.784
 rs_pw_transfer_RS2PW_200            30  9.9    1.953    2.164    6.573    9.664
 mp_waitany                       10512 12.3    6.441    9.576    6.441    9.576
 apply_poisson_operator_fft          28 10.9    0.000    0.000    9.033    9.189
 apply_inv_laplace_operator_fft      86 11.6    0.214    0.244    8.330    8.632
 mp_alltoall_d11v                   414 10.3    5.075    8.161    5.075    8.161
 potential_pw2rs                     28 10.9    0.008    0.014    7.939    7.998
 xc_pw_divergence                    28 10.9    0.001    0.002    6.566    7.369
 rs_gather_matrices                  28 10.9    0.033    0.042    4.219    7.238
 xc_rho_set_and_dset_create          28 10.9    0.139    0.163    6.751    7.153
 ps_implicit_compute_error_fft       56 10.9    0.352    0.463    6.118    6.551
 ps_implicit_compute_veps            28 10.9    0.163    0.190    6.156    6.256
 pw_scatter_p                       925 15.3    5.202    6.073    5.202    6.073
 scf_post_calculation_gpw             1  4.0    0.000    0.001    5.721    5.727
 write_available_results              1  5.0    0.000    0.000    5.721    5.727
 rs_pw_transfer_PW2RS_200            30 12.6    2.267    2.378    4.713    4.857
 pw_derive                          672 13.0    4.270    4.664    4.270    4.664
 gspace_mixing                       26  6.0    0.050    0.060    4.328    4.328
 qs_ks_update_qs_env_forces           1  3.0    0.000    0.000    4.120    4.122
 -------------------------------------------------------------------------------

 The number of warnings for this run is : 1
 
 -------------------------------------------------------------------------------
  **** **** ******  **  PROGRAM ENDED AT                 2023-12-03 01:55:41.050
 ***** ** ***  *** **   PROGRAM RAN ON                                     cu001
 **    ****   ******    PROGRAM RAN BY                                     jxzhu
 ***** **    ** ** **   PROGRAM PROCESS ID                                 32444
  **** **  *******  **  PROGRAM STOPPED IN /public/home/jxzhu/tmp_calc/74414c912
                                           e5821022d77189cbd67eb6fe5d66a65/calc/
                                           002400.000/search_lo.000000
