 DBCSR| CPU Multiplication driver                                           XSMM
 DBCSR| Multrec recursion limit                                              512
 DBCSR| Multiplication stack size                                           1000
 DBCSR| Maximum elements for images                                    UNLIMITED
 DBCSR| Multiplicative factor virtual images                                   1
 DBCSR| Use multiplication densification                                       T
 DBCSR| Multiplication size stacks                                             3
 DBCSR| Use memory pool for CPU allocation                                     F
 DBCSR| Number of 3D layers                                               SINGLE
 DBCSR| Use MPI memory allocation                                              F
 DBCSR| Use RMA algorithm                                                      F
 DBCSR| Use Communication thread                                               T
 DBCSR| Communication thread load                                             87
 DBCSR| MPI: My node id                                                        0
 DBCSR| MPI: Number of nodes                                                  64
 DBCSR| OMP: Current number of threads                                         1
 DBCSR| OMP: Max number of threads                                             1
 DBCSR| Split modifier for TAS multiplication algorithm                  1.0E+00


  **** **** ******  **  PROGRAM STARTED AT               2023-11-26 16:23:19.382
 ***** ** ***  *** **   PROGRAM STARTED ON                                 cu054
 **    ****   ******    PROGRAM STARTED BY                                 jxzhu
 ***** **    ** ** **   PROGRAM PROCESS ID                                 33925
  **** **  *******  **  PROGRAM STARTED IN /public/home/jxzhu/tmp_calc/af2075565
                                           805657d94fa4669dad6f4b174b0a4fb/calc/
                                           003100.000/pbc

 CP2K| version string:                                       CP2K version 2022.1
 CP2K| source code revision number:                                  git:2caeb6f
 CP2K| cp2kflags: omp libint fftw3 libxc elpa parallel mpi3 scalapack cosma xsmm
 CP2K|             plumed2 spglib mkl sirius libvori libbqb
 CP2K| is freely available from                            https://www.cp2k.org/
 CP2K| Program compiled at                           Mon Jul 3 17:37:06 CST 2023
 CP2K| Program compiled on                                                 mu003
 CP2K| Program compiled for                                                local
 CP2K| Data directory path                             /public/home/jxzhu/basis/
 CP2K| Input file name                                                 input.inp
 
 GLOBAL| Force Environment number                                              1
 GLOBAL| Basis set file name                                        BASIS_MOLOPT
 GLOBAL| Potential file name                                      GTH_POTENTIALS
 GLOBAL| MM Potential file name                                     MM_POTENTIAL
 GLOBAL| Coordinate file name                                          coord.xyz
 GLOBAL| Method name                                                        CP2K
 GLOBAL| Project name                                                       cp2k
 GLOBAL| Run type                                                   ENERGY_FORCE
 GLOBAL| FFT library                                                       FFTW3
 GLOBAL| Diagonalization library                                            ELPA
 GLOBAL| Minimum number of eigenvectors for ELPA usage                        16
 GLOBAL| Orthonormality check for eigenvectors                          DISABLED
 GLOBAL| Matrix multiplication library                                     COSMA
 GLOBAL| All-to-all communication in single precision                          F
 GLOBAL| FFTs using library dependent lengths                                  F
 GLOBAL| Grid backend                                                       AUTO
 GLOBAL| Global print level                                               MEDIUM
 GLOBAL| MPI I/O enabled                                                       T
 GLOBAL| Total number of message passing processes                            64
 GLOBAL| Number of threads for this process                                    1
 GLOBAL| This output is from process                                           0
 GLOBAL| Stack size for threads created by OpenMP (OMP_STACKSIZE)        default
 GLOBAL| CPU model name                 Intel(R) Xeon(R) Gold 6338 CPU @ 2.00GHz
 GLOBAL| CPUID                                                              1003

 MEMORY| system memory details [Kb]
 MEMORY|                        rank 0           min           max       average
 MEMORY| MemTotal            263619172     263619172     263619172     263619172
 MEMORY| MemFree             211196604     211196604     211197720     211196621
 MEMORY| Buffers                  3320          3320          3320          3320
 MEMORY| Cached                3654508       3654504       3654508       3654507
 MEMORY| Slab                  1740260       1740260       1740260       1740260
 MEMORY| SReclaimable           239728        239728        239728        239728
 MEMORY| MemLikelyFree       215094160     215094160     215095272     215094177


 *** Fundamental physical constants (SI units) ***

 *** Literature: B. J. Mohr and B. N. Taylor,
 ***             CODATA recommended values of the fundamental physical
 ***             constants: 2006, Web Version 5.1
 ***             http://physics.nist.gov/constants

 Speed of light in vacuum [m/s]                             2.99792458000000E+08
 Magnetic constant or permeability of vacuum [N/A**2]       1.25663706143592E-06
 Electric constant or permittivity of vacuum [F/m]          8.85418781762039E-12
 Planck constant (h) [J*s]                                  6.62606896000000E-34
 Planck constant (h-bar) [J*s]                              1.05457162825177E-34
 Elementary charge [C]                                      1.60217648700000E-19
 Electron mass [kg]                                         9.10938215000000E-31
 Electron g factor [ ]                                     -2.00231930436220E+00
 Proton mass [kg]                                           1.67262163700000E-27
 Fine-structure constant                                    7.29735253760000E-03
 Rydberg constant [1/m]                                     1.09737315685270E+07
 Avogadro constant [1/mol]                                  6.02214179000000E+23
 Boltzmann constant [J/K]                                   1.38065040000000E-23
 Atomic mass unit [kg]                                      1.66053878200000E-27
 Bohr radius [m]                                            5.29177208590000E-11

 *** Conversion factors ***

 [u] -> [a.u.]                                              1.82288848426455E+03
 [Angstrom] -> [Bohr] = [a.u.]                              1.88972613288564E+00
 [a.u.] = [Bohr] -> [Angstrom]                              5.29177208590000E-01
 [a.u.] -> [s]                                              2.41888432650478E-17
 [a.u.] -> [fs]                                             2.41888432650478E-02
 [a.u.] -> [J]                                              4.35974393937059E-18
 [a.u.] -> [N]                                              8.23872205491840E-08
 [a.u.] -> [K]                                              3.15774647902944E+05
 [a.u.] -> [kJ/mol]                                         2.62549961709828E+03
 [a.u.] -> [kcal/mol]                                       6.27509468713739E+02
 [a.u.] -> [Pa]                                             2.94210107994716E+13
 [a.u.] -> [bar]                                            2.94210107994716E+08
 [a.u.] -> [atm]                                            2.90362800883016E+08
 [a.u.] -> [eV]                                             2.72113838565563E+01
 [a.u.] -> [Hz]                                             6.57968392072181E+15
 [a.u.] -> [1/cm] (wave numbers)                            2.19474631370540E+05
 [a.u./Bohr**2] -> [1/cm]                                   5.14048714338585E+03
 

 CELL_TOP| Volume [angstrom^3]:                                     10221.806009
 CELL_TOP| Vector a [angstrom    16.869     0.000     0.000   |a| =    16.869000
 CELL_TOP| Vector b [angstrom    -8.434    14.609     0.000   |b| =    16.869015
 CELL_TOP| Vector c [angstrom     0.000     0.000    41.478   |c| =    41.478000
 CELL_TOP| Angle (b,c), alpha [degree]:                                90.000000
 CELL_TOP| Angle (a,c), beta  [degree]:                                90.000000
 CELL_TOP| Angle (a,b), gamma [degree]:                               119.999970
 CELL_TOP| Numerically orthorhombic:                                          NO
 
 GENERATE|  Preliminary Number of Bonds generated:                             0
 GENERATE|  Achieved consistency in connectivity generation.

 CELL| Volume [angstrom^3]:                                         10221.806009
 CELL| Vector a [angstrom]:      16.869     0.000     0.000   |a| =    16.869000
 CELL| Vector b [angstrom]:      -8.434    14.609     0.000   |b| =    16.869015
 CELL| Vector c [angstrom]:       0.000     0.000    41.478   |c| =    41.478000
 CELL| Angle (b,c), alpha [degree]:                                    90.000000
 CELL| Angle (a,c), beta  [degree]:                                    90.000000
 CELL| Angle (a,b), gamma [degree]:                                   119.999970
 CELL| Numerically orthorhombic:                                              NO

 CELL_REF| Volume [angstrom^3]:                                     10221.806009
 CELL_REF| Vector a [angstrom    16.869     0.000     0.000   |a| =    16.869000
 CELL_REF| Vector b [angstrom    -8.434    14.609     0.000   |b| =    16.869015
 CELL_REF| Vector c [angstrom     0.000     0.000    41.478   |c| =    41.478000
 CELL_REF| Angle (b,c), alpha [degree]:                                90.000000
 CELL_REF| Angle (a,c), beta  [degree]:                                90.000000
 CELL_REF| Angle (a,b), gamma [degree]:                               119.999970
 CELL_REF| Numerically orthorhombic:                                          NO

 *******************************************************************************
 *******************************************************************************
 **                                                                           **
 **     #####                         ##              ##                      **
 **    ##   ##            ##          ##              ##                      **
 **   ##     ##                       ##            ######                    **
 **   ##     ##  ##   ##  ##   #####  ##  ##   ####   ##    #####    #####    **
 **   ##     ##  ##   ##  ##  ##      ## ##   ##      ##   ##   ##  ##   ##   **
 **   ##  ## ##  ##   ##  ##  ##      ####     ###    ##   ######   ######    **
 **    ##  ###   ##   ##  ##  ##      ## ##      ##   ##   ##       ##        **
 **     #######   #####   ##   #####  ##  ##  ####    ##    #####   ##        **
 **           ##                                                    ##        **
 **                                                                           **
 **                                                ... make the atoms dance   **
 **                                                                           **
 **            Copyright (C) by CP2K developers group (2000-2022)             **
 **                      J. Chem. Phys. 152, 194103 (2020)                    **
 **                                                                           **
 *******************************************************************************

 DFT| Spin restricted Kohn-Sham (RKS) calculation                            RKS
 DFT| Multiplicity                                                             1
 DFT| Number of spin states                                                    1
 DFT| Charge                                                                   0
 DFT| Self-interaction correction (SIC)                                       NO
 DFT| Cutoffs: density                                              1.000000E-10
 DFT|          gradient                                             1.000000E-10
 DFT|          tau                                                  1.000000E-10
 DFT|          cutoff_smoothing_range                               0.000000E+00
 DFT| XC density smoothing                                                  NONE
 DFT| XC derivatives                                                          PW

 FUNCTIONAL| PBE:
 FUNCTIONAL| J.P.Perdew, K.Burke, M.Ernzerhof, Phys. Rev. Letter, vol. 77, n 18,
 FUNCTIONAL|  pp. 3865-3868, (1996){spin unpolarized}                           

 vdW POTENTIAL|                                                   Pair Potential
 vdW POTENTIAL|          DFT-D3 (Version 3.1)
 vdW POTENTIAL|          Potential Form: S. Grimme et al, JCP 132: 154104 (2010)
 vdW POTENTIAL|          Zero Damping
 vdW POTENTIAL|          Cutoff Radius [Bohr]:                             20.00
 vdW POTENTIAL|          s6 Scaling Factor:                               1.0000
 vdW POTENTIAL|          sr6 Scaling Factor:                              1.2170
 vdW POTENTIAL|          s8 Scaling Factor:                               0.7220
 vdW POTENTIAL|          Cutoff for CN calculation:                   0.1000E-05

 QS| Method:                                                                 GPW
 QS| Density plane wave grid type                        NON-SPHERICAL FULLSPACE
 QS| Number of grid levels:                                                    4
 QS| Density cutoff [a.u.]:                                                200.0
 QS| Multi grid cutoff [a.u.]: 1) grid level                               200.0
 QS|                           2) grid level                                66.7
 QS|                           3) grid level                                22.2
 QS|                           4) grid level                                 7.4
 QS| Grid level progression factor:                                          3.0
 QS| Relative density cutoff [a.u.]:                                        20.0
 QS| Interaction thresholds: eps_pgf_orb:                                3.2E-07
 QS|                         eps_filter_matrix:                          0.0E+00
 QS|                         eps_core_charge:                            1.0E-15
 QS|                         eps_rho_gspace:                             1.0E-13
 QS|                         eps_rho_rspace:                             1.0E-13
 QS|                         eps_gvg_rspace:                             3.2E-07
 QS|                         eps_ppl:                                    1.0E-02
 QS|                         eps_ppnl:                                   3.2E-09


 ATOMIC KIND INFORMATION

  1. Atomic kind: O                                     Number of atoms:     230

     Orbital Basis Set                                        DZVP-MOLOPT-SR-GTH

       Number of orbital shell sets:                                           1
       Number of orbital shells:                                               5
       Number of primitive Cartesian functions:                                5
       Number of Cartesian basis functions:                                   14
       Number of spherical basis functions:                                   13
       Norm type:                                                              2

       Normalised Cartesian orbitals:

                        Set   Shell   Orbital            Exponent    Coefficient

                          1       1    2s               10.389228       0.396646
                                                         3.849621       0.208811
                                                         1.388401      -0.301641
                                                         0.496955      -0.274061
                                                         0.162492      -0.033677

                          1       2    3s               10.389228       0.303673
                                                         3.849621       0.240943
                                                         1.388401      -0.313066
                                                         0.496955      -0.043055
                                                         0.162492       0.213991

                          1       3    3px              10.389228      -1.530415
                                                         3.849621      -1.371928
                                                         1.388401      -0.761951
                                                         0.496955      -0.253695
                                                         0.162492      -0.035541
                          1       3    3py              10.389228      -1.530415
                                                         3.849621      -1.371928
                                                         1.388401      -0.761951
                                                         0.496955      -0.253695
                                                         0.162492      -0.035541
                          1       3    3pz              10.389228      -1.530415
                                                         3.849621      -1.371928
                                                         1.388401      -0.761951
                                                         0.496955      -0.253695
                                                         0.162492      -0.035541

                          1       4    4px              10.389228      -0.565392
                                                         3.849621      -0.038231
                                                         1.388401      -0.382373
                                                         0.496955       0.179070
                                                         0.162492       0.122714
                          1       4    4py              10.389228      -0.565392
                                                         3.849621      -0.038231
                                                         1.388401      -0.382373
                                                         0.496955       0.179070
                                                         0.162492       0.122714
                          1       4    4pz              10.389228      -0.565392
                                                         3.849621      -0.038231
                                                         1.388401      -0.382373
                                                         0.496955       0.179070
                                                         0.162492       0.122714

                          1       5    4dx2             10.389228       1.867377
                                                         3.849621       0.670994
                                                         1.388401       1.353441
                                                         0.496955       0.273538
                                                         0.162492       0.006620
                          1       5    4dxy             10.389228       3.234392
                                                         3.849621       1.162195
                                                         1.388401       2.344229
                                                         0.496955       0.473781
                                                         0.162492       0.011466
                          1       5    4dxz             10.389228       3.234392
                                                         3.849621       1.162195
                                                         1.388401       2.344229
                                                         0.496955       0.473781
                                                         0.162492       0.011466
                          1       5    4dy2             10.389228       1.867377
                                                         3.849621       0.670994
                                                         1.388401       1.353441
                                                         0.496955       0.273538
                                                         0.162492       0.006620
                          1       5    4dyz             10.389228       3.234392
                                                         3.849621       1.162195
                                                         1.388401       2.344229
                                                         0.496955       0.473781
                                                         0.162492       0.011466
                          1       5    4dz2             10.389228       1.867377
                                                         3.849621       0.670994
                                                         1.388401       1.353441
                                                         0.496955       0.273538
                                                         0.162492       0.006620

       Atomic covalent radius [Angstrom]:                                  0.730

       Atomic van der Waals radius [Angstrom]:                             1.520

     GTH Potential information for                                    GTH-PBE-q6

       Description:                       Goedecker-Teter-Hutter pseudopotential
                                           Goedecker et al., PRB 54, 1703 (1996)
                                          Hartwigsen et al., PRB 58, 3641 (1998)
                                                      Krack, TCA 114, 145 (2005)

       Gaussian exponent of the core charge distribution:               8.360253
       Electronic configuration (s p d ...):                               2   4

       Parameters of the local part of the GTH pseudopotential:

                          rloc        C1          C2          C3          C4
                        0.244554  -16.667215    2.487311

       Parameters of the non-local part of the GTH pseudopotential:

                   l      r(l)      h(i,j,l)

                   0    0.220956   18.337458
                   1    0.211332

  2. Atomic kind: H                                     Number of atoms:     460

     Orbital Basis Set                                        DZVP-MOLOPT-SR-GTH

       Number of orbital shell sets:                                           1
       Number of orbital shells:                                               3
       Number of primitive Cartesian functions:                                5
       Number of Cartesian basis functions:                                    5
       Number of spherical basis functions:                                    5
       Norm type:                                                              2

       Normalised Cartesian orbitals:

                        Set   Shell   Orbital            Exponent    Coefficient

                          1       1    2s               10.068468      -0.133023
                                                         2.680223      -0.177618
                                                         0.791502      -0.258419
                                                         0.239116      -0.107525
                                                         0.082193      -0.014019

                          1       2    3s               10.068468       0.344673
                                                         2.680223       1.819821
                                                         0.791502      -0.999069
                                                         0.239116       0.017430
                                                         0.082193       0.082660

                          1       3    3px              10.068468       0.155326
                                                         2.680223       0.367157
                                                         0.791502       0.311480
                                                         0.239116       0.080105
                                                         0.082193       0.033440
                          1       3    3py              10.068468       0.155326
                                                         2.680223       0.367157
                                                         0.791502       0.311480
                                                         0.239116       0.080105
                                                         0.082193       0.033440
                          1       3    3pz              10.068468       0.155326
                                                         2.680223       0.367157
                                                         0.791502       0.311480
                                                         0.239116       0.080105
                                                         0.082193       0.033440

       Atomic covalent radius [Angstrom]:                                  0.320

       Atomic van der Waals radius [Angstrom]:                             1.090

     GTH Potential information for                                    GTH-PBE-q1

       Description:                       Goedecker-Teter-Hutter pseudopotential
                                           Goedecker et al., PRB 54, 1703 (1996)
                                          Hartwigsen et al., PRB 58, 3641 (1998)
                                                      Krack, TCA 114, 145 (2005)

       Gaussian exponent of the core charge distribution:              12.500000
       Electronic configuration (s p d ...):                                   1

       Parameters of the local part of the GTH pseudopotential:

                          rloc        C1          C2          C3          C4
                        0.200000   -4.178900    0.724463

  3. Atomic kind: Pt                                    Number of atoms:     216

     Orbital Basis Set                      DZVP-A5-Q10-323-MOL-T1-DERIVED_SET-1

       Number of orbital shell sets:                                           1
       Number of orbital shells:                                               6
       Number of primitive Cartesian functions:                                5
       Number of Cartesian basis functions:                                   23
       Number of spherical basis functions:                                   20
       Norm type:                                                              2

       Normalised Cartesian orbitals:

                        Set   Shell   Orbital            Exponent    Coefficient

                          1       1    2s                2.521825       0.177473
                                                         1.453920      -0.063399
                                                         0.614053      -0.407089
                                                         0.232656       0.262254
                                                         0.074788       0.047371

                          1       2    3s                2.521825      -0.049056
                                                         1.453920       0.044904
                                                         0.614053      -0.009756
                                                         0.232656      -0.144709
                                                         0.074788       0.144085

                          1       3    3px               2.521825      -0.317572
                                                         1.453920       0.534826
                                                         0.614053      -0.489458
                                                         0.232656       0.245631
                                                         0.074788       0.018221
                          1       3    3py               2.521825      -0.317572
                                                         1.453920       0.534826
                                                         0.614053      -0.489458
                                                         0.232656       0.245631
                                                         0.074788       0.018221
                          1       3    3pz               2.521825      -0.317572
                                                         1.453920       0.534826
                                                         0.614053      -0.489458
                                                         0.232656       0.245631
                                                         0.074788       0.018221

                          1       4    4dx2              2.521825       3.008522
                                                         1.453920      -1.224251
                                                         0.614053       0.225691
                                                         0.232656       0.125144
                                                         0.074788      -0.015348
                          1       4    4dxy              2.521825       5.210912
                                                         1.453920      -2.120465
                                                         0.614053       0.390909
                                                         0.232656       0.216756
                                                         0.074788      -0.026584
                          1       4    4dxz              2.521825       5.210912
                                                         1.453920      -2.120465
                                                         0.614053       0.390909
                                                         0.232656       0.216756
                                                         0.074788      -0.026584
                          1       4    4dy2              2.521825       3.008522
                                                         1.453920      -1.224251
                                                         0.614053       0.225691
                                                         0.232656       0.125144
                                                         0.074788      -0.015348
                          1       4    4dyz              2.521825       5.210912
                                                         1.453920      -2.120465
                                                         0.614053       0.390909
                                                         0.232656       0.216756
                                                         0.074788      -0.026584
                          1       4    4dz2              2.521825       3.008522
                                                         1.453920      -1.224251
                                                         0.614053       0.225691
                                                         0.232656       0.125144
                                                         0.074788      -0.015348

                          1       5    5dx2              2.521825       0.698026
                                                         1.453920      -1.511486
                                                         0.614053      -0.335394
                                                         0.232656      -0.025564
                                                         0.074788      -0.002699
                          1       5    5dxy              2.521825       1.209017
                                                         1.453920      -2.617970
                                                         0.614053      -0.580920
                                                         0.232656      -0.044277
                                                         0.074788      -0.004674
                          1       5    5dxz              2.521825       1.209017
                                                         1.453920      -2.617970
                                                         0.614053      -0.580920
                                                         0.232656      -0.044277
                                                         0.074788      -0.004674
                          1       5    5dy2              2.521825       0.698026
                                                         1.453920      -1.511486
                                                         0.614053      -0.335394
                                                         0.232656      -0.025564
                                                         0.074788      -0.002699
                          1       5    5dyz              2.521825       1.209017
                                                         1.453920      -2.617970
                                                         0.614053      -0.580920
                                                         0.232656      -0.044277
                                                         0.074788      -0.004674
                          1       5    5dz2              2.521825       0.698026
                                                         1.453920      -1.511486
                                                         0.614053      -0.335394
                                                         0.232656      -0.025564
                                                         0.074788      -0.002699

                          1       6    6dx2              2.521825       0.831079
                                                         1.453920      -0.709226
                                                         0.614053      -0.137351
                                                         0.232656       0.068642
                                                         0.074788       0.011745
                          1       6    6dxy              2.521825       1.439472
                                                         1.453920      -1.228415
                                                         0.614053      -0.237899
                                                         0.232656       0.118891
                                                         0.074788       0.020343
                          1       6    6dxz              2.521825       1.439472
                                                         1.453920      -1.228415
                                                         0.614053      -0.237899
                                                         0.232656       0.118891
                                                         0.074788       0.020343
                          1       6    6dy2              2.521825       0.831079
                                                         1.453920      -0.709226
                                                         0.614053      -0.137351
                                                         0.232656       0.068642
                                                         0.074788       0.011745
                          1       6    6dyz              2.521825       1.439472
                                                         1.453920      -1.228415
                                                         0.614053      -0.237899
                                                         0.232656       0.118891
                                                         0.074788       0.020343
                          1       6    6dz2              2.521825       0.831079
                                                         1.453920      -0.709226
                                                         0.614053      -0.137351
                                                         0.232656       0.068642
                                                         0.074788       0.011745

       Atomic covalent radius [Angstrom]:                                  1.300

       Atomic van der Waals radius [Angstrom]:                             1.750

     GTH Potential information for                                   GTH-PBE-q10

       Description:                       Goedecker-Teter-Hutter pseudopotential
                                           Goedecker et al., PRB 54, 1703 (1996)
                                          Hartwigsen et al., PRB 58, 3641 (1998)
                                                      Krack, TCA 114, 145 (2005)

       Gaussian exponent of the core charge distribution:               1.317676
       Electronic configuration (s p d ...):                           1   0   9

       Parameters of the local part of the GTH pseudopotential:

                          rloc        C1          C2          C3          C4
                        0.616000   11.313635

       Parameters of the non-local part of the GTH pseudopotential:

                   l      r(l)      h(i,j,l)

                   0    0.550904    4.733491   -1.784594
                                   -1.784594    2.303901
                   1    0.674138    2.534798   -1.778066
                                   -1.778066    2.103836
                   2    0.457392   -7.264011    2.558665
                                    2.558665   -2.901253


 MOLECULE KIND INFORMATION


 All atoms are their own molecule, skipping detailed information


 TOTAL NUMBERS AND MAXIMUM NUMBERS

  Total number of            - Atomic kinds:                                   3
                             - Atoms:                                        906
                             - Shell sets:                                   906
                             - Shells:                                      3826
                             - Primitive Cartesian functions:               4530
                             - Cartesian basis functions:                  10488
                             - Spherical basis functions:                   9610

  Maximum angular momentum of- Orbital basis functions:                        2
                             - Local part of the GTH pseudopotential:          2
                             - Non-local part of the GTH pseudopotential:      4


 MODULE QUICKSTEP:  ATOMIC COORDINATES IN angstrom

 Atom  Kind  Element       X           Y           Z          Z(eff)       Mass
    1   1 O    8      10.350000    3.380000   26.530001       6.0000     15.9994
    2   2 H    1      11.270000    3.340000   26.790001       1.0000      1.0079
    3   2 H    1      10.120001    2.570000   26.049999       1.0000      1.0079
    4   1 O    8      19.370001    7.370000   16.980001       6.0000     15.9994
    5   2 H    1      18.890001    7.860000   17.680000       1.0000      1.0079
    6   2 H    1      18.680000    7.370000   16.240002       1.0000      1.0079
    7   1 O    8      -9.500000  -29.070000    8.870000       6.0000     15.9994
    8   2 H    1     -10.070001  -28.450001    8.370000       1.0000      1.0079
    9   2 H    1      -9.990001  -29.430000    9.700001       1.0000      1.0079
   10   1 O    8      26.690002    3.160000   23.340000       6.0000     15.9994
   11   2 H    1      26.830002    3.550000   24.250002       1.0000      1.0079
   12   2 H    1      27.390001    3.660000   22.850000       1.0000      1.0079
   13   1 O    8      12.730000  -23.940001   25.900002       6.0000     15.9994
   14   2 H    1      13.340001  -24.540003   25.450001       1.0000      1.0079
   15   2 H    1      12.580000  -24.320002   26.780003       1.0000      1.0079
   16   1 O    8       8.880001   28.800001   22.090000       6.0000     15.9994
   17   2 H    1       8.710001   29.240000   22.959999       1.0000      1.0079
   18   2 H    1       9.810000   28.500002   22.020000       1.0000      1.0079
   19   1 O    8     -12.930001    6.080000   29.740002       6.0000     15.9994
   20   2 H    1     -12.410001    6.080000   30.550001       1.0000      1.0079
   21   2 H    1     -12.380000    6.440001   28.990002       1.0000      1.0079
   22   1 O    8      21.370001   21.510000   11.080000       6.0000     15.9994
   23   2 H    1      21.180000   20.550001   11.340000       1.0000      1.0079
   24   2 H    1      29.260002    7.420001   11.700001       1.0000      1.0079
   25   1 O    8     -32.700001  -18.090002   25.250000       6.0000     15.9994
   26   2 H    1     -33.450005  -18.720001   25.080002       1.0000      1.0079
   27   2 H    1     -32.090000  -18.520000   25.920000       1.0000      1.0079
   28   1 O    8      26.480003   17.420002   17.100000       6.0000     15.9994
   29   2 H    1      27.170002   17.530001   17.870001       1.0000      1.0079
   30   2 H    1      26.020002   16.570000   17.180000       1.0000      1.0079
   31   1 O    8      28.580000   17.900002   19.060001       6.0000     15.9994
   32   2 H    1      29.000000   17.380001   19.760000       1.0000      1.0079
   33   2 H    1      28.420002   18.840000   19.270000       1.0000      1.0079
   34   1 O    8       6.810000  -60.920006   14.740001       6.0000     15.9994
   35   2 H    1       6.270000  -60.830002   15.570001       1.0000      1.0079
   36   2 H    1       6.460000  -60.150002   14.210001       1.0000      1.0079
   37   1 O    8      -3.130000  -17.520000   20.000000       6.0000     15.9994
   38   2 H    1      -2.900000  -18.120001   20.770000       1.0000      1.0079
   39   2 H    1      -2.650000  -16.639999   20.260000       1.0000      1.0079
   40   1 O    8      48.430004   31.970003   19.330002       6.0000     15.9994
   41   2 H    1      48.850002   31.160002   19.850002       1.0000      1.0079
   42   2 H    1      48.910004   32.060001   18.460001       1.0000      1.0079
   43   1 O    8     -11.780001  -22.100000   32.160000       6.0000     15.9994
   44   2 H    1     -11.180000  -21.590002   31.580002       1.0000      1.0079
   45   2 H    1     -11.270000  -22.540001   32.890003       1.0000      1.0079
   46   1 O    8       8.410000   17.410000   33.510002       6.0000     15.9994
   47   2 H    1       7.970000   16.520000   33.340000       1.0000      1.0079
   48   2 H    1       9.330000   17.210001   33.110001       1.0000      1.0079
   49   1 O    8     -22.650002   24.300001   26.880001       6.0000     15.9994
   50   2 H    1     -21.900002   24.530001   27.470001       1.0000      1.0079
   51   2 H    1     -23.380001   24.080002   27.540001       1.0000      1.0079
   52   1 O    8     -19.030001   28.830002   23.280001       6.0000     15.9994
   53   2 H    1     -18.250000   28.630001   23.900002       1.0000      1.0079
   54   2 H    1     -19.510000   28.000002   23.250000       1.0000      1.0079
   55   1 O    8      -7.780001   -5.350000   28.940001       6.0000     15.9994
   56   2 H    1      -7.390000   -4.550000   29.380001       1.0000      1.0079
   57   2 H    1      -7.420001   -6.210001   29.450001       1.0000      1.0079
   58   1 O    8      25.820000   -0.080000   11.760000       6.0000     15.9994
   59   2 H    1      25.070002   -0.660000   11.680001       1.0000      1.0079
   60   2 H    1      25.490000    0.810000   11.930000       1.0000      1.0079
   61   1 O    8     -16.270000   44.590000   24.530001       6.0000     15.9994
   62   2 H    1     -15.820000   45.440002   24.180002       1.0000      1.0079
   63   2 H    1      -0.190000   44.790001   25.000000       1.0000      1.0079
   64   1 O    8      29.060001  -25.670002    8.930000       6.0000     15.9994
   65   2 H    1      28.320000  -25.040001    9.150001       1.0000      1.0079
   66   2 H    1      45.890003  -25.810001    7.900000       1.0000      1.0079
   67   1 O    8      13.510000    3.370000   27.560001       6.0000     15.9994
   68   2 H    1       5.760000   18.710001   27.670002       1.0000      1.0079
   69   2 H    1      14.110001    2.590000   27.220001       1.0000      1.0079
   70   1 O    8       6.750000    2.110000   31.750002       6.0000     15.9994
   71   2 H    1       6.170001    2.820000   32.180000       1.0000      1.0079
   72   2 H    1       7.690001    2.420000   31.990002       1.0000      1.0079
   73   1 O    8     -18.610001   -5.670000   28.210001       6.0000     15.9994
   74   2 H    1     -19.290001   -4.930000   28.250000       1.0000      1.0079
   75   2 H    1     -17.800001   -5.270000   27.710001       1.0000      1.0079
   76   1 O    8       4.570000    8.050001   25.520000       6.0000     15.9994
   77   2 H    1       3.690000    8.440001   25.740002       1.0000      1.0079
   78   2 H    1       4.330000    7.530000   24.730000       1.0000      1.0079
   79   1 O    8      -3.110000  -36.300003   21.230001       6.0000     15.9994
   80   2 H    1      -2.140000  -36.410004   20.950001       1.0000      1.0079
   81   2 H    1      -3.450000  -35.580002   20.640001       1.0000      1.0079
   82   1 O    8      21.760002  -30.340002   17.250000       6.0000     15.9994
   83   2 H    1      21.100002  -30.430002   16.540001       1.0000      1.0079
   84   2 H    1      22.369999  -29.640003   16.980001       1.0000      1.0079
   85   1 O    8      -6.730001   11.030001   29.510002       6.0000     15.9994
   86   2 H    1      -7.610001   11.110001   29.010000       1.0000      1.0079
   87   2 H    1      -6.040000   11.290001   28.850002       1.0000      1.0079
   88   1 O    8       8.890000   -7.490000   15.160000       6.0000     15.9994
   89   2 H    1      -8.810000   -7.060000   14.840001       1.0000      1.0079
   90   2 H    1       8.560000   -8.290001   15.650001       1.0000      1.0079
   91   1 O    8      -2.010000  -12.740001   13.940001       6.0000     15.9994
   92   2 H    1      -1.460000  -12.550001   14.760000       1.0000      1.0079
   93   2 H    1      -1.520000  -12.380000   13.140000       1.0000      1.0079
   94   1 O    8      15.880001   52.220001    9.060000       6.0000     15.9994
   95   2 H    1      15.600000   51.310001    9.490001       1.0000      1.0079
   96   2 H    1      15.860001   52.040005    8.040000       1.0000      1.0079
   97   1 O    8      -9.190001   -3.810000   19.000000       6.0000     15.9994
   98   2 H    1     -10.070001   -3.470000   19.220001       1.0000      1.0079
   99   2 H    1      -8.870000   -3.750000   19.930002       1.0000      1.0079
  100   1 O    8       7.880001   -5.620000   24.020002       6.0000     15.9994
  101   2 H    1       8.600000   -6.200000   23.690002       1.0000      1.0079
  102   2 H    1       7.550001   -5.120000   23.280001       1.0000      1.0079
  103   1 O    8      39.720001   19.650002    9.090000       6.0000     15.9994
  104   2 H    1      39.780003   19.730000   10.070001       1.0000      1.0079
  105   2 H    1      21.940001   19.200001    9.050000       1.0000      1.0079
  106   1 O    8     -11.180000   14.050001    8.150001       6.0000     15.9994
  107   2 H    1     -11.830001   14.700001    8.670000       1.0000      1.0079
  108   2 H    1     -10.280000   14.140000    8.540000       1.0000      1.0079
  109   1 O    8      43.390003    4.290000   12.550001       6.0000     15.9994
  110   2 H    1      43.640003    3.760000   13.300000       1.0000      1.0079
  111   2 H    1      44.220005    4.260000   11.960001       1.0000      1.0079
  112   1 O    8     -34.110001    4.890000   16.220001       6.0000     15.9994
  113   2 H    1     -34.810001    4.500000   15.660001       1.0000      1.0079
  114   2 H    1     -33.410000    4.160000   16.390001       1.0000      1.0079
  115   1 O    8      26.540001   25.570002    9.270000       6.0000     15.9994
  116   2 H    1      25.610001   25.480001    9.350000       1.0000      1.0079
  117   2 H    1      26.830002   26.480003    9.390000       1.0000      1.0079
  118   1 O    8     -31.200001   21.830002   20.260000       6.0000     15.9994
  119   2 H    1     -31.770000   22.670002   19.960001       1.0000      1.0079
  120   2 H    1     -31.690002   21.160002   19.840000       1.0000      1.0079
  121   1 O    8       4.640000    9.190001   16.750000       6.0000     15.9994
  122   2 H    1       4.160000    9.900001   16.220001       1.0000      1.0079
  123   2 H    1       3.900000    8.530001   16.850000       1.0000      1.0079
  124   1 O    8     -15.080000   14.110001   14.380001       6.0000     15.9994
  125   2 H    1     -23.830002   28.610001   13.470001       1.0000      1.0079
  126   2 H    1     -14.880000   15.060000   14.330001       1.0000      1.0079
  127   1 O    8      -3.920000   -4.440001   12.670001       6.0000     15.9994
  128   2 H    1      -4.260000   -5.350000   12.500000       1.0000      1.0079
  129   2 H    1     -11.400002    9.980000   12.790001       1.0000      1.0079
  130   1 O    8      -9.600000   20.650002   18.580000       6.0000     15.9994
  131   2 H    1     -10.430001   20.850000   18.910000       1.0000      1.0079
  132   2 H    1      -9.700001   19.950001   17.840000       1.0000      1.0079
  133   1 O    8       4.010000   18.820002   12.050000       6.0000     15.9994
  134   2 H    1       4.550000   17.980001   12.010001       1.0000      1.0079
  135   2 H    1       4.050000   19.040001   13.010001       1.0000      1.0079
  136   1 O    8     -42.310005    8.130000   33.430000       6.0000     15.9994
  137   2 H    1     -41.380001    8.140000   33.110001       1.0000      1.0079
  138   2 H    1     -42.590004    7.220001   33.190002       1.0000      1.0079
  139   1 O    8     -11.060000   -0.310000   21.390001       6.0000     15.9994
  140   2 H    1     -10.860001   -0.400000   22.310001       1.0000      1.0079
  141   2 H    1     -10.200001    0.250000   20.990002       1.0000      1.0079
  142   1 O    8      12.920000    3.870000   14.830000       6.0000     15.9994
  143   2 H    1      12.440001    4.430000   15.490000       1.0000      1.0079
  144   2 H    1      13.480000    3.330000   15.460001       1.0000      1.0079
  145   1 O    8     -22.680000   40.610004   19.130001       6.0000     15.9994
  146   2 H    1      -4.890000   40.570000   19.540001       1.0000      1.0079
  147   2 H    1     -22.840002   41.530003   18.920000       1.0000      1.0079
  148   1 O    8     -33.610001    3.530000   29.810001       6.0000     15.9994
  149   2 H    1     -33.460003    4.030000   30.630001       1.0000      1.0079
  150   2 H    1     -33.860001    4.250000   29.150002       1.0000      1.0079
  151   1 O    8     -11.680001   11.650001   24.120003       6.0000     15.9994
  152   2 H    1     -11.130000   10.960001   24.590000       1.0000      1.0079
  153   2 H    1     -12.580000   11.260000   23.930000       1.0000      1.0079
  154   1 O    8     -28.640001   -6.600000    8.730000       6.0000     15.9994
  155   2 H    1     -28.470001   -7.370000    8.170000       1.0000      1.0079
  156   2 H    1     -28.930000   -7.090001    9.520000       1.0000      1.0079
  157   1 O    8      27.130001   -9.820001   11.790000       6.0000     15.9994
  158   2 H    1      26.110001   -9.870001   11.560000       1.0000      1.0079
  159   2 H    1      27.240002   -8.890000   11.950001       1.0000      1.0079
  160   1 O    8      -3.990000   -8.770000    9.340000       6.0000     15.9994
  161   2 H    1      -4.250000   -8.350000    8.500000       1.0000      1.0079
  162   2 H    1      -4.530000   -9.570000    9.290000       1.0000      1.0079
  163   1 O    8      55.070004   -2.350000    8.960000       6.0000     15.9994
  164   2 H    1      54.490005   -1.560000    8.800000       1.0000      1.0079
  165   2 H    1      54.520000   -3.130000    8.690001       1.0000      1.0079
  166   1 O    8       5.020000   -6.760001   19.400002       6.0000     15.9994
  167   2 H    1       5.110001   -5.810000   19.580000       1.0000      1.0079
  168   2 H    1       4.210001   -7.080000   19.890001       1.0000      1.0079
  169   1 O    8     -48.480000  -13.700001   33.340000       6.0000     15.9994
  170   2 H    1     -32.020000  -14.500000   32.910000       1.0000      1.0079
  171   2 H    1     -32.120003  -12.920000   32.910000       1.0000      1.0079
  172   1 O    8      23.520000   -1.110000   11.110001       6.0000     15.9994
  173   2 H    1      22.970001   -0.900000   11.870001       1.0000      1.0079
  174   2 H    1      23.390003   -2.060000   10.940001       1.0000      1.0079
  175   1 O    8      21.720001  -33.709999   13.080001       6.0000     15.9994
  176   2 H    1      21.860001  -32.920002   13.600000       1.0000      1.0079
  177   2 H    1      22.260000  -33.520004   12.270001       1.0000      1.0079
  178   1 O    8     -12.990000   22.650002   28.740002       6.0000     15.9994
  179   2 H    1     -13.230000   21.690002   28.840000       1.0000      1.0079
  180   2 H    1     -12.030001   22.750000   28.530003       1.0000      1.0079
  181   1 O    8      38.810001   21.940001   16.720001       6.0000     15.9994
  182   2 H    1      38.090004   21.330002   16.500000       1.0000      1.0079
  183   2 H    1      38.690002   22.290001   17.650002       1.0000      1.0079
  184   1 O    8      24.930000  -16.540001   13.460001       6.0000     15.9994
  185   2 H    1      24.400002  -16.430000   14.230001       1.0000      1.0079
  186   2 H    1      24.570000  -17.390001   13.000001       1.0000      1.0079
  187   1 O    8     -22.330000   43.600002    8.870000       6.0000     15.9994
  188   2 H    1     -22.350002   44.090004    9.750000       1.0000      1.0079
  189   2 H    1     -22.160000   44.150005    8.050001       1.0000      1.0079
  190   1 O    8      25.550001   25.480001   12.790001       6.0000     15.9994
  191   2 H    1      25.710001   24.530001   13.010001       1.0000      1.0079
  192   2 H    1      25.020000   25.830002   13.560000       1.0000      1.0079
  193   1 O    8       2.740000   -9.830000   31.440001       6.0000     15.9994
  194   2 H    1       3.630000   -9.940001   31.820002       1.0000      1.0079
  195   2 H    1       2.370000   -8.950001   31.550003       1.0000      1.0079
  196   1 O    8     -25.580002   -3.150000   21.500000       6.0000     15.9994
  197   2 H    1     -25.560001   -2.170000   21.690002       1.0000      1.0079
  198   2 H    1     -24.660000   -3.480000   21.660002       1.0000      1.0079
  199   1 O    8     -22.600000   25.630001   23.200001       6.0000     15.9994
  200   2 H    1     -23.250000   25.770000   23.950003       1.0000      1.0079
  201   2 H    1     -22.790001   24.700001   22.930002       1.0000      1.0079
  202   1 O    8      27.490002    5.960000    8.960000       6.0000     15.9994
  203   2 H    1      27.930002    6.170001    8.110001       1.0000      1.0079
  204   2 H    1      26.660002    5.520000    8.670000       1.0000      1.0079
  205   1 O    8      25.190001   14.910001   11.990000       6.0000     15.9994
  206   2 H    1      16.810001   28.710001   12.640000       1.0000      1.0079
  207   2 H    1      24.640003   15.550001   12.520000       1.0000      1.0079
  208   1 O    8     -24.610003    2.250000    9.070001       6.0000     15.9994
  209   2 H    1     -24.040001    1.930000    8.350000       1.0000      1.0079
  210   2 H    1     -25.220001    1.460000    9.240000       1.0000      1.0079
  211   1 O    8      21.070002   -3.130000   24.660000       6.0000     15.9994
  212   2 H    1      20.690001   -3.650000   25.410002       1.0000      1.0079
  213   2 H    1      20.490000   -3.310000   23.870001       1.0000      1.0079
  214   1 O    8      33.530003   -1.810000   25.350000       6.0000     15.9994
  215   2 H    1      34.260002   -1.400000   24.780003       1.0000      1.0079
  216   2 H    1      33.410000   -1.150000   26.090002       1.0000      1.0079
  217   1 O    8     -51.530003   33.460003   11.790000       6.0000     15.9994
  218   2 H    1     -51.730003   34.280003   12.250000       1.0000      1.0079
  219   2 H    1     -52.330002   32.910000   11.630001       1.0000      1.0079
  220   1 O    8      36.230003    2.530000   32.210003       6.0000     15.9994
  221   2 H    1      36.110001    2.630000   31.250002       1.0000      1.0079
  222   2 H    1      36.540001    1.620000   32.410004       1.0000      1.0079
  223   1 O    8      12.210001    2.880000   20.030001       6.0000     15.9994
  224   2 H    1      30.030003    2.810000   19.700001       1.0000      1.0079
  225   2 H    1      12.270001    2.180000   20.730001       1.0000      1.0079
  226   1 O    8      20.070002   53.670002    7.950000       6.0000     15.9994
  227   2 H    1      19.360001   53.230003    8.490001       1.0000      1.0079
  228   2 H    1      37.670002   52.950001    8.060000       1.0000      1.0079
  229   1 O    8     -23.090000   41.150002   32.300003       6.0000     15.9994
  230   2 H    1     -23.180000   40.830002   31.350002       1.0000      1.0079
  231   2 H    1     -22.780001   42.070004   32.200005       1.0000      1.0079
  232   1 O    8      15.330001    0.580000   32.580002       6.0000     15.9994
  233   2 H    1      14.400001    0.930000   32.550003       1.0000      1.0079
  234   2 H    1      15.400001   -0.260000   33.080002       1.0000      1.0079
  235   1 O    8      -4.930000   31.620003   29.460001       6.0000     15.9994
  236   2 H    1      -4.310000   32.080002   28.820002       1.0000      1.0079
  237   2 H    1      -5.850000   31.990002   29.420002       1.0000      1.0079
  238   1 O    8      15.970001   22.060001   16.520000       6.0000     15.9994
  239   2 H    1       7.070000   36.980003   15.710001       1.0000      1.0079
  240   2 H    1      16.970001   21.970001   16.230000       1.0000      1.0079
  241   1 O    8       5.170000    3.780000   22.400000       6.0000     15.9994
  242   2 H    1       4.950000    4.500000   21.790001       1.0000      1.0079
  243   2 H    1       4.710000    2.950000   22.070000       1.0000      1.0079
  244   1 O    8       8.380001    4.760000    8.130000       6.0000     15.9994
  245   2 H    1       7.780001    5.220000    8.770000       1.0000      1.0079
  246   2 H    1       8.520000    3.830000    8.360001       1.0000      1.0079
  247   1 O    8      13.910000    3.990000   32.310001       6.0000     15.9994
  248   2 H    1      13.590001    3.080000   32.200005       1.0000      1.0079
  249   2 H    1      13.750001    4.120000   33.260002       1.0000      1.0079
  250   1 O    8      25.070002  -14.910001    9.280001       6.0000     15.9994
  251   2 H    1      24.960001  -14.740001   10.290001       1.0000      1.0079
  252   2 H    1      25.530003  -14.070001    8.970000       1.0000      1.0079
  253   1 O    8      -0.320000   -4.370000   22.570002       6.0000     15.9994
  254   2 H    1      -0.800000   -4.700000   23.410000       1.0000      1.0079
  255   2 H    1       0.500000   -4.000000   22.920000       1.0000      1.0079
  256   1 O    8      22.240002  -14.540001   12.810000       6.0000     15.9994
  257   2 H    1      21.950001  -15.250001   12.300000       1.0000      1.0079
  258   2 H    1      22.110003  -14.670001   13.760000       1.0000      1.0079
  259   1 O    8     -17.060001   24.630001   17.340000       6.0000     15.9994
  260   2 H    1     -17.790001   24.240000   16.850000       1.0000      1.0079
  261   2 H    1     -16.340000   24.510002   16.660002       1.0000      1.0079
  262   1 O    8       7.830000   17.150000   13.830000       6.0000     15.9994
  263   2 H    1       8.800000   17.020000   14.040001       1.0000      1.0079
  264   2 H    1       7.790000   17.740000   13.050001       1.0000      1.0079
  265   1 O    8      34.250000    0.120000   16.790001       6.0000     15.9994
  266   2 H    1      34.850002    0.260000   15.980000       1.0000      1.0079
  267   2 H    1      42.200005   13.880000   16.790001       1.0000      1.0079
  268   1 O    8      15.380001    0.340000   20.430000       6.0000     15.9994
  269   2 H    1      14.910001    0.190000   21.280001       1.0000      1.0079
  270   2 H    1      15.130001   -0.500000   19.920002       1.0000      1.0079
  271   1 O    8      -2.240000   -3.930000    9.320001       6.0000     15.9994
  272   2 H    1      -2.020000   -4.870000    9.070001       1.0000      1.0079
  273   2 H    1      -1.700000   -3.480000    8.630000       1.0000      1.0079
  274   1 O    8      -9.240000   -1.200000   26.240002       6.0000     15.9994
  275   2 H    1      -9.720000   -1.690000   26.890001       1.0000      1.0079
  276   2 H    1      -8.510000   -1.840000   25.930002       1.0000      1.0079
  277   1 O    8       9.480001   11.900001    9.130000       6.0000     15.9994
  278   2 H    1      -7.770000   12.790001    9.170000       1.0000      1.0079
  279   2 H    1       9.740001   11.810001    8.160001       1.0000      1.0079
  280   1 O    8      42.410004  -22.650002   27.780001       6.0000     15.9994
  281   2 H    1      42.470001  -22.430000   26.850002       1.0000      1.0079
  282   2 H    1      42.760002  -21.930000   28.350000       1.0000      1.0079
  283   1 O    8       9.500000   -7.700000   23.460003       6.0000     15.9994
  284   2 H    1       0.550000    6.470000   22.760000       1.0000      1.0079
  285   2 H    1       9.340000   -8.210000   24.300001       1.0000      1.0079
  286   1 O    8     -21.650002   47.630001   24.750002       6.0000     15.9994
  287   2 H    1      -4.600000   46.700001   24.910002       1.0000      1.0079
  288   2 H    1     -21.020000   47.780003   23.930000       1.0000      1.0079
  289   1 O    8       5.590000   18.470001   23.520000       6.0000     15.9994
  290   2 H    1       5.230000   17.580002   23.440001       1.0000      1.0079
  291   2 H    1       6.340000   18.640001   22.920000       1.0000      1.0079
  292   1 O    8      23.930000   -6.790000   32.230000       6.0000     15.9994
  293   2 H    1      24.230001   -5.840001   32.050003       1.0000      1.0079
  294   2 H    1      24.190002   -6.850000   33.190002       1.0000      1.0079
  295   1 O    8       6.940000    8.420001   30.740002       6.0000     15.9994
  296   2 H    1       6.800000    9.180000   31.340000       1.0000      1.0079
  297   2 H    1       6.750000    8.770000   29.780003       1.0000      1.0079
  298   1 O    8      11.090001    7.100000   25.010002       6.0000     15.9994
  299   2 H    1      11.710000    6.330000   25.170002       1.0000      1.0079
  300   2 H    1      10.210000    6.730001   24.799999       1.0000      1.0079
  301   1 O    8     -17.030001    4.590000    8.030001       6.0000     15.9994
  302   2 H    1     -16.610001    5.340000    8.600000       1.0000      1.0079
  303   2 H    1     -17.970001    4.520000    8.250000       1.0000      1.0079
  304   1 O    8      20.210001   11.910001   18.820002       6.0000     15.9994
  305   2 H    1      19.270000   11.800001   18.460001       1.0000      1.0079
  306   2 H    1      20.490000   10.980000   19.070000       1.0000      1.0079
  307   1 O    8     -17.630001   17.000000   11.770000       6.0000     15.9994
  308   2 H    1     -17.020000   17.740000   11.800001       1.0000      1.0079
  309   2 H    1     -18.100000   17.210001   10.920000       1.0000      1.0079
  310   1 O    8     -12.570001   12.670001   32.380001       6.0000     15.9994
  311   2 H    1     -12.540001   13.260001   33.120003       1.0000      1.0079
  312   2 H    1     -12.220000   13.170000   31.530001       1.0000      1.0079
  313   1 O    8     -18.630001   10.790000   11.050000       6.0000     15.9994
  314   2 H    1     -18.390001   10.630001   10.110001       1.0000      1.0079
  315   2 H    1     -17.740000   10.740000   11.590000       1.0000      1.0079
  316   1 O    8       2.080000   -6.970000   32.200005       6.0000     15.9994
  317   2 H    1       1.830000   -6.620001   31.340000       1.0000      1.0079
  318   2 H    1       2.940000   -6.570000   32.280003       1.0000      1.0079
  319   1 O    8      -1.300000   -3.910000   12.000000       6.0000     15.9994
  320   2 H    1      -1.530000   -3.860000   11.020000       1.0000      1.0079
  321   2 H    1      -0.610000   -4.630000   12.030001       1.0000      1.0079
  322   1 O    8      45.250000  -23.970001   16.600000       6.0000     15.9994
  323   2 H    1      44.599998  -23.270000   16.470001       1.0000      1.0079
  324   2 H    1      44.830002  -24.700001   17.170002       1.0000      1.0079
  325   1 O    8     -25.520000    6.380000   24.950001       6.0000     15.9994
  326   2 H    1     -26.280001    5.800000   25.170002       1.0000      1.0079
  327   2 H    1     -25.690001    6.860001   24.090002       1.0000      1.0079
  328   1 O    8       6.510000   -5.310000   28.120001       6.0000     15.9994
  329   2 H    1       7.510000   -5.310000   28.300001       1.0000      1.0079
  330   2 H    1       6.530001   -5.780000   27.220001       1.0000      1.0079
  331   1 O    8     -20.350000   47.860001   32.730003       6.0000     15.9994
  332   2 H    1     -20.420000   47.750000   33.800003       1.0000      1.0079
  333   2 H    1     -21.250000   47.520004   32.500004       1.0000      1.0079
  334   1 O    8     -16.550001   -9.710001   19.540001       6.0000     15.9994
  335   2 H    1     -15.900001  -10.370001   19.230001       1.0000      1.0079
  336   2 H    1     -16.950001  -10.050000   20.420000       1.0000      1.0079
  337   1 O    8      13.690001   21.320002   27.650002       6.0000     15.9994
  338   2 H    1      22.810001    7.320001   27.980001       1.0000      1.0079
  339   2 H    1      -3.470000   21.790001   26.760002       1.0000      1.0079
  340   1 O    8      28.260002   15.070001   11.560000       6.0000     15.9994
  341   2 H    1      28.430002   15.920001   11.940001       1.0000      1.0079
  342   2 H    1      27.380001   14.820002   11.840000       1.0000      1.0079
  343   1 O    8      22.850000    8.170000   14.510001       6.0000     15.9994
  344   2 H    1      22.430000    7.430000   14.010000       1.0000      1.0079
  345   2 H    1      22.120001    8.540000   15.100001       1.0000      1.0079
  346   1 O    8       2.380000  -14.330001   26.420002       6.0000     15.9994
  347   2 H    1       1.550000  -14.270000   25.920000       1.0000      1.0079
  348   2 H    1       3.080000  -14.230001   25.730001       1.0000      1.0079
  349   1 O    8       1.460000   13.340001   31.960001       6.0000     15.9994
  350   2 H    1       0.600000   13.020000   31.660002       1.0000      1.0079
  351   2 H    1       2.150000   12.630000   32.010002       1.0000      1.0079
  352   1 O    8       4.360000   16.180000   32.040001       6.0000     15.9994
  353   2 H    1       3.640000   15.790001   32.620003       1.0000      1.0079
  354   2 H    1       4.060000   16.410000   31.110001       1.0000      1.0079
  355   1 O    8      15.470000    7.190001   12.490001       6.0000     15.9994
  356   2 H    1      14.570000    7.070000   12.020000       1.0000      1.0079
  357   2 H    1      15.160000    7.380000   13.470001       1.0000      1.0079
  358   1 O    8      28.220001    7.940001   13.110001       6.0000     15.9994
  359   2 H    1      28.720001    8.820001   13.240002       1.0000      1.0079
  360   2 H    1      27.250002    8.240001   12.910000       1.0000      1.0079
  361   1 O    8     -30.170002    7.850000   11.680001       6.0000     15.9994
  362   2 H    1     -31.130001    7.910000   11.940001       1.0000      1.0079
  363   2 H    1     -30.200003    8.020000   10.710001       1.0000      1.0079
  364   1 O    8      -5.070000   66.740005   22.820000       6.0000     15.9994
  365   2 H    1      -5.330000   66.150002   23.610001       1.0000      1.0079
  366   2 H    1      -5.390000   66.130005   22.030001       1.0000      1.0079
  367   1 O    8       3.940000   11.640000    8.250000       6.0000     15.9994
  368   2 H    1       4.270000   12.490001    8.700001       1.0000      1.0079
  369   2 H    1       4.630000   10.890001    8.640000       1.0000      1.0079
  370   1 O    8     -20.100000   -0.820000   30.150002       6.0000     15.9994
  371   2 H    1     -19.600000    0.040000   30.080002       1.0000      1.0079
  372   2 H    1     -20.960003   -0.660000   29.680002       1.0000      1.0079
  373   1 O    8     -13.830000   -0.160000   32.640003       6.0000     15.9994
  374   2 H    1     -13.980001   -0.200000   33.670002       1.0000      1.0079
  375   2 H    1     -12.770000   -0.130000   32.660004       1.0000      1.0079
  376   1 O    8     -18.320002   20.570002    9.820001       6.0000     15.9994
  377   2 H    1     -19.310001   20.470001    9.650001       1.0000      1.0079
  378   2 H    1     -18.040001   20.580002   10.790000       1.0000      1.0079
  379   1 O    8       0.810000  -22.640001    9.400001       6.0000     15.9994
  380   2 H    1       0.100000  -21.920002    9.390000       1.0000      1.0079
  381   2 H    1       1.560000  -22.040001    9.410001       1.0000      1.0079
  382   1 O    8       0.800000  -11.730001   32.540001       6.0000     15.9994
  383   2 H    1       1.450000  -11.030001   32.150002       1.0000      1.0079
  384   2 H    1       0.610000  -11.410000   33.470001       1.0000      1.0079
  385   1 O    8      -8.640000   44.060001   27.280003       6.0000     15.9994
  386   2 H    1      -8.590000   43.960003   28.290003       1.0000      1.0079
  387   2 H    1      -7.630000   44.310001   27.120001       1.0000      1.0079
  388   1 O    8       7.440000   12.520000   16.639999       6.0000     15.9994
  389   2 H    1       6.710000   12.700001   17.220001       1.0000      1.0079
  390   2 H    1       7.790000   11.650001   16.940001       1.0000      1.0079
  391   1 O    8       2.480000   28.700001   18.760000       6.0000     15.9994
  392   2 H    1       1.960000   29.110003   17.990002       1.0000      1.0079
  393   2 H    1       3.410000   28.580000   18.330000       1.0000      1.0079
  394   1 O    8      20.260000   40.020004   14.850000       6.0000     15.9994
  395   2 H    1      27.720001   25.410002   14.830000       1.0000      1.0079
  396   2 H    1      20.620001   39.880001   13.880000       1.0000      1.0079
  397   1 O    8      19.550001   -3.050000   11.250000       6.0000     15.9994
  398   2 H    1      18.870001   -3.200000   10.559999       1.0000      1.0079
  399   2 H    1      20.320000   -2.780000   10.640000       1.0000      1.0079
  400   1 O    8      33.150002   15.800000   20.080002       6.0000     15.9994
  401   2 H    1      33.780003   15.260000   20.550001       1.0000      1.0079
  402   2 H    1      33.130001   16.690001   20.470001       1.0000      1.0079
  403   1 O    8      15.840001   49.669998   32.459999       6.0000     15.9994
  404   2 H    1      15.790001   49.370003   31.500000       1.0000      1.0079
  405   2 H    1      15.700001   48.820004   32.920002       1.0000      1.0079
  406   1 O    8      12.130001    1.020000   21.960001       6.0000     15.9994
  407   2 H    1      11.810001    0.200000   21.590002       1.0000      1.0079
  408   2 H    1      12.150001    0.970000   22.930002       1.0000      1.0079
  409   1 O    8      15.720000  -12.660000   26.320002       6.0000     15.9994
  410   2 H    1      15.590000  -13.080001   27.110003       1.0000      1.0079
  411   2 H    1      15.290001  -11.810001   26.440001       1.0000      1.0079
  412   1 O    8     -32.370003   -0.110000   23.860001       6.0000     15.9994
  413   2 H    1     -32.200005   -0.080000   22.880001       1.0000      1.0079
  414   2 H    1     -32.570004    0.820000   24.020002       1.0000      1.0079
  415   1 O    8     -12.970000    6.630001   23.350000       6.0000     15.9994
  416   2 H    1     -13.960000    6.570000   23.290001       1.0000      1.0079
  417   2 H    1     -12.580000    6.930000   22.540001       1.0000      1.0079
  418   1 O    8      24.540003   23.580000    9.110001       6.0000     15.9994
  419   2 H    1      24.799999   23.670002    8.170000       1.0000      1.0079
  420   2 H    1      23.660002   23.180000    9.260000       1.0000      1.0079
  421   1 O    8      34.680000    1.920000    8.820001       6.0000     15.9994
  422   2 H    1      34.040001    2.640000    8.560000       1.0000      1.0079
  423   2 H    1      34.940002    1.560000    7.960001       1.0000      1.0079
  424   1 O    8     -22.030001    4.570000   22.150002       6.0000     15.9994
  425   2 H    1     -21.850002    4.280000   21.250000       1.0000      1.0079
  426   2 H    1     -12.710000  -10.140000   22.590000       1.0000      1.0079
  427   1 O    8     -17.910002   -9.610001   29.820002       6.0000     15.9994
  428   2 H    1     -18.030001   -8.840000   29.260002       1.0000      1.0079
  429   2 H    1     -17.010000  -10.020000   29.740002       1.0000      1.0079
  430   1 O    8     -16.600000   25.200003   26.820002       6.0000     15.9994
  431   2 H    1     -15.680000   24.820002   26.650002       1.0000      1.0079
  432   2 H    1     -16.630001   26.030003   26.190002       1.0000      1.0079
  433   1 O    8       8.980000  -20.540001   12.150001       6.0000     15.9994
  434   2 H    1       8.670000  -21.510000   12.300000       1.0000      1.0079
  435   2 H    1       9.370001  -20.600002   11.220001       1.0000      1.0079
  436   1 O    8      20.120001   27.210003   27.790001       6.0000     15.9994
  437   2 H    1      19.820002   26.710003   27.000000       1.0000      1.0079
  438   2 H    1      28.330002   13.560000   27.640001       1.0000      1.0079
  439   1 O    8      14.490002   17.450001    9.500000       6.0000     15.9994
  440   2 H    1      13.490001   17.490002    9.610001       1.0000      1.0079
  441   2 H    1      14.620000   17.840000    8.610001       1.0000      1.0079
  442   1 O    8      -3.910000    8.630000   31.420002       6.0000     15.9994
  443   2 H    1      -3.070000    8.250000   31.750002       1.0000      1.0079
  444   2 H    1      -3.970000    8.550000   30.440002       1.0000      1.0079
  445   1 O    8      -9.870001    4.830000   17.340000       6.0000     15.9994
  446   2 H    1      -9.940001    5.700001   16.930000       1.0000      1.0079
  447   2 H    1      -9.310000    4.980001   18.170000       1.0000      1.0079
  448   1 O    8       9.120001   -1.740000   17.400002       6.0000     15.9994
  449   2 H    1       9.520000   -2.010000   16.600000       1.0000      1.0079
  450   2 H    1      25.560001   -2.540000   17.710001       1.0000      1.0079
  451   1 O    8      22.750000   15.540000   26.520002       6.0000     15.9994
  452   2 H    1      23.670002   15.340000   26.810001       1.0000      1.0079
  453   2 H    1      22.369999   14.630001   26.400002       1.0000      1.0079
  454   1 O    8       2.440000   -3.810000   22.610001       6.0000     15.9994
  455   2 H    1       2.800000   -4.740000   22.680000       1.0000      1.0079
  456   2 H    1       2.710000   -3.600000   21.709999       1.0000      1.0079
  457   1 O    8      20.800001    1.780000   21.130001       6.0000     15.9994
  458   2 H    1      21.510000    1.060000   21.190002       1.0000      1.0079
  459   2 H    1      19.970001    1.320000   21.330002       1.0000      1.0079
  460   1 O    8      14.000001    7.890000   26.090002       6.0000     15.9994
  461   2 H    1      13.680000    6.930000   25.970001       1.0000      1.0079
  462   2 H    1      -2.310000    8.130000   25.320000       1.0000      1.0079
  463   1 O    8      -8.030001  -33.170002   15.880001       6.0000     15.9994
  464   2 H    1      -8.650001  -32.520000   15.530001       1.0000      1.0079
  465   2 H    1      -8.600000  -33.970001   16.010000       1.0000      1.0079
  466   1 O    8      22.460001   -0.570000   13.510000       6.0000     15.9994
  467   2 H    1      22.660000    0.450000   13.620001       1.0000      1.0079
  468   2 H    1      21.470001   -0.520000   13.510000       1.0000      1.0079
  469   1 O    8      -0.700000  -10.970000   21.730001       6.0000     15.9994
  470   2 H    1      -0.020000  -11.360001   22.350002       1.0000      1.0079
  471   2 H    1      -1.530000  -10.960001   22.250002       1.0000      1.0079
  472   1 O    8     -10.830001  -16.450001   18.960001       6.0000     15.9994
  473   2 H    1     -11.830001  -16.490000   18.890001       1.0000      1.0079
  474   2 H    1     -10.559999  -17.270000   19.520000       1.0000      1.0079
  475   1 O    8      21.260002    4.060000   16.780001       6.0000     15.9994
  476   2 H    1      20.840000    3.540000   17.460001       1.0000      1.0079
  477   2 H    1      22.210003    4.150000   17.030001       1.0000      1.0079
  478   1 O    8     -34.910004   34.350002   28.070002       6.0000     15.9994
  479   2 H    1     -34.160000   34.350002   27.340002       1.0000      1.0079
  480   2 H    1     -35.080002   35.310001   28.250000       1.0000      1.0079
  481   1 O    8      14.290000   13.830000   24.190002       6.0000     15.9994
  482   2 H    1      13.630000   13.130001   24.330002       1.0000      1.0079
  483   2 H    1      15.060000   13.550000   24.770002       1.0000      1.0079
  484   1 O    8       7.220001   39.850002   20.020000       6.0000     15.9994
  485   2 H    1       7.460001   40.060001   20.970001       1.0000      1.0079
  486   2 H    1       8.040000   39.389999   19.600000       1.0000      1.0079
  487   1 O    8      18.760000   47.020000   18.080002       6.0000     15.9994
  488   2 H    1      18.090002   46.330002   17.810001       1.0000      1.0079
  489   2 H    1      19.520000   46.610001   18.720001       1.0000      1.0079
  490   1 O    8      27.299999   31.610003   14.490002       6.0000     15.9994
  491   2 H    1      28.110001   32.080002   14.740001       1.0000      1.0079
  492   2 H    1      26.780003   31.530001   15.320001       1.0000      1.0079
  493   1 O    8       2.540000    0.620000   27.360001       6.0000     15.9994
  494   2 H    1      -5.350000   15.570001   26.560001       1.0000      1.0079
  495   2 H    1       2.700000    1.410000   27.980001       1.0000      1.0079
  496   1 O    8      29.600000   30.090000   24.530001       6.0000     15.9994
  497   2 H    1      21.890001   44.190002   24.100000       1.0000      1.0079
  498   2 H    1      21.709999   45.150002   25.240002       1.0000      1.0079
  499   1 O    8      21.750002    9.490001   19.480001       6.0000     15.9994
  500   2 H    1      22.690001    9.860001   19.530001       1.0000      1.0079
  501   2 H    1      21.590002    9.140000   18.550001       1.0000      1.0079
  502   1 O    8       9.550000   17.400002   24.139999       6.0000     15.9994
  503   2 H    1       8.880001   17.540001   23.410000       1.0000      1.0079
  504   2 H    1      10.400001   17.889999   23.980000       1.0000      1.0079
  505   1 O    8      19.660000   -5.120000   26.420002       6.0000     15.9994
[...]
    899      3      Pt         -0.00964855    -0.02011922    -0.00059528
    900      3      Pt         -0.01081921    -0.00644793     0.00193847
    901      3      Pt         -0.00912069    -0.00772204     0.00484103
    902      3      Pt          0.00160188     0.00700318    -0.00470519
    903      3      Pt          0.01401249     0.00031364     0.00345803
    904      3      Pt         -0.00494316    -0.00450283    -0.00695372
    905      3      Pt          0.01271638     0.02073785    -0.01410345
    906      3      Pt         -0.01131353     0.00895946     0.00484876
 SUM OF ATOMIC FORCES           0.01004191    -0.03217579     0.00851031     0.03476416

 STRESS| Analytical stress tensor [GPa]
 STRESS|                        x                   y                   z
 STRESS|      x       -2.31878647813E+00  -1.78357669411E-01  -4.87247387600E-02
 STRESS|      y       -1.78357669411E-01  -2.24801899564E+00   9.10047447239E-02
 STRESS|      z       -4.87247387600E-02   9.10047447239E-02  -3.49494007019E-01
 STRESS| 1/3 Trace                                            -1.63876649360E+00
 STRESS| Determinant                                          -1.78455848948E+00

 STRESS| Eigenvectors and eigenvalues of the analytical stress tensor [GPa]
 STRESS|                        1                   2                   3
 STRESS| Eigenvalues  -2.46542975448E+00  -2.10739743573E+00  -3.43472290579E-01
 STRESS|      x           0.771111863377     -0.636030731880     -0.029178798174
 STRESS|      y           0.636626948869      0.769520963898      0.050434255179
 STRESS|      z          -0.009624039337     -0.057466461743      0.998301048603

 -------------------------------------------------------------------------------
 -                                                                             -
 -                                DBCSR STATISTICS                             -
 -                                                                             -
 -------------------------------------------------------------------------------
 COUNTER                                    TOTAL       BLAS       SMM       ACC
 flops     5 x     5 x   288          79052342400       0.0%    100.0%      0.0%
 flops     5 x     5 x   292          80150291600       0.0%    100.0%      0.0%
 flops     5 x    13 x   288          89105178240       0.0%    100.0%      0.0%
 flops    13 x     5 x   288          89157107520       0.0%    100.0%      0.0%
 flops     5 x    13 x   292          90342750160       0.0%    100.0%      0.0%
 flops    13 x     5 x   292          90395400680       0.0%    100.0%      0.0%
 flops    20 x    13 x   288          90717719040       0.0%    100.0%      0.0%
 flops    13 x    20 x   288          90903571200       0.0%    100.0%      0.0%
 flops    20 x    13 x   292          91977687360       0.0%    100.0%      0.0%
 flops    13 x    20 x   292          92166120800       0.0%    100.0%      0.0%
 flops    13 x    13 x   288          95335598592       0.0%    100.0%      0.0%
 flops    13 x    13 x   292          96659704128       0.0%    100.0%      0.0%
 flops    20 x     5 x   288          99018835200       0.0%    100.0%      0.0%
 flops     5 x    20 x   288          99136569600       0.0%    100.0%      0.0%
 flops    20 x     5 x   292         100394096800       0.0%    100.0%      0.0%
 flops     5 x    20 x   292         100513466400       0.0%    100.0%      0.0%
 flops    20 x    20 x   288         394174771200       0.0%    100.0%      0.0%
 flops    20 x    20 x   292         399649420800       0.0%    100.0%      0.0%
 flops     5 x     5 x   320         527015616000       0.0%    100.0%      0.0%
 flops     5 x    13 x   320         594034521600       0.0%    100.0%      0.0%
 flops    13 x     5 x   320         594380716800       0.0%    100.0%      0.0%
 flops    20 x    13 x   320         604784793600       0.0%    100.0%      0.0%
 flops    13 x    20 x   320         606023808000       0.0%    100.0%      0.0%
 flops    13 x    13 x   320         635570657280       0.0%    100.0%      0.0%
 flops    20 x     5 x   320         660125568000       0.0%    100.0%      0.0%
 flops     5 x    20 x   320         660910464000       0.0%    100.0%      0.0%
 flops    20 x    20 x   320        2627831808000       0.0%    100.0%      0.0%
 flops inhomo. stacks                           0       0.0%      0.0%      0.0%
 flops total                         9.779529E+12       0.0%    100.0%      0.0%
 flops max/rank                    160.543060E+09       0.0%    100.0%      0.0%
 matmuls inhomo. stacks                         0       0.0%      0.0%      0.0%
 matmuls total                          140753344       0.0%    100.0%      0.0%
 number of processed stacks                373760       0.0%    100.0%      0.0%
 average stack size                                     0.0     376.6       0.0
 marketing flops                    27.797416E+12
 -------------------------------------------------------------------------------
 # multiplications                             73
 max memory usage/rank               1.845432E+09
 # max total images/rank                        1
 # max 3D layers                                1
 # MPI messages exchanged                   65408
 MPI messages size (bytes):
  total size                       196.428333E+09
  min size                           2.762496E+06
  max size                           3.077120E+06
  average size                       3.003124E+06
 MPI breakdown and total messages size (bytes):
             size <=      128                   0                        0
       128 < size <=     8192                   0                        0
      8192 < size <=    32768                   0                        0
     32768 < size <=   131072                   0                        0
    131072 < size <=  4194304               65408             196428400000
   4194304 < size <= 16777216                   0                        0
  16777216 < size                               0                        0
 -------------------------------------------------------------------------------
 -                                                                             -
 -                      DBCSR MESSAGE PASSING PERFORMANCE                      -
 -                                                                             -
 -------------------------------------------------------------------------------
 ROUTINE             CALLS      AVE VOLUME [Bytes]
 MP_Bcast               28                     12.
 MP_Allreduce          585                     10.
 MP_Alltoall          2044                1972732.
 MP_ISend             2336                1329597.
 MP_IRecv             2336                1310413.
 -------------------------------------------------------------------------------

 -------------------------------------------------------------------------------
 -                                                                             -
 -                                DBM STATISTICS                               -
 -                                                                             -
 -------------------------------------------------------------------------------
    M  x    N  x    K                                          COUNT     PERCENT
 -------------------------------------------------------------------------------

 -------------------------------------------------------------------------------
 -                                                                             -
 -                                GRID STATISTICS                              -
 -                                                                             -
 -------------------------------------------------------------------------------
 LP    KERNEL             BACKEND                              COUNT     PERCENT
 3     collocate general  REF                               50673680      18.87%
 3     integrate general  REF                               50037504      18.63%
 2     collocate general  REF                               47749738      17.78%
 2     integrate general  REF                               47095632      17.54%
 4     collocate general  REF                               35733865      13.31%
 4     integrate general  REF                               35244360      13.12%
 6     integrate general  REF                                 694160       0.26%
 5     integrate general  REF                                 654106       0.24%
 7     integrate general  REF                                 489505       0.18%
 0     collocate general  REF                                 115968       0.04%
 0     integrate general  REF                                  57984       0.02%
 -------------------------------------------------------------------------------

 MEMORY| Estimated peak process memory [MiB]                                2077

 -------------------------------------------------------------------------------
 ----                             MULTIGRID INFO                            ----
 -------------------------------------------------------------------------------
 count for grid        1:         731084          cutoff [a.u.]          200.00
 count for grid        2:         807220          cutoff [a.u.]           66.67
 count for grid        3:         741709          cutoff [a.u.]           22.22
 count for grid        4:         830888          cutoff [a.u.]            7.41
 total gridlevel count  :        3110901

 -------------------------------------------------------------------------------
 -                                                                             -
 -                         MESSAGE PASSING PERFORMANCE                         -
 -                                                                             -
 -------------------------------------------------------------------------------

 ROUTINE             CALLS      AVE VOLUME [Bytes]
 MP_Group                4
 MP_Bcast              246                2399859.
 MP_Allreduce         1277                   1958.
 MP_Sync                76
 MP_Alltoall          1622               14293694.
 MP_SendRecv           252                  13614.
 MP_ISendRecv        18396                 113680.
 MP_Wait             41188
 MP_ISend            21312                 340325.
 MP_IRecv            21312                 340325.
 MP_Recv               308                2460160.
 MP_Write_All            3                1540656.
 -------------------------------------------------------------------------------


 -------------------------------------------------------------------------------
 -                                                                             -
 -                           R E F E R E N C E S                               -
 -                                                                             -
 -------------------------------------------------------------------------------
 
 CP2K version 2022.1, the CP2K developers group (2022).
 CP2K is freely available from https://www.cp2k.org/ .

 Kuehne,Thomas D.; Iannuzzi,Marcella; Del Ben,Mauro;
 Rybkin,Vladimir V.; Seewald,Patrick; Stein,Frederick; Laino,Teodoro;
 Khaliullin,Rustam Z.; Schuett,Ole; Schiffmann,Florian; Golze,Dorothea;
 Wilhelm,Jan; Chulkov,Sergey; Bani-Hashemian,Mohammad Hossein;
 Weber,Valery; Borstnik,Urban; Taillefumier,Mathieu;
 Jakobovits,Alice Shoshana; Lazzaro,Alfio; Pabst,Hans; Mueller,Tiziano;
 Schade,Robert; Guidon,Manuel; Andermatt,Samuel; Holmberg,Nico;
 Schenter,Gregory K.; Hehn,Anna; Bussy,Augustin; Belleflamme,Fabian;
 Tabacchi,Gloria; Gloess,Andreas; Lass,Michael; Bethune,Iain;
 Mundy,Christopher J.; Plessl,Christian; Watkins,Matt;
 VandeVondele,Joost; Krack,Matthias; Hutter,Juerg. 
 The Journal of Chemical Physics, 152 (19), (2020). 
 CP2K: An electronic structure and molecular dynamics software package -
 Quickstep: Efficient and accurate electronic structure calculations.
 https://doi.org/10.1063/5.0007045

 Goerigk, Lars; Hansen, Andreas; Bauer, Christoph; Ehrlich, Stephan;
 Najibi, Asim; Grimme, Stefan. , 19 (48), (2017). 
 A look at the density functional theory zoo with the advanced GMTKN55 database
 for general main group thermochemistry, kinetics and noncovalent interactions.
 https://doi.org/10.1039/C7CP04913G

 Schuett, Ole; Messmer, Peter; Hutter, Juerg; VandeVondele, Joost. 
 Electronic Structure Calculations on Graphics Processing Units, John
 Wiley & Sons, Ltd, 173-190 (2016). 
 GPU-Accelerated Sparse Matrix-Matrix Multiplication for
 Linear Scaling Density Functional Theory.
 https://doi.org/10.1002/9781118670712.ch8

 Heinecke, A; Henry, G; Hutchinson, M; Pabst, H. 
 Proceedings of Intl. Supercomputing Conference, 981-991 (2016). 
 LIBXSMM: Accelerating Small Matrix Multiplications
 by Runtime Code Generation.
 https://doi.org/10.1109/SC.2016.83

 Borstnik, U; VandeVondele, J; Weber, V; Hutter, J. 
 PARALLEL COMPUTING, 40 (5-6), 47-58 (2014). 
 Sparse matrix multiplication: The distributed block-compressed sparse
 row library.
 https://doi.org/10.1016/j.parco.2014.03.012

 Hutter, J; Iannuzzi, M; Schiffmann, F; VandeVondele, J. 
 WIREs Comput Mol Sci., 4 (1), 15-25 (2014). 
 CP2K: atomistic simulations of condensed matter systems.
 https://doi.org/10.1002/wcms.1159

 Marek, A; Blum, V; Johanni, R; Havu, V; Lang, B; Auckenthaler, T;
 Heinecke, A; Bungartz, H; Lederer, H. 
 Journal of Physics: Condensed Matter, 26 (21), (2014). 
 The ELPA library: scalable parallel eigenvalue solutions for
 electronic structure
 theory and computational science.
 https://doi.org/10.1088/0953-8984/26/21/213201

 Grimme, S; Ehrlich, S; Goerigk, L. 
 JOURNAL OF COMPUTATIONAL CHEMISTRY, 32, 1456 (2011). 
 Effect of the damping function in dispersion corrected density functional theory.
 https://doi.org/10.1002/jcc.21759

 Grimme, S; Antony, J; Ehrlich, S; Krieg, H. 
 JOURNAL OF CHEMICAL PHYSICS, 132 (15), 154104 (2010). 
 A consistent and accurate ab initio parametrization of density
 functional dispersion correction (DFT-D) for the 94 elements H-Pu.
 https://doi.org/10.1063/1.3382344

 VandeVondele, J; Hutter, J. 
 JOURNAL OF CHEMICAL PHYSICS, 127 (11), 114105 (2007). 
 Gaussian basis sets for accurate calculations on molecular systems in
 gas and condensed phases.
 https://doi.org/10.1063/1.2770708

 Krack, M. 
 THEORETICAL CHEMISTRY ACCOUNTS, 114 (1-3), 145-152 (2005). 
 Pseudopotentials for H to Kr optimized for gradient-corrected
 exchange-correlation functionals.
 https://doi.org/10.1007/s00214-005-0655-y

 VandeVondele, J; Krack, M; Mohamed, F; Parrinello, M; Chassaing, T;
 Hutter, J. COMPUTER PHYSICS COMMUNICATIONS, 167 (2), 103-128 (2005). 
 QUICKSTEP: Fast and accurate density functional calculations using a
 mixed Gaussian and plane waves approach.
 https://doi.org/10.1016/j.cpc.2004.12.014

 Frigo, M; Johnson, SG. 
 PROCEEDINGS OF THE IEEE, 93 (2), 216-231 (2005). 
 The design and implementation of FFTW3.
 https://doi.org/10.1109/JPROC.2004.840301

 Hartwigsen, C; Goedecker, S; Hutter, J. 
 PHYSICAL REVIEW B, 58 (7), 3641-3662 (1998). 
 Relativistic separable dual-space Gaussian pseudopotentials from H to Rn.
 https://doi.org/10.1103/PhysRevB.58.3641

 Lippert, G; Hutter, J; Parrinello, M. 
 MOLECULAR PHYSICS, 92 (3), 477-487 (1997). 
 A hybrid Gaussian and plane wave density functional scheme.
 https://doi.org/10.1080/002689797170220

 Perdew, JP; Burke, K; Ernzerhof, M. 
 PHYSICAL REVIEW LETTERS, 77 (18), 3865-3868 (1996). 
 Generalized gradient approximation made simple.
 https://doi.org/10.1103/PhysRevLett.77.3865

 Goedecker, S; Teter, M; Hutter, J. 
 PHYSICAL REVIEW B, 54 (3), 1703-1710 (1996). 
 Separable dual-space Gaussian pseudopotentials.
 https://doi.org/10.1103/PhysRevB.54.1703


 -------------------------------------------------------------------------------
 -                                                                             -
 -                                T I M I N G                                  -
 -                                                                             -
 -------------------------------------------------------------------------------
 SUBROUTINE                       CALLS  ASD         SELF TIME        TOTAL TIME
                                MAXIMUM       AVERAGE  MAXIMUM  AVERAGE  MAXIMUM
 CP2K                                 1  1.0    0.025    0.039  864.232  864.234
 qs_forces                            1  2.0    0.002    0.003  863.836  863.839
 qs_energies                          1  3.0    0.000    0.000  851.394  851.405
 scf_env_do_scf                       1  4.0    0.000    0.001  843.152  843.391
 scf_env_do_scf_inner_loop           72  5.0    0.004    0.012  843.152  843.391
 qs_scf_new_mos                      72  6.0    0.004    0.013  343.172  343.727
 eigensolver                         72  7.0    0.006    0.011  318.773  319.159
 rebuild_ks_matrix                   73  7.0    0.000    0.000  267.365  267.404
 qs_ks_build_kohn_sham_matrix        73  8.0    0.011    0.018  267.365  267.403
 qs_ks_update_qs_env                 72  6.0    0.001    0.001  259.377  259.415
 qs_rho_update_rho_low               73  6.0    0.001    0.001  227.924  227.958
 calculate_rho_elec                  73  7.0    0.171    0.204  227.923  227.957
 sum_up_and_integrate                73  9.0    0.308    0.390  224.425  224.472
 integrate_v_rspace                  73 10.0    0.003    0.004  224.116  224.198
 grid_collocate_task_list            73  8.0  200.285  205.964  200.285  205.964
 grid_integrate_task_list            73 11.0  195.601  200.850  195.601  200.850
 cp_fm_diag_elpa                     72  8.0    0.001    0.001  187.115  187.600
 cp_fm_diag_elpa_base                72  9.0  184.248  184.888  186.824  186.897
 cp_fm_triangular_multiply          216  8.0  129.006  130.606  129.006  130.606
 pw_transfer                       1460 10.9    0.103    0.135   40.465   41.247
 fft_wrap_pw1pw2                   1314 12.0    0.013    0.015   40.002   40.790
 rs_pw_transfer                     588 10.5    0.006    0.007   35.445   40.149
 fft_wrap_pw1pw2_200                876 13.3    3.601    3.891   38.530   39.233
 qs_vxc_create                       73  9.0    0.002    0.004   37.815   38.037
 xc_vxc_pw_create                    73 10.0    0.674    0.711   37.813   38.035
 fft3d_ps                          1314 14.0   14.550   16.429   29.539   30.639
 density_rs2pw                       73  8.0    0.005    0.005   25.286   29.902
 xc_pw_derive                       438 12.0    0.007    0.009   24.079   25.231
 xc_rho_set_and_dset_create          73 11.0    0.356    0.386   20.342   21.681
 potential_pw2rs                     73 11.0    0.027    0.033   21.031   21.111
 mp_waitany                       21312 12.4   15.311   20.358   15.311   20.358
 rs_pw_transfer_RS2PW_200            75 10.0    4.733    5.441   14.115   18.706
 calculate_dm_sparse                 72  7.0    0.022    0.028   17.792   18.456
 cp_dbcsr_plus_fm_fm_t_native        73  8.0    0.004    0.008   17.753   18.434
 -------------------------------------------------------------------------------

 The number of warnings for this run is : 1
 
 -------------------------------------------------------------------------------
  **** **** ******  **  PROGRAM ENDED AT                 2023-11-26 16:37:46.680
 ***** ** ***  *** **   PROGRAM RAN ON                                     cu054
 **    ****   ******    PROGRAM RAN BY                                     jxzhu
 ***** **    ** ** **   PROGRAM PROCESS ID                                 33925
  **** **  *******  **  PROGRAM STOPPED IN /public/home/jxzhu/tmp_calc/af2075565
                                           805657d94fa4669dad6f4b174b0a4fb/calc/
                                           003100.000/pbc
