 DBCSR| CPU Multiplication driver                                           XSMM
 DBCSR| Multrec recursion limit                                              512
 DBCSR| Multiplication stack size                                           1000
 DBCSR| Maximum elements for images                                    UNLIMITED
 DBCSR| Multiplicative factor virtual images                                   1
 DBCSR| Use multiplication densification                                       T
 DBCSR| Multiplication size stacks                                             3
 DBCSR| Use memory pool for CPU allocation                                     F
 DBCSR| Number of 3D layers                                               SINGLE
 DBCSR| Use MPI memory allocation                                              F
 DBCSR| Use RMA algorithm                                                      F
 DBCSR| Use Communication thread                                               T
 DBCSR| Communication thread load                                             87
 DBCSR| MPI: My node id                                                        0
 DBCSR| MPI: Number of nodes                                                  64
 DBCSR| OMP: Current number of threads                                         1
 DBCSR| OMP: Max number of threads                                             1
 DBCSR| Split modifier for TAS multiplication algorithm                  1.0E+00


  **** **** ******  **  PROGRAM STARTED AT               2023-11-26 16:37:48.388
 ***** ** ***  *** **   PROGRAM STARTED ON                                 cu054
 **    ****   ******    PROGRAM STARTED BY                                 jxzhu
 ***** **    ** ** **   PROGRAM PROCESS ID                                 36501
  **** **  *******  **  PROGRAM STARTED IN /public/home/jxzhu/tmp_calc/af2075565
                                           805657d94fa4669dad6f4b174b0a4fb/calc/
                                           000200.000/pbc

 CP2K| version string:                                       CP2K version 2022.1
 CP2K| source code revision number:                                  git:2caeb6f
 CP2K| cp2kflags: omp libint fftw3 libxc elpa parallel mpi3 scalapack cosma xsmm
 CP2K|             plumed2 spglib mkl sirius libvori libbqb
 CP2K| is freely available from                            https://www.cp2k.org/
 CP2K| Program compiled at                           Mon Jul 3 17:37:06 CST 2023
 CP2K| Program compiled on                                                 mu003
 CP2K| Program compiled for                                                local
 CP2K| Data directory path                             /public/home/jxzhu/basis/
 CP2K| Input file name                                                 input.inp
 
 GLOBAL| Force Environment number                                              1
 GLOBAL| Basis set file name                                        BASIS_MOLOPT
 GLOBAL| Potential file name                                      GTH_POTENTIALS
 GLOBAL| MM Potential file name                                     MM_POTENTIAL
 GLOBAL| Coordinate file name                                          coord.xyz
 GLOBAL| Method name                                                        CP2K
 GLOBAL| Project name                                                       cp2k
 GLOBAL| Run type                                                   ENERGY_FORCE
 GLOBAL| FFT library                                                       FFTW3
 GLOBAL| Diagonalization library                                            ELPA
 GLOBAL| Minimum number of eigenvectors for ELPA usage                        16
 GLOBAL| Orthonormality check for eigenvectors                          DISABLED
 GLOBAL| Matrix multiplication library                                     COSMA
 GLOBAL| All-to-all communication in single precision                          F
 GLOBAL| FFTs using library dependent lengths                                  F
 GLOBAL| Grid backend                                                       AUTO
 GLOBAL| Global print level                                               MEDIUM
 GLOBAL| MPI I/O enabled                                                       T
 GLOBAL| Total number of message passing processes                            64
 GLOBAL| Number of threads for this process                                    1
 GLOBAL| This output is from process                                           0
 GLOBAL| Stack size for threads created by OpenMP (OMP_STACKSIZE)        default
 GLOBAL| CPU model name                 Intel(R) Xeon(R) Gold 6338 CPU @ 2.00GHz
 GLOBAL| CPUID                                                              1003

 MEMORY| system memory details [Kb]
 MEMORY|                        rank 0           min           max       average
 MEMORY| MemTotal            263619172     263619172     263619172     263619172
 MEMORY| MemFree             210280584     210280584     210283064     210280777
 MEMORY| Buffers                  3320          3320          3320          3320
 MEMORY| Cached                4460180       4460180       4460180       4460180
 MEMORY| Slab                  1836408       1836408       1836408       1836408
 MEMORY| SReclaimable           243112        243112        243112        243112
 MEMORY| MemLikelyFree       214987196     214987196     214989676     214987389


 *** Fundamental physical constants (SI units) ***

 *** Literature: B. J. Mohr and B. N. Taylor,
 ***             CODATA recommended values of the fundamental physical
 ***             constants: 2006, Web Version 5.1
 ***             http://physics.nist.gov/constants

 Speed of light in vacuum [m/s]                             2.99792458000000E+08
 Magnetic constant or permeability of vacuum [N/A**2]       1.25663706143592E-06
 Electric constant or permittivity of vacuum [F/m]          8.85418781762039E-12
 Planck constant (h) [J*s]                                  6.62606896000000E-34
 Planck constant (h-bar) [J*s]                              1.05457162825177E-34
 Elementary charge [C]                                      1.60217648700000E-19
 Electron mass [kg]                                         9.10938215000000E-31
 Electron g factor [ ]                                     -2.00231930436220E+00
 Proton mass [kg]                                           1.67262163700000E-27
 Fine-structure constant                                    7.29735253760000E-03
 Rydberg constant [1/m]                                     1.09737315685270E+07
 Avogadro constant [1/mol]                                  6.02214179000000E+23
 Boltzmann constant [J/K]                                   1.38065040000000E-23
 Atomic mass unit [kg]                                      1.66053878200000E-27
 Bohr radius [m]                                            5.29177208590000E-11

 *** Conversion factors ***

 [u] -> [a.u.]                                              1.82288848426455E+03
 [Angstrom] -> [Bohr] = [a.u.]                              1.88972613288564E+00
 [a.u.] = [Bohr] -> [Angstrom]                              5.29177208590000E-01
 [a.u.] -> [s]                                              2.41888432650478E-17
 [a.u.] -> [fs]                                             2.41888432650478E-02
 [a.u.] -> [J]                                              4.35974393937059E-18
 [a.u.] -> [N]                                              8.23872205491840E-08
 [a.u.] -> [K]                                              3.15774647902944E+05
 [a.u.] -> [kJ/mol]                                         2.62549961709828E+03
 [a.u.] -> [kcal/mol]                                       6.27509468713739E+02
 [a.u.] -> [Pa]                                             2.94210107994716E+13
 [a.u.] -> [bar]                                            2.94210107994716E+08
 [a.u.] -> [atm]                                            2.90362800883016E+08
 [a.u.] -> [eV]                                             2.72113838565563E+01
 [a.u.] -> [Hz]                                             6.57968392072181E+15
 [a.u.] -> [1/cm] (wave numbers)                            2.19474631370540E+05
 [a.u./Bohr**2] -> [1/cm]                                   5.14048714338585E+03
 

 CELL_TOP| Volume [angstrom^3]:                                     10221.806009
 CELL_TOP| Vector a [angstrom    16.869     0.000     0.000   |a| =    16.869000
 CELL_TOP| Vector b [angstrom    -8.434    14.609     0.000   |b| =    16.869015
 CELL_TOP| Vector c [angstrom     0.000     0.000    41.478   |c| =    41.478000
 CELL_TOP| Angle (b,c), alpha [degree]:                                90.000000
 CELL_TOP| Angle (a,c), beta  [degree]:                                90.000000
 CELL_TOP| Angle (a,b), gamma [degree]:                               119.999970
 CELL_TOP| Numerically orthorhombic:                                          NO
 
 GENERATE|  Preliminary Number of Bonds generated:                             0
 GENERATE|  Achieved consistency in connectivity generation.

 CELL| Volume [angstrom^3]:                                         10221.806009
 CELL| Vector a [angstrom]:      16.869     0.000     0.000   |a| =    16.869000
 CELL| Vector b [angstrom]:      -8.434    14.609     0.000   |b| =    16.869015
 CELL| Vector c [angstrom]:       0.000     0.000    41.478   |c| =    41.478000
 CELL| Angle (b,c), alpha [degree]:                                    90.000000
 CELL| Angle (a,c), beta  [degree]:                                    90.000000
 CELL| Angle (a,b), gamma [degree]:                                   119.999970
 CELL| Numerically orthorhombic:                                              NO

 CELL_REF| Volume [angstrom^3]:                                     10221.806009
 CELL_REF| Vector a [angstrom    16.869     0.000     0.000   |a| =    16.869000
 CELL_REF| Vector b [angstrom    -8.434    14.609     0.000   |b| =    16.869015
 CELL_REF| Vector c [angstrom     0.000     0.000    41.478   |c| =    41.478000
 CELL_REF| Angle (b,c), alpha [degree]:                                90.000000
 CELL_REF| Angle (a,c), beta  [degree]:                                90.000000
 CELL_REF| Angle (a,b), gamma [degree]:                               119.999970
 CELL_REF| Numerically orthorhombic:                                          NO

 *******************************************************************************
 *******************************************************************************
 **                                                                           **
 **     #####                         ##              ##                      **
 **    ##   ##            ##          ##              ##                      **
 **   ##     ##                       ##            ######                    **
 **   ##     ##  ##   ##  ##   #####  ##  ##   ####   ##    #####    #####    **
 **   ##     ##  ##   ##  ##  ##      ## ##   ##      ##   ##   ##  ##   ##   **
 **   ##  ## ##  ##   ##  ##  ##      ####     ###    ##   ######   ######    **
 **    ##  ###   ##   ##  ##  ##      ## ##      ##   ##   ##       ##        **
 **     #######   #####   ##   #####  ##  ##  ####    ##    #####   ##        **
 **           ##                                                    ##        **
 **                                                                           **
 **                                                ... make the atoms dance   **
 **                                                                           **
 **            Copyright (C) by CP2K developers group (2000-2022)             **
 **                      J. Chem. Phys. 152, 194103 (2020)                    **
 **                                                                           **
 *******************************************************************************

 DFT| Spin restricted Kohn-Sham (RKS) calculation                            RKS
 DFT| Multiplicity                                                             1
 DFT| Number of spin states                                                    1
 DFT| Charge                                                                   0
 DFT| Self-interaction correction (SIC)                                       NO
 DFT| Cutoffs: density                                              1.000000E-10
 DFT|          gradient                                             1.000000E-10
 DFT|          tau                                                  1.000000E-10
 DFT|          cutoff_smoothing_range                               0.000000E+00
 DFT| XC density smoothing                                                  NONE
 DFT| XC derivatives                                                          PW

 FUNCTIONAL| PBE:
 FUNCTIONAL| J.P.Perdew, K.Burke, M.Ernzerhof, Phys. Rev. Letter, vol. 77, n 18,
 FUNCTIONAL|  pp. 3865-3868, (1996){spin unpolarized}                           

 vdW POTENTIAL|                                                   Pair Potential
 vdW POTENTIAL|          DFT-D3 (Version 3.1)
 vdW POTENTIAL|          Potential Form: S. Grimme et al, JCP 132: 154104 (2010)
 vdW POTENTIAL|          Zero Damping
 vdW POTENTIAL|          Cutoff Radius [Bohr]:                             20.00
 vdW POTENTIAL|          s6 Scaling Factor:                               1.0000
 vdW POTENTIAL|          sr6 Scaling Factor:                              1.2170
 vdW POTENTIAL|          s8 Scaling Factor:                               0.7220
 vdW POTENTIAL|          Cutoff for CN calculation:                   0.1000E-05

 QS| Method:                                                                 GPW
 QS| Density plane wave grid type                        NON-SPHERICAL FULLSPACE
 QS| Number of grid levels:                                                    4
 QS| Density cutoff [a.u.]:                                                200.0
 QS| Multi grid cutoff [a.u.]: 1) grid level                               200.0
 QS|                           2) grid level                                66.7
 QS|                           3) grid level                                22.2
 QS|                           4) grid level                                 7.4
 QS| Grid level progression factor:                                          3.0
 QS| Relative density cutoff [a.u.]:                                        20.0
 QS| Interaction thresholds: eps_pgf_orb:                                3.2E-07
 QS|                         eps_filter_matrix:                          0.0E+00
 QS|                         eps_core_charge:                            1.0E-15
 QS|                         eps_rho_gspace:                             1.0E-13
 QS|                         eps_rho_rspace:                             1.0E-13
 QS|                         eps_gvg_rspace:                             3.2E-07
 QS|                         eps_ppl:                                    1.0E-02
 QS|                         eps_ppnl:                                   3.2E-09


 ATOMIC KIND INFORMATION

  1. Atomic kind: O                                     Number of atoms:     230

     Orbital Basis Set                                        DZVP-MOLOPT-SR-GTH

       Number of orbital shell sets:                                           1
       Number of orbital shells:                                               5
       Number of primitive Cartesian functions:                                5
       Number of Cartesian basis functions:                                   14
       Number of spherical basis functions:                                   13
       Norm type:                                                              2

       Normalised Cartesian orbitals:

                        Set   Shell   Orbital            Exponent    Coefficient

                          1       1    2s               10.389228       0.396646
                                                         3.849621       0.208811
                                                         1.388401      -0.301641
                                                         0.496955      -0.274061
                                                         0.162492      -0.033677

                          1       2    3s               10.389228       0.303673
                                                         3.849621       0.240943
                                                         1.388401      -0.313066
                                                         0.496955      -0.043055
                                                         0.162492       0.213991

                          1       3    3px              10.389228      -1.530415
                                                         3.849621      -1.371928
                                                         1.388401      -0.761951
                                                         0.496955      -0.253695
                                                         0.162492      -0.035541
                          1       3    3py              10.389228      -1.530415
                                                         3.849621      -1.371928
                                                         1.388401      -0.761951
                                                         0.496955      -0.253695
                                                         0.162492      -0.035541
                          1       3    3pz              10.389228      -1.530415
                                                         3.849621      -1.371928
                                                         1.388401      -0.761951
                                                         0.496955      -0.253695
                                                         0.162492      -0.035541

                          1       4    4px              10.389228      -0.565392
                                                         3.849621      -0.038231
                                                         1.388401      -0.382373
                                                         0.496955       0.179070
                                                         0.162492       0.122714
                          1       4    4py              10.389228      -0.565392
                                                         3.849621      -0.038231
                                                         1.388401      -0.382373
                                                         0.496955       0.179070
                                                         0.162492       0.122714
                          1       4    4pz              10.389228      -0.565392
                                                         3.849621      -0.038231
                                                         1.388401      -0.382373
                                                         0.496955       0.179070
                                                         0.162492       0.122714

                          1       5    4dx2             10.389228       1.867377
                                                         3.849621       0.670994
                                                         1.388401       1.353441
                                                         0.496955       0.273538
                                                         0.162492       0.006620
                          1       5    4dxy             10.389228       3.234392
                                                         3.849621       1.162195
                                                         1.388401       2.344229
                                                         0.496955       0.473781
                                                         0.162492       0.011466
                          1       5    4dxz             10.389228       3.234392
                                                         3.849621       1.162195
                                                         1.388401       2.344229
                                                         0.496955       0.473781
                                                         0.162492       0.011466
                          1       5    4dy2             10.389228       1.867377
                                                         3.849621       0.670994
                                                         1.388401       1.353441
                                                         0.496955       0.273538
                                                         0.162492       0.006620
                          1       5    4dyz             10.389228       3.234392
                                                         3.849621       1.162195
                                                         1.388401       2.344229
                                                         0.496955       0.473781
                                                         0.162492       0.011466
                          1       5    4dz2             10.389228       1.867377
                                                         3.849621       0.670994
                                                         1.388401       1.353441
                                                         0.496955       0.273538
                                                         0.162492       0.006620

       Atomic covalent radius [Angstrom]:                                  0.730

       Atomic van der Waals radius [Angstrom]:                             1.520

     GTH Potential information for                                    GTH-PBE-q6

       Description:                       Goedecker-Teter-Hutter pseudopotential
                                           Goedecker et al., PRB 54, 1703 (1996)
                                          Hartwigsen et al., PRB 58, 3641 (1998)
                                                      Krack, TCA 114, 145 (2005)

       Gaussian exponent of the core charge distribution:               8.360253
       Electronic configuration (s p d ...):                               2   4

       Parameters of the local part of the GTH pseudopotential:

                          rloc        C1          C2          C3          C4
                        0.244554  -16.667215    2.487311

       Parameters of the non-local part of the GTH pseudopotential:

                   l      r(l)      h(i,j,l)

                   0    0.220956   18.337458
                   1    0.211332

  2. Atomic kind: H                                     Number of atoms:     460

     Orbital Basis Set                                        DZVP-MOLOPT-SR-GTH

       Number of orbital shell sets:                                           1
       Number of orbital shells:                                               3
       Number of primitive Cartesian functions:                                5
       Number of Cartesian basis functions:                                    5
       Number of spherical basis functions:                                    5
       Norm type:                                                              2

       Normalised Cartesian orbitals:

                        Set   Shell   Orbital            Exponent    Coefficient

                          1       1    2s               10.068468      -0.133023
                                                         2.680223      -0.177618
                                                         0.791502      -0.258419
                                                         0.239116      -0.107525
                                                         0.082193      -0.014019

                          1       2    3s               10.068468       0.344673
                                                         2.680223       1.819821
                                                         0.791502      -0.999069
                                                         0.239116       0.017430
                                                         0.082193       0.082660

                          1       3    3px              10.068468       0.155326
                                                         2.680223       0.367157
                                                         0.791502       0.311480
                                                         0.239116       0.080105
                                                         0.082193       0.033440
                          1       3    3py              10.068468       0.155326
                                                         2.680223       0.367157
                                                         0.791502       0.311480
                                                         0.239116       0.080105
                                                         0.082193       0.033440
                          1       3    3pz              10.068468       0.155326
                                                         2.680223       0.367157
                                                         0.791502       0.311480
                                                         0.239116       0.080105
                                                         0.082193       0.033440

       Atomic covalent radius [Angstrom]:                                  0.320

       Atomic van der Waals radius [Angstrom]:                             1.090

     GTH Potential information for                                    GTH-PBE-q1

       Description:                       Goedecker-Teter-Hutter pseudopotential
                                           Goedecker et al., PRB 54, 1703 (1996)
                                          Hartwigsen et al., PRB 58, 3641 (1998)
                                                      Krack, TCA 114, 145 (2005)

       Gaussian exponent of the core charge distribution:              12.500000
       Electronic configuration (s p d ...):                                   1

       Parameters of the local part of the GTH pseudopotential:

                          rloc        C1          C2          C3          C4
                        0.200000   -4.178900    0.724463

  3. Atomic kind: Pt                                    Number of atoms:     216

     Orbital Basis Set                      DZVP-A5-Q10-323-MOL-T1-DERIVED_SET-1

       Number of orbital shell sets:                                           1
       Number of orbital shells:                                               6
       Number of primitive Cartesian functions:                                5
       Number of Cartesian basis functions:                                   23
       Number of spherical basis functions:                                   20
       Norm type:                                                              2

       Normalised Cartesian orbitals:

                        Set   Shell   Orbital            Exponent    Coefficient

                          1       1    2s                2.521825       0.177473
                                                         1.453920      -0.063399
                                                         0.614053      -0.407089
                                                         0.232656       0.262254
                                                         0.074788       0.047371

                          1       2    3s                2.521825      -0.049056
                                                         1.453920       0.044904
                                                         0.614053      -0.009756
                                                         0.232656      -0.144709
                                                         0.074788       0.144085

                          1       3    3px               2.521825      -0.317572
                                                         1.453920       0.534826
                                                         0.614053      -0.489458
                                                         0.232656       0.245631
                                                         0.074788       0.018221
                          1       3    3py               2.521825      -0.317572
                                                         1.453920       0.534826
                                                         0.614053      -0.489458
                                                         0.232656       0.245631
                                                         0.074788       0.018221
                          1       3    3pz               2.521825      -0.317572
                                                         1.453920       0.534826
                                                         0.614053      -0.489458
                                                         0.232656       0.245631
                                                         0.074788       0.018221

                          1       4    4dx2              2.521825       3.008522
                                                         1.453920      -1.224251
                                                         0.614053       0.225691
                                                         0.232656       0.125144
                                                         0.074788      -0.015348
                          1       4    4dxy              2.521825       5.210912
                                                         1.453920      -2.120465
                                                         0.614053       0.390909
                                                         0.232656       0.216756
                                                         0.074788      -0.026584
                          1       4    4dxz              2.521825       5.210912
                                                         1.453920      -2.120465
                                                         0.614053       0.390909
                                                         0.232656       0.216756
                                                         0.074788      -0.026584
                          1       4    4dy2              2.521825       3.008522
                                                         1.453920      -1.224251
                                                         0.614053       0.225691
                                                         0.232656       0.125144
                                                         0.074788      -0.015348
                          1       4    4dyz              2.521825       5.210912
                                                         1.453920      -2.120465
                                                         0.614053       0.390909
                                                         0.232656       0.216756
                                                         0.074788      -0.026584
                          1       4    4dz2              2.521825       3.008522
                                                         1.453920      -1.224251
                                                         0.614053       0.225691
                                                         0.232656       0.125144
                                                         0.074788      -0.015348

                          1       5    5dx2              2.521825       0.698026
                                                         1.453920      -1.511486
                                                         0.614053      -0.335394
                                                         0.232656      -0.025564
                                                         0.074788      -0.002699
                          1       5    5dxy              2.521825       1.209017
                                                         1.453920      -2.617970
                                                         0.614053      -0.580920
                                                         0.232656      -0.044277
                                                         0.074788      -0.004674
                          1       5    5dxz              2.521825       1.209017
                                                         1.453920      -2.617970
                                                         0.614053      -0.580920
                                                         0.232656      -0.044277
                                                         0.074788      -0.004674
                          1       5    5dy2              2.521825       0.698026
                                                         1.453920      -1.511486
                                                         0.614053      -0.335394
                                                         0.232656      -0.025564
                                                         0.074788      -0.002699
                          1       5    5dyz              2.521825       1.209017
                                                         1.453920      -2.617970
                                                         0.614053      -0.580920
                                                         0.232656      -0.044277
                                                         0.074788      -0.004674
                          1       5    5dz2              2.521825       0.698026
                                                         1.453920      -1.511486
                                                         0.614053      -0.335394
                                                         0.232656      -0.025564
                                                         0.074788      -0.002699

                          1       6    6dx2              2.521825       0.831079
                                                         1.453920      -0.709226
                                                         0.614053      -0.137351
                                                         0.232656       0.068642
                                                         0.074788       0.011745
                          1       6    6dxy              2.521825       1.439472
                                                         1.453920      -1.228415
                                                         0.614053      -0.237899
                                                         0.232656       0.118891
                                                         0.074788       0.020343
                          1       6    6dxz              2.521825       1.439472
                                                         1.453920      -1.228415
                                                         0.614053      -0.237899
                                                         0.232656       0.118891
                                                         0.074788       0.020343
                          1       6    6dy2              2.521825       0.831079
                                                         1.453920      -0.709226
                                                         0.614053      -0.137351
                                                         0.232656       0.068642
                                                         0.074788       0.011745
                          1       6    6dyz              2.521825       1.439472
                                                         1.453920      -1.228415
                                                         0.614053      -0.237899
                                                         0.232656       0.118891
                                                         0.074788       0.020343
                          1       6    6dz2              2.521825       0.831079
                                                         1.453920      -0.709226
                                                         0.614053      -0.137351
                                                         0.232656       0.068642
                                                         0.074788       0.011745

       Atomic covalent radius [Angstrom]:                                  1.300

       Atomic van der Waals radius [Angstrom]:                             1.750

     GTH Potential information for                                   GTH-PBE-q10

       Description:                       Goedecker-Teter-Hutter pseudopotential
                                           Goedecker et al., PRB 54, 1703 (1996)
                                          Hartwigsen et al., PRB 58, 3641 (1998)
                                                      Krack, TCA 114, 145 (2005)

       Gaussian exponent of the core charge distribution:               1.317676
       Electronic configuration (s p d ...):                           1   0   9

       Parameters of the local part of the GTH pseudopotential:

                          rloc        C1          C2          C3          C4
                        0.616000   11.313635

       Parameters of the non-local part of the GTH pseudopotential:

                   l      r(l)      h(i,j,l)

                   0    0.550904    4.733491   -1.784594
                                   -1.784594    2.303901
                   1    0.674138    2.534798   -1.778066
                                   -1.778066    2.103836
                   2    0.457392   -7.264011    2.558665
                                    2.558665   -2.901253


 MOLECULE KIND INFORMATION


 All atoms are their own molecule, skipping detailed information


 TOTAL NUMBERS AND MAXIMUM NUMBERS

  Total number of            - Atomic kinds:                                   3
                             - Atoms:                                        906
                             - Shell sets:                                   906
                             - Shells:                                      3826
                             - Primitive Cartesian functions:               4530
                             - Cartesian basis functions:                  10488
                             - Spherical basis functions:                   9610

  Maximum angular momentum of- Orbital basis functions:                        2
                             - Local part of the GTH pseudopotential:          2
                             - Non-local part of the GTH pseudopotential:      4


 MODULE QUICKSTEP:  ATOMIC COORDINATES IN angstrom

 Atom  Kind  Element       X           Y           Z          Z(eff)       Mass
    1   1 O    8       2.750000    3.490000   11.810001       6.0000     15.9994
    2   2 H    1       3.090000    3.210000   10.940001       1.0000      1.0079
    3   2 H    1       3.290000    3.010000   12.420001       1.0000      1.0079
    4   1 O    8       9.070001   -2.380000   11.170001       6.0000     15.9994
    5   2 H    1       9.600000   -2.090000   10.380001       1.0000      1.0079
    6   2 H    1       8.880001   -1.580000   11.740000       1.0000      1.0079
    7   1 O    8       4.790000    3.550000   21.500000       6.0000     15.9994
    8   2 H    1       5.020000    2.690000   21.110001       1.0000      1.0079
    9   2 H    1       4.450000    3.950000   20.640001       1.0000      1.0079
   10   1 O    8       5.580000    3.820000   23.940001       6.0000     15.9994
   11   2 H    1       5.260000    3.650000   22.990000       1.0000      1.0079
   12   2 H    1       4.890000    3.420000   24.560001       1.0000      1.0079
   13   1 O    8       3.950000    1.150000   31.990002       6.0000     15.9994
   14   2 H    1       4.490000    0.300000   32.099998       1.0000      1.0079
   15   2 H    1       3.040000    0.780000   32.099998       1.0000      1.0079
   16   1 O    8      -1.180000   12.070000    8.050001       6.0000     15.9994
   17   2 H    1      -0.900000   11.200000    8.450001       1.0000      1.0079
   18   2 H    1      -2.140000   12.210001    8.230000       1.0000      1.0079
   19   1 O    8       2.360000   12.670001    8.900001       6.0000     15.9994
   20   2 H    1       2.350000   12.350000    7.990000       1.0000      1.0079
   21   2 H    1       2.930000   13.440001    8.770000       1.0000      1.0079
   22   1 O    8       8.050001   14.540001   15.850000       6.0000     15.9994
   23   2 H    1       9.020000   14.570000   15.590000       1.0000      1.0079
   24   2 H    1      16.230000    0.830000   15.470000       1.0000      1.0079
   25   1 O    8       1.140000    0.920000   20.490000       6.0000     15.9994
   26   2 H    1       0.460000    0.790000   19.680000       1.0000      1.0079
   27   2 H    1       1.210000    1.890000   20.500002       1.0000      1.0079
   28   1 O    8       8.510000   12.650002   32.610001       6.0000     15.9994
   29   2 H    1       8.540000   12.880001   33.620003       1.0000      1.0079
   30   2 H    1       9.380000   12.110001   32.459999       1.0000      1.0079
   31   1 O    8       7.830000    2.700000   15.290001       6.0000     15.9994
   32   2 H    1       8.010000    3.700000   15.510001       1.0000      1.0079
   33   2 H    1       8.630000    2.100000   15.330001       1.0000      1.0079
   34   1 O    8       6.400001   12.780001   19.730000       6.0000     15.9994
   35   2 H    1       6.710000   12.090001   20.370003       1.0000      1.0079
   36   2 H    1       5.690000   12.470001   19.120001       1.0000      1.0079
   37   1 O    8       8.370000    2.600000   21.730001       6.0000     15.9994
   38   2 H    1       7.670000    2.070000   22.190001       1.0000      1.0079
   39   2 H    1       8.940001    2.820000   22.490002       1.0000      1.0079
   40   1 O    8       7.620000   19.410002    8.860001       6.0000     15.9994
   41   2 H    1       7.660000   20.190001    9.460000       1.0000      1.0079
   42   2 H    1       7.820001   19.800001    7.970000       1.0000      1.0079
   43   1 O    8      17.510000   -0.420000   25.430002       6.0000     15.9994
   44   2 H    1      17.330000   -1.340000   25.080002       1.0000      1.0079
   45   2 H    1      17.590000    0.120000   24.590000       1.0000      1.0079
   46   1 O    8      -5.850000    2.920000   24.950001       6.0000     15.9994
   47   2 H    1      -6.560000    3.670000   25.010002       1.0000      1.0079
   48   2 H    1      -5.400000    3.170000   24.080002       1.0000      1.0079
   49   1 O    8      -7.330000   12.200001   20.040001       6.0000     15.9994
   50   2 H    1      -7.240000   12.090001   19.050001       1.0000      1.0079
   51   2 H    1      -7.590001   11.280001   20.260000       1.0000      1.0079
   52   1 O    8       9.270000    5.960000   18.290001       6.0000     15.9994
   53   2 H    1      10.050000    5.350000   18.280001       1.0000      1.0079
   54   2 H    1       8.900001    5.720000   19.160002       1.0000      1.0079
   55   1 O    8      -6.430000    0.100000   25.200003       6.0000     15.9994
   56   2 H    1      -5.700001   -0.490000   25.630001       1.0000      1.0079
   57   2 H    1      -5.990000    0.970000   25.100002       1.0000      1.0079
   58   1 O    8       8.260000    4.390000   24.130001       6.0000     15.9994
   59   2 H    1       7.410001    3.970000   24.160002       1.0000      1.0079
   60   2 H    1       7.960001    5.310000   24.160002       1.0000      1.0079
   61   1 O    8     -10.360001   23.730001   23.870001       6.0000     15.9994
   62   2 H    1      -9.710001   23.140001   24.230001       1.0000      1.0079
   63   2 H    1       6.800000   24.640003   24.190002       1.0000      1.0079
   64   1 O    8       2.660000   -8.950001   10.830001       6.0000     15.9994
   65   2 H    1       3.560000   -9.000000   11.230000       1.0000      1.0079
   66   2 H    1      19.750002   -9.070001    9.900001       1.0000      1.0079
   67   1 O    8      14.510001   -0.900000    9.030001       6.0000     15.9994
   68   2 H    1       5.780000   12.810000    9.070001       1.0000      1.0079
   69   2 H    1      13.660001   -0.330000    9.060000       1.0000      1.0079
   70   1 O    8      -4.840000   12.350000   21.100002       6.0000     15.9994
   71   2 H    1      -5.030000   12.150001   22.050001       1.0000      1.0079
   72   2 H    1      -5.590000   12.050000   20.580002       1.0000      1.0079
   73   1 O    8       2.470000   11.160001   19.500000       6.0000     15.9994
   74   2 H    1       2.240000   11.810001   20.170002       1.0000      1.0079
   75   2 H    1       1.590000   10.900001   18.980001       1.0000      1.0079
   76   1 O    8      -5.090000    5.870000   31.830002       6.0000     15.9994
   77   2 H    1      -6.000000    5.550000   32.130001       1.0000      1.0079
   78   2 H    1      -4.530000    5.100000   32.080002       1.0000      1.0079
   79   1 O    8      -4.720000    3.810000   22.660000       6.0000     15.9994
   80   2 H    1      -4.580000    3.320000   21.809999       1.0000      1.0079
   81   2 H    1      -4.910000    4.760000   22.430000       1.0000      1.0079
   82   1 O    8       5.940001    0.770000   11.320001       6.0000     15.9994
   83   2 H    1       5.720000    1.470000   11.990000       1.0000      1.0079
   84   2 H    1       6.830000    0.420000   11.670000       1.0000      1.0079
   85   1 O    8      -5.660000   11.400002   14.240000       6.0000     15.9994
   86   2 H    1      -5.910000   10.490000   13.820001       1.0000      1.0079
   87   2 H    1      -4.700000   11.430000   13.990001       1.0000      1.0079
   88   1 O    8       6.980000    1.540000   17.800001       6.0000     15.9994
   89   2 H    1      -9.270000    1.560000   18.540001       1.0000      1.0079
   90   2 H    1       7.290000    2.080000   17.020000       1.0000      1.0079
   91   1 O    8       9.420000    4.270000   32.780003       6.0000     15.9994
   92   2 H    1       8.930000    5.120000   32.660004       1.0000      1.0079
   93   2 H    1       9.400001    4.150000   33.750004       1.0000      1.0079
   94   1 O    8       5.890000   10.790000    9.150001       6.0000     15.9994
   95   2 H    1       5.020000   10.630001    9.630001       1.0000      1.0079
   96   2 H    1       5.610001   10.630001    8.190001       1.0000      1.0079
   97   1 O    8       0.830000   -1.830000   11.880001       6.0000     15.9994
   98   2 H    1       0.560000   -1.920000   12.830001       1.0000      1.0079
   99   2 H    1       0.230000   -1.040000   11.520000       1.0000      1.0079
  100   1 O    8       0.900000   -5.520000   32.160000       6.0000     15.9994
  101   2 H    1       1.680000   -5.270000   32.770000       1.0000      1.0079
  102   2 H    1       0.160000   -5.030000   32.600002       1.0000      1.0079
  103   1 O    8      14.910001    0.710000   23.300001       6.0000     15.9994
  104   2 H    1      15.040001    1.710000   22.930002       1.0000      1.0079
  105   2 H    1      -1.020000    0.230000   23.040001       1.0000      1.0079
  106   1 O    8      -6.280000    8.780001   18.100000       6.0000     15.9994
  107   2 H    1      -6.750000    8.100000   17.600000       1.0000      1.0079
  108   2 H    1      -5.330000    8.430000   18.100000       1.0000      1.0079
  109   1 O    8      11.980001    5.180000    8.330001       6.0000     15.9994
  110   2 H    1      12.720001    4.530000    8.530001       1.0000      1.0079
  111   2 H    1      12.430000    6.010000    8.080000       1.0000      1.0079
  112   1 O    8      -3.210000    5.430000   11.850000       6.0000     15.9994
  113   2 H    1      -2.570000    5.780000   11.230000       1.0000      1.0079
  114   2 H    1      -3.110000    4.480000   11.890000       1.0000      1.0079
  115   1 O    8       3.960000   10.430001   10.920000       6.0000     15.9994
  116   2 H    1       3.050000   10.160000   10.690001       1.0000      1.0079
  117   2 H    1       4.360000    9.600000   11.330000       1.0000      1.0079
  118   1 O    8      -5.250000    9.170000   26.060001       6.0000     15.9994
  119   2 H    1      -4.950000    9.070001   25.160000       1.0000      1.0079
  120   2 H    1      -5.130000    8.340000   26.500000       1.0000      1.0079
  121   1 O    8      -8.210000    5.670000   26.920002       6.0000     15.9994
  122   2 H    1      -8.830000    6.290000   26.450003       1.0000      1.0079
  123   2 H    1      -8.430000    4.780000   26.540001       1.0000      1.0079
  124   1 O    8      -3.430000    2.580000   28.720001       6.0000     15.9994
  125   2 H    1     -12.660000   17.120001   29.220001       1.0000      1.0079
  126   2 H    1      -3.530000    2.830000   27.810001       1.0000      1.0079
  127   1 O    8       9.960001   -1.700000   15.610001       6.0000     15.9994
  128   2 H    1       9.000000   -1.830000   15.250001       1.0000      1.0079
  129   2 H    1       1.830000   13.820001   15.400001       1.0000      1.0079
  130   1 O    8       4.640000   -2.660000   29.760000       6.0000     15.9994
  131   2 H    1       4.780000   -3.610000   30.050001       1.0000      1.0079
  132   2 H    1       5.420001   -2.410000   29.250002       1.0000      1.0079
  133   1 O    8      -9.350000   15.040001   27.470001       6.0000     15.9994
  134   2 H    1     -10.180000   15.250001   27.030001       1.0000      1.0079
  135   2 H    1      -8.820001   14.660001   26.720001       1.0000      1.0079
  136   1 O    8       3.380000    5.470000   30.760002       6.0000     15.9994
  137   2 H    1       2.890000    5.900001   31.470001       1.0000      1.0079
  138   2 H    1       2.740000    4.840000   30.320000       1.0000      1.0079
  139   1 O    8      -0.600000    6.500000   27.490002       6.0000     15.9994
  140   2 H    1      -1.410000    6.030001   27.780001       1.0000      1.0079
  141   2 H    1       0.140000    5.820000   27.370003       1.0000      1.0079
  142   1 O    8       6.380000    8.050001    9.660000       6.0000     15.9994
  143   2 H    1       7.340000    7.810000    9.700001       1.0000      1.0079
  144   2 H    1       6.360001    9.020000    9.450001       1.0000      1.0079
  145   1 O    8      -8.560000   17.050001   12.200001       6.0000     15.9994
  146   2 H    1       8.250000   16.290001   11.570001       1.0000      1.0079
  147   2 H    1      -7.670000   17.390001   12.020000       1.0000      1.0079
  148   1 O    8      -6.670001    1.040000   15.460001       6.0000     15.9994
  149   2 H    1      -6.350000    0.970000   16.430000       1.0000      1.0079
  150   2 H    1      -5.920000    1.560000   14.980001       1.0000      1.0079
  151   1 O    8       1.370000    9.950001   12.520000       6.0000     15.9994
  152   2 H    1       1.520000   10.210000   13.460001       1.0000      1.0079
  153   2 H    1       1.010000   10.730000   12.140001       1.0000      1.0079
  154   1 O    8      11.180000   -4.140000   32.500004       6.0000     15.9994
  155   2 H    1      10.440001   -4.440001   31.800001       1.0000      1.0079
  156   2 H    1      10.990001   -4.510000   33.400002       1.0000      1.0079
  157   1 O    8      -1.630000   -2.070000   28.020000       6.0000     15.9994
  158   2 H    1      -0.730000   -2.500000   28.200001       1.0000      1.0079
  159   2 H    1      -1.410000   -1.150000   28.010002       1.0000      1.0079
  160   1 O    8       3.970000   -1.060000   12.090001       6.0000     15.9994
  161   2 H    1       4.520000   -0.480000   11.490001       1.0000      1.0079
  162   2 H    1       3.160000   -1.310000   11.680001       1.0000      1.0079
  163   1 O    8       7.800000    5.290000   16.060001       6.0000     15.9994
  164   2 H    1       8.190001    5.460000   16.920000       1.0000      1.0079
  165   2 H    1       6.860001    5.450000   16.160000       1.0000      1.0079
  166   1 O    8       1.510000   16.590000    9.150001       6.0000     15.9994
  167   2 H    1       1.240000   16.520000   10.070001       1.0000      1.0079
  168   2 H    1       1.330000   17.560001    8.900001       1.0000      1.0079
  169   1 O    8     -17.570002   14.910001   25.450001       6.0000     15.9994
  170   2 H    1      -0.810000   15.740002   26.030003       1.0000      1.0079
  171   2 H    1       0.350000   14.760000   25.440002       1.0000      1.0079
  172   1 O    8       4.960000    5.100000   16.090000       6.0000     15.9994
  173   2 H    1       4.900000    5.250000   15.160000       1.0000      1.0079
  174   2 H    1       4.340000    5.770000   16.380001       1.0000      1.0079
  175   1 O    8       1.360000    3.860000   29.430000       6.0000     15.9994
  176   2 H    1       1.320000    2.870000   29.440002       1.0000      1.0079
  177   2 H    1       1.520000    4.090000   28.480000       1.0000      1.0079
  178   1 O    8      -4.040000    0.770000   33.600002       6.0000     15.9994
  179   2 H    1      -3.730000   -0.100000   33.170002       1.0000      1.0079
  180   2 H    1      -5.030000    0.690000   33.330002       1.0000      1.0079
  181   1 O    8      14.930000    9.020000   20.170002       6.0000     15.9994
  182   2 H    1      14.720001    8.100000   20.270002       1.0000      1.0079
  183   2 H    1      14.370001    9.460000   19.510000       1.0000      1.0079
  184   1 O    8      12.330000    9.110001   23.560001       6.0000     15.9994
  185   2 H    1      11.910001    9.890000   23.210001       1.0000      1.0079
  186   2 H    1      13.360001    9.220000   23.570002       1.0000      1.0079
  187   1 O    8      -8.960000   14.860001   18.640001       6.0000     15.9994
  188   2 H    1      -9.500000   14.110001   19.010002       1.0000      1.0079
  189   2 H    1      -8.890000   14.710001   17.620001       1.0000      1.0079
  190   1 O    8       2.590000   12.410001   28.600002       6.0000     15.9994
  191   2 H    1       2.280000   11.480000   28.400002       1.0000      1.0079
  192   2 H    1       1.940000   12.910000   29.040001       1.0000      1.0079
  193   1 O    8       5.200000    6.010000   28.890001       6.0000     15.9994
  194   2 H    1       4.770000    6.050000   29.750002       1.0000      1.0079
  195   2 H    1       6.060000    6.480000   28.970001       1.0000      1.0079
  196   1 O    8      -8.190001   -1.310000   32.459999       6.0000     15.9994
  197   2 H    1      -8.540000   -2.210000   32.650002       1.0000      1.0079
  198   2 H    1      -8.280001   -1.240000   31.460001       1.0000      1.0079
  199   1 O    8      -4.440001    1.720000   13.820001       6.0000     15.9994
  200   2 H    1      -3.780000    2.100000   13.160001       1.0000      1.0079
  201   2 H    1      -4.000000    0.900000   14.040001       1.0000      1.0079
  202   1 O    8      -1.410000   11.970000   28.450001       6.0000     15.9994
  203   2 H    1      -1.750000   12.230001   27.510002       1.0000      1.0079
  204   2 H    1      -1.290000   11.040001   28.580000       1.0000      1.0079
  205   1 O    8      14.050001    2.860000   11.960001       6.0000     15.9994
  206   2 H    1       6.510000   17.540001   12.330000       1.0000      1.0079
  207   2 H    1      14.140000    2.400000   11.090001       1.0000      1.0079
  208   1 O    8      -3.140000   -8.240001   19.750002       6.0000     15.9994
  209   2 H    1      -3.750000   -8.050001   20.550001       1.0000      1.0079
  210   2 H    1      -3.610000   -8.920000   19.190002       1.0000      1.0079
  211   1 O    8       9.350000   -1.900000   23.350000       6.0000     15.9994
  212   2 H    1       9.740001   -1.230000   24.010000       1.0000      1.0079
  213   2 H    1       9.830000   -1.790000   22.480001       1.0000      1.0079
  214   1 O    8       7.120000   -0.860000   20.250000       6.0000     15.9994
  215   2 H    1       6.990001   -1.790000   20.630001       1.0000      1.0079
  216   2 H    1       6.280000   -0.420000   20.510002       1.0000      1.0079
  217   1 O    8      -2.590000   12.980001   26.300001       6.0000     15.9994
  218   2 H    1      -1.820000   13.630000   25.990002       1.0000      1.0079
  219   2 H    1      -2.710000   12.240001   25.640001       1.0000      1.0079
  220   1 O    8       5.720000    2.730000   13.470001       6.0000     15.9994
  221   2 H    1       6.530001    2.440000   13.990001       1.0000      1.0079
  222   2 H    1       5.810000    3.660000   13.180000       1.0000      1.0079
  223   1 O    8      -1.560000   11.790000   24.120003       6.0000     15.9994
  224   2 H    1      16.150002   12.250000   23.980000       1.0000      1.0079
  225   2 H    1      -1.960000   11.720000   23.190001       1.0000      1.0079
  226   1 O    8      -5.500000   14.360001    8.810000       6.0000     15.9994
  227   2 H    1      -5.310000   15.090000    8.180000       1.0000      1.0079
  228   2 H    1      10.400001   14.250001    8.630000       1.0000      1.0079
  229   1 O    8       0.820000    9.350000   30.970001       6.0000     15.9994
  230   2 H    1       0.260000    9.080001   30.240002       1.0000      1.0079
  231   2 H    1       1.190000    8.500000   31.340000       1.0000      1.0079
  232   1 O    8       1.870000    7.030000   32.350002       6.0000     15.9994
  233   2 H    1       0.870000    6.880000   32.470001       1.0000      1.0079
  234   2 H    1       2.270000    7.020000   33.220001       1.0000      1.0079
  235   1 O    8      -2.810000    6.460000   20.320000       6.0000     15.9994
  236   2 H    1      -3.280000    6.710000   19.470001       1.0000      1.0079
  237   2 H    1      -3.550000    6.430000   21.020000       1.0000      1.0079
  238   1 O    8      11.110001   -1.540000   33.390003       6.0000     15.9994
  239   2 H    1       2.690000   12.110001   33.150002       1.0000      1.0079
  240   2 H    1      10.120001   -1.370000   33.250000       1.0000      1.0079
  241   1 O    8       3.600000    4.390000   18.970001       6.0000     15.9994
  242   2 H    1       3.660000    3.680000   18.270000       1.0000      1.0079
  243   2 H    1       2.780000    4.270000   19.350000       1.0000      1.0079
  244   1 O    8       2.960000    6.460000   11.660000       6.0000     15.9994
  245   2 H    1       3.090000    5.500000   11.900001       1.0000      1.0079
  246   2 H    1       3.840000    6.900001   11.790000       1.0000      1.0079
  247   1 O    8       7.430000   -1.590000   14.840001       6.0000     15.9994
  248   2 H    1       7.050000   -1.190000   15.720000       1.0000      1.0079
  249   2 H    1       6.600000   -1.950000   14.320001       1.0000      1.0079
  250   1 O    8       4.960000   12.430000   29.960001       6.0000     15.9994
  251   2 H    1       5.720000   12.630000   29.380001       1.0000      1.0079
  252   2 H    1       4.110000   12.620001   29.570004       1.0000      1.0079
  253   1 O    8      -2.710000   16.390001    8.910000       6.0000     15.9994
  254   2 H    1      -2.760000   15.820000    9.740001       1.0000      1.0079
  255   2 H    1      -2.070000   15.930000    8.280001       1.0000      1.0079
  256   1 O    8       6.130000   -3.020000   21.320002       6.0000     15.9994
  257   2 H    1       6.320000   -4.020000   21.270000       1.0000      1.0079
  258   2 H    1       5.110001   -2.870000   21.030003       1.0000      1.0079
  259   1 O    8      -5.260000    7.580000   29.570004       6.0000     15.9994
  260   2 H    1      -5.310000    7.230001   28.630001       1.0000      1.0079
  261   2 H    1      -5.370000    6.790000   30.190001       1.0000      1.0079
  262   1 O    8       2.760000   15.540000   17.940001       6.0000     15.9994
  263   2 H    1       1.970000   15.640001   18.540001       1.0000      1.0079
  264   2 H    1       2.910000   14.540001   17.910002       1.0000      1.0079
  265   1 O    8      -9.040001   -6.300001   12.660000       6.0000     15.9994
  266   2 H    1      -8.700001   -6.880000   13.400001       1.0000      1.0079
  267   2 H    1       0.060000    9.050000   12.350000       1.0000      1.0079
  268   1 O    8      -8.650001    6.490001   31.770000       6.0000     15.9994
  269   2 H    1      -9.540001    6.680000   32.090000       1.0000      1.0079
  270   2 H    1      -8.050001    7.290000   31.800001       1.0000      1.0079
  271   1 O    8      11.750001   14.930000   19.090000       6.0000     15.9994
  272   2 H    1      10.840001   15.040001   19.500000       1.0000      1.0079
  273   2 H    1      11.740000   13.980001   18.750002       1.0000      1.0079
  274   1 O    8       5.190001    6.470000   24.040001       6.0000     15.9994
  275   2 H    1       5.410000    5.480001   23.990002       1.0000      1.0079
  276   2 H    1       4.830000    6.530001   24.980001       1.0000      1.0079
  277   1 O    8       3.520000    6.920000   21.930000       6.0000     15.9994
  278   2 H    1     -13.190001    7.860000   21.570000       1.0000      1.0079
  279   2 H    1       4.030000    6.920000   22.800003       1.0000      1.0079
  280   1 O    8      17.190001   -0.510000   22.620001       6.0000     15.9994
  281   2 H    1      17.110001   -1.440000   22.260000       1.0000      1.0079
  282   2 H    1      17.680000    0.030000   21.920002       1.0000      1.0079
  283   1 O    8       3.510000   -8.730000   15.240001       6.0000     15.9994
  284   2 H    1      -4.120000    6.120000   14.710001       1.0000      1.0079
  285   2 H    1       2.880000   -7.970000   15.030001       1.0000      1.0079
  286   1 O    8      -9.170000   19.760000   21.090002       6.0000     15.9994
  287   2 H    1       8.260000   20.490000   21.450003       1.0000      1.0079
  288   2 H    1      -9.980000   20.280001   20.720001       1.0000      1.0079
  289   1 O    8       3.970000   13.320000   26.250002       6.0000     15.9994
  290   2 H    1       4.240000   12.500000   25.800001       1.0000      1.0079
  291   2 H    1       3.610000   13.000001   27.080002       1.0000      1.0079
  292   1 O    8      -1.040000   -2.540000   14.760000       6.0000     15.9994
  293   2 H    1      -0.830000   -1.880000   15.470000       1.0000      1.0079
  294   2 H    1      -1.980000   -2.680000   15.050001       1.0000      1.0079
  295   1 O    8      -3.900000    3.410000   32.300003       6.0000     15.9994
  296   2 H    1      -3.910000    3.320000   33.279999       1.0000      1.0079
  297   2 H    1      -3.090000    2.860000   31.990002       1.0000      1.0079
  298   1 O    8       7.790000    7.270000   23.930000       6.0000     15.9994
  299   2 H    1       8.050001    8.050001   24.550001       1.0000      1.0079
  300   2 H    1       6.800000    7.230001   23.850002       1.0000      1.0079
  301   1 O    8       6.730001    1.090000   23.150002       6.0000     15.9994
  302   2 H    1       6.300001    1.760000   23.670002       1.0000      1.0079
  303   2 H    1       7.110000    0.530000   23.820002       1.0000      1.0079
  304   1 O    8       4.470000    6.450000    8.280001       6.0000     15.9994
  305   2 H    1       5.050000    7.200000    8.580000       1.0000      1.0079
  306   2 H    1       3.540000    6.600000    8.630000       1.0000      1.0079
  307   1 O    8      -3.840000   12.260000    8.860001       6.0000     15.9994
  308   2 H    1      -4.370000   11.500001    9.200000       1.0000      1.0079
  309   2 H    1      -4.440001   12.980001    8.810000       1.0000      1.0079
  310   1 O    8      -8.350000   22.380001   24.950001       6.0000     15.9994
  311   2 H    1      -8.680000   21.730001   25.700001       1.0000      1.0079
  312   2 H    1      -7.840000   21.770000   24.320002       1.0000      1.0079
  313   1 O    8       4.950000    3.650000   27.640001       6.0000     15.9994
  314   2 H    1       4.550000    2.910000   28.240002       1.0000      1.0079
  315   2 H    1       5.090000    4.380000   28.240002       1.0000      1.0079
  316   1 O    8       8.060000    0.130000    8.460000       6.0000     15.9994
  317   2 H    1       8.650001   -0.650000    8.540000       1.0000      1.0079
  318   2 H    1       8.690001    0.880000    8.490001       1.0000      1.0079
  319   1 O    8       1.810000   10.240001   15.280001       6.0000     15.9994
  320   2 H    1       2.280000    9.550000   15.870001       1.0000      1.0079
  321   2 H    1       1.960000   11.120001   15.670000       1.0000      1.0079
  322   1 O    8      -0.470000    2.540000   14.940001       6.0000     15.9994
  323   2 H    1      -0.320000    2.620000   13.980001       1.0000      1.0079
  324   2 H    1       0.280000    3.070000   15.290001       1.0000      1.0079
  325   1 O    8       5.150001    9.280001   31.880001       6.0000     15.9994
  326   2 H    1       4.330000    9.690001   32.300003       1.0000      1.0079
  327   2 H    1       4.890000    9.480001   30.970001       1.0000      1.0079
  328   1 O    8      -4.880000   16.690001   14.820002       6.0000     15.9994
  329   2 H    1      -4.510000   16.680000   15.780001       1.0000      1.0079
  330   2 H    1      -4.110000   16.760002   14.250001       1.0000      1.0079
  331   1 O    8      -6.470000    1.240000   32.810001       6.0000     15.9994
  332   2 H    1      -6.510000    1.460000   31.840002       1.0000      1.0079
  333   2 H    1      -6.720000    2.070000   33.260002       1.0000      1.0079
  334   1 O    8      -0.300000    3.180000   33.350002       6.0000     15.9994
  335   2 H    1       0.230000    2.430000   32.950001       1.0000      1.0079
  336   2 H    1      -1.250000    2.930000   33.250000       1.0000      1.0079
  337   1 O    8       8.490001   11.370001   24.470001       6.0000     15.9994
  338   2 H    1      16.580002   -3.360000   23.540001       1.0000      1.0079
  339   2 H    1      -8.520000   10.590000   25.050001       1.0000      1.0079
  340   1 O    8       8.360001   14.710001    8.010000       6.0000     15.9994
  341   2 H    1       8.500000   15.670000    8.420001       1.0000      1.0079
  342   2 H    1       7.500000   14.330001    8.270000       1.0000      1.0079
  343   1 O    8      16.960001   10.640000   18.350000       6.0000     15.9994
  344   2 H    1      16.690001   10.210000   17.460001       1.0000      1.0079
  345   2 H    1      16.220001   10.450001   19.030001       1.0000      1.0079
  346   1 O    8      11.610001    4.640000   18.430000       6.0000     15.9994
  347   2 H    1      11.780001    4.230000   17.560001       1.0000      1.0079
  348   2 H    1      11.890000    4.070000   19.200001       1.0000      1.0079
  349   1 O    8       6.940000    7.690001   14.370001       6.0000     15.9994
  350   2 H    1       7.560000    8.590000   14.000001       1.0000      1.0079
  351   2 H    1       7.590001    7.090001   14.780001       1.0000      1.0079
  352   1 O    8       8.080000    4.950000   20.640001       6.0000     15.9994
  353   2 H    1       8.060000    3.950000   21.030003       1.0000      1.0079
  354   2 H    1       7.210000    5.190001   20.420000       1.0000      1.0079
  355   1 O    8       4.670000   11.540001   15.580001       6.0000     15.9994
  356   2 H    1       4.550000   10.550001   15.660001       1.0000      1.0079
  357   2 H    1       4.030000   11.860001   14.920001       1.0000      1.0079
  358   1 O    8       5.320000    8.030001   11.930000       6.0000     15.9994
  359   2 H    1       5.960000    7.700000   12.610001       1.0000      1.0079
  360   2 H    1       5.830000    7.860000   11.120001       1.0000      1.0079
  361   1 O    8      -1.480000   15.010000   33.580002       6.0000     15.9994
  362   2 H    1      -0.690000   14.440001   33.430000       1.0000      1.0079
  363   2 H    1      -1.260000   15.910001   33.160004       1.0000      1.0079
  364   1 O    8       7.220001    2.630000   32.400002       6.0000     15.9994
  365   2 H    1       6.470000    3.220000   32.500004       1.0000      1.0079
  366   2 H    1       8.070001    3.200000   32.590000       1.0000      1.0079
  367   1 O    8      -4.320000    3.390000   16.200001       6.0000     15.9994
  368   2 H    1      -4.200000    2.980000   15.310000       1.0000      1.0079
  369   2 H    1      -4.580000    4.270000   15.850000       1.0000      1.0079
  370   1 O    8      -9.650001    1.580000   29.320002       6.0000     15.9994
  371   2 H    1     -10.570001    1.400000   29.050003       1.0000      1.0079
  372   2 H    1      -9.720000    2.130000   30.120001       1.0000      1.0079
  373   1 O    8      -0.670000    8.880001   28.940001       6.0000     15.9994
  374   2 H    1      -1.590000    8.970000   29.320002       1.0000      1.0079
  375   2 H    1      -0.680000    8.070001   28.350000       1.0000      1.0079
  376   1 O    8       0.000000    5.380001   17.560001       6.0000     15.9994
  377   2 H    1       0.530000    6.090000   18.060001       1.0000      1.0079
  378   2 H    1      -0.450000    4.860000   18.280001       1.0000      1.0079
  379   1 O    8       4.360000    1.140000   28.900002       6.0000     15.9994
  380   2 H    1       3.910000    0.670000   28.150002       1.0000      1.0079
  381   2 H    1       3.930000    1.110000   29.770002       1.0000      1.0079
  382   1 O    8       2.290000   -0.540000   15.330001       6.0000     15.9994
  383   2 H    1       2.960000    0.120000   15.030001       1.0000      1.0079
  384   2 H    1       2.460000   -1.280000   14.700001       1.0000      1.0079
  385   1 O    8      -2.060000    5.440001   14.390000       6.0000     15.9994
  386   2 H    1      -1.390000    4.720000   14.540001       1.0000      1.0079
  387   2 H    1      -2.200000    5.410000   13.420000       1.0000      1.0079
  388   1 O    8       2.150000    6.860001    9.120001       6.0000     15.9994
  389   2 H    1       1.630000    6.210001    8.680000       1.0000      1.0079
  390   2 H    1       2.170000    6.740000   10.100000       1.0000      1.0079
  391   1 O    8       9.200000   10.250001    8.900001       6.0000     15.9994
  392   2 H    1       8.860001   10.440001    7.990000       1.0000      1.0079
  393   2 H    1       8.550000   10.540000    9.590000       1.0000      1.0079
  394   1 O    8       2.520000    9.670001   27.930002       6.0000     15.9994
  395   2 H    1      11.120001   -5.120000   26.980001       1.0000      1.0079
  396   2 H    1       1.690000    9.270000   28.180000       1.0000      1.0079
  397   1 O    8       0.480000   15.650001   19.610001       6.0000     15.9994
  398   2 H    1      -0.100000   14.840001   19.810001       1.0000      1.0079
  399   2 H    1       0.330000   16.150002   20.430000       1.0000      1.0079
  400   1 O    8      -2.580000    8.560000   32.700001       6.0000     15.9994
  401   2 H    1      -2.000000    9.380000   32.730003       1.0000      1.0079
  402   2 H    1      -1.940000    7.800000   32.720001       1.0000      1.0079
  403   1 O    8       9.170000    7.290000    9.040001       6.0000     15.9994
  404   2 H    1      10.000000    7.260000    9.540001       1.0000      1.0079
  405   2 H    1       9.270000    8.030001    8.430000       1.0000      1.0079
  406   1 O    8       7.070000   11.000000   21.880001       6.0000     15.9994
  407   2 H    1       7.350000   10.170001   21.510000       1.0000      1.0079
  408   2 H    1       6.260000   10.950001   22.460001       1.0000      1.0079
  409   1 O    8      15.530001    6.890000   10.430001       6.0000     15.9994
  410   2 H    1      14.880000    7.290000    9.860001       1.0000      1.0079
  411   2 H    1      15.690001    7.440000   11.210001       1.0000      1.0079
  412   1 O    8      -2.060000    2.650000   18.540001       6.0000     15.9994
  413   2 H    1      -2.510000    2.900000   17.740000       1.0000      1.0079
  414   2 H    1      -1.380000    1.970000   18.270000       1.0000      1.0079
  415   1 O    8      -9.710001   14.630001   11.290001       6.0000     15.9994
  416   2 H    1     -10.400001   14.450001   11.970000       1.0000      1.0079
  417   2 H    1     -10.250001   14.510001   10.440001       1.0000      1.0079
  418   1 O    8      12.470001   16.770000   17.470001       6.0000     15.9994
  419   2 H    1      12.240001   15.960001   18.160002       1.0000      1.0079
  420   2 H    1      13.460001   16.820000   17.550001       1.0000      1.0079
  421   1 O    8      13.590001    3.340000    9.160001       6.0000     15.9994
  422   2 H    1      14.520000    3.760000    9.340000       1.0000      1.0079
  423   2 H    1      13.790001    2.990000    8.280001       1.0000      1.0079
  424   1 O    8       6.370000   16.600000   31.070002       6.0000     15.9994
  425   2 H    1       6.230001   15.720000   31.480003       1.0000      1.0079
  426   2 H    1      14.360001    1.960000   30.200003       1.0000      1.0079
  427   1 O    8       8.030001   17.790001   25.350000       6.0000     15.9994
  428   2 H    1       7.930000   17.260000   26.140001       1.0000      1.0079
  429   2 H    1       7.190001   17.960001   24.900000       1.0000      1.0079
  430   1 O    8      -9.810000    8.180000   27.889999       6.0000     15.9994
  431   2 H    1      -9.090000    8.400001   28.490002       1.0000      1.0079
  432   2 H    1     -10.640000    8.670000   28.280001       1.0000      1.0079
  433   1 O    8       1.030000    6.090000   23.070002       6.0000     15.9994
  434   2 H    1       1.050000    5.090000   23.170002       1.0000      1.0079
  435   2 H    1       1.880000    6.310000   22.610001       1.0000      1.0079
  436   1 O    8      -3.330000   15.220001   20.960003       6.0000     15.9994
  437   2 H    1      -3.370000   14.700001   21.760002       1.0000      1.0079
  438   2 H    1       4.280000    0.290000   20.410002       1.0000      1.0079
  439   1 O    8       1.690000    3.640000   20.640001       6.0000     15.9994
  440   2 H    1       2.100000    3.240000   21.530001       1.0000      1.0079
  441   2 H    1       0.800000    4.100000   20.810001       1.0000      1.0079
  442   1 O    8      -4.420000    2.530000   20.010002       6.0000     15.9994
  443   2 H    1      -4.950000    1.920000   19.350000       1.0000      1.0079
  444   2 H    1      -3.550000    2.560000   19.500000       1.0000      1.0079
  445   1 O    8      -6.840000    1.530000   12.170000       6.0000     15.9994
  446   2 H    1      -6.050000    1.410000   12.740001       1.0000      1.0079
  447   2 H    1      -7.140000    2.490000   12.220000       1.0000      1.0079
  448   1 O    8      -0.520000    9.700001    9.230001       6.0000     15.9994
  449   2 H    1      -1.080000   10.050000    9.950001       1.0000      1.0079
  450   2 H    1      15.910001    8.880001    8.810000       1.0000      1.0079
  451   1 O    8       4.890000    9.760000   28.990002       6.0000     15.9994
  452   2 H    1       4.110000    9.680000   28.390003       1.0000      1.0079
  453   2 H    1       4.950000   10.690001   29.290001       1.0000      1.0079
  454   1 O    8       7.680000   -3.800000   32.660004       6.0000     15.9994
  455   2 H    1       8.320000   -4.470000   32.230000       1.0000      1.0079
  456   2 H    1       7.870001   -3.870000   33.670002       1.0000      1.0079
  457   1 O    8       1.800000    7.180000   19.090000       6.0000     15.9994
  458   2 H    1       2.310000    7.350000   18.290001       1.0000      1.0079
  459   2 H    1       2.350000    6.550000   19.630001       1.0000      1.0079
  460   1 O    8      11.770000    8.190001   33.420002       6.0000     15.9994
  461   2 H    1      12.760000    8.460000   33.209999       1.0000      1.0079
  462   2 H    1      -5.170000    7.370000   32.860001       1.0000      1.0079
  463   1 O    8      -8.340000   -0.840000   29.820002       6.0000     15.9994
  464   2 H    1      -9.000000   -1.460000   29.340002       1.0000      1.0079
  465   2 H    1      -8.520000    0.060000   29.490002       1.0000      1.0079
  466   1 O    8       8.700001    4.560000    8.190001       6.0000     15.9994
  467   2 H    1       8.910000    5.480001    8.380001       1.0000      1.0079
  468   2 H    1       7.740001    4.420000    8.440001       1.0000      1.0079
  469   1 O    8     -13.130001    6.510000   26.410000       6.0000     15.9994
  470   2 H    1     -13.390001    7.520000   26.270000       1.0000      1.0079
  471   2 H    1     -12.630000    6.440001   27.250002       1.0000      1.0079
  472   1 O    8       3.400000    8.950001   25.550001       6.0000     15.9994
  473   2 H    1       4.120000    9.600000   25.530003       1.0000      1.0079
  474   2 H    1       2.790000    9.120001   24.840002       1.0000      1.0079
  475   1 O    8      14.920001    7.030000   16.510000       6.0000     15.9994
  476   2 H    1      15.600000    6.420000   16.980001       1.0000      1.0079
  477   2 H    1      14.740001    6.620001   15.600000       1.0000      1.0079
  478   1 O    8      -6.960001   17.800001   23.280001       6.0000     15.9994
  479   2 H    1      -7.810000   17.950001   23.760002       1.0000      1.0079
  480   2 H    1      -6.350000   17.420002   23.990002       1.0000      1.0079
  481   1 O    8       9.190001   15.790001   29.560001       6.0000     15.9994
  482   2 H    1       8.530001   15.720000   28.860001       1.0000      1.0079
  483   2 H    1       9.810000   15.070001   29.660000       1.0000      1.0079
  484   1 O    8       4.160000    9.450001   20.960003       6.0000     15.9994
  485   2 H    1       3.500000    9.840000   20.280001       1.0000      1.0079
  486   2 H    1       4.840000    9.070001   20.300003       1.0000      1.0079
  487   1 O    8      17.700001   21.520002   21.639999       6.0000     15.9994
  488   2 H    1      17.330000   21.920002   22.440002       1.0000      1.0079
  489   2 H    1      17.170002   20.640001   21.400002       1.0000      1.0079
  490   1 O    8      11.620001    8.500000   12.250000       6.0000     15.9994
  491   2 H    1      12.560000    8.540000   12.680000       1.0000      1.0079
  492   2 H    1      11.670000    7.600000   11.850000       1.0000      1.0079
  493   1 O    8       3.180000    3.190000   33.470001       6.0000     15.9994
  494   2 H    1      -4.860000   16.980001   33.030003       1.0000      1.0079
  495   2 H    1       3.880000    3.860000   33.220001       1.0000      1.0079
  496   1 O    8       1.120000   -2.650000   28.680000       6.0000     15.9994
  497   2 H    1      -7.460001   11.100000   29.100000       1.0000      1.0079
  498   2 H    1      -6.690001   11.780001   27.950001       1.0000      1.0079
  499   1 O    8       7.440000    2.580000   26.810001       6.0000     15.9994
  500   2 H    1       6.510000    2.970000   26.990002       1.0000      1.0079
  501   2 H    1       7.650001    2.290000   27.710001       1.0000      1.0079
  502   1 O    8       9.470000    4.250000   12.250000       6.0000     15.9994
  503   2 H    1       9.640000    4.480000   13.150001       1.0000      1.0079
  504   2 H    1      10.150002    4.780000   11.690001       1.0000      1.0079
  505   1 O    8       6.570000   -3.320000   10.940001       6.0000     15.9994
[...]
    899      3      Pt          0.00498490    -0.00404157    -0.00430076
    900      3      Pt         -0.01818400     0.00808425     0.00531503
    901      3      Pt          0.00599509     0.00416626    -0.00472855
    902      3      Pt          0.00538957    -0.00616523     0.01028470
    903      3      Pt          0.01010263    -0.00730767    -0.00438689
    904      3      Pt          0.00070181     0.01258392    -0.01803502
    905      3      Pt          0.00042592     0.00084874    -0.00457369
    906      3      Pt         -0.00886328     0.00618542     0.00736575
 SUM OF ATOMIC FORCES           0.00753912    -0.02863909     0.02938827     0.04172177

 STRESS| Analytical stress tensor [GPa]
 STRESS|                        x                   y                   z
 STRESS|      x       -2.34139266837E+00  -1.86922854233E-01  -1.07460262731E-01
 STRESS|      y       -1.86922854233E-01  -2.34989985015E+00   1.62885450128E-01
 STRESS|      z       -1.07460262731E-01   1.62885450128E-01   1.54182603107E-01
 STRESS| 1/3 Trace                                            -1.51236997180E+00
 STRESS| Determinant                                           9.38732123515E-01

 STRESS| Eigenvectors and eigenvalues of the analytical stress tensor [GPa]
 STRESS|                        1                   2                   3
 STRESS| Eigenvalues  -2.53327800636E+00  -2.17426224587E+00   1.70430336823E-01
 STRESS|      x           0.693092704322      0.719269174533     -0.047690227325
 STRESS|      y           0.720671632510     -0.689939277366      0.067942561351
 STRESS|      z          -0.015965629040      0.081459487566      0.996548769792

 -------------------------------------------------------------------------------
 -                                                                             -
 -                                DBCSR STATISTICS                             -
 -                                                                             -
 -------------------------------------------------------------------------------
 COUNTER                                    TOTAL       BLAS       SMM       ACC
 flops     5 x     5 x   288          89136230400       0.0%    100.0%      0.0%
 flops     5 x     5 x   292          90374233600       0.0%    100.0%      0.0%
 flops     5 x    13 x   288         100425386880       0.0%    100.0%      0.0%
 flops    13 x     5 x   288         100434597120       0.0%    100.0%      0.0%
 flops    13 x    20 x   288         101398602240       0.0%    100.0%      0.0%
 flops    20 x    13 x   288         101472284160       0.0%    100.0%      0.0%
 flops     5 x    13 x   292         101820183920       0.0%    100.0%      0.0%
 flops    13 x     5 x   292         101829522080       0.0%    100.0%      0.0%
 flops    13 x    20 x   292         102806916160       0.0%    100.0%      0.0%
 flops    20 x    13 x   292         102881621440       0.0%    100.0%      0.0%
 flops    13 x    13 x   288         107065355904       0.0%    100.0%      0.0%
 flops    13 x    13 x   292         108552374736       0.0%    100.0%      0.0%
 flops     5 x    20 x   288         110617344000       0.0%    100.0%      0.0%
 flops    20 x     5 x   288         110626790400       0.0%    100.0%      0.0%
 flops     5 x    20 x   292         112153696000       0.0%    100.0%      0.0%
 flops    20 x     5 x   292         112163273600       0.0%    100.0%      0.0%
 flops    20 x    20 x   288         442771660800       0.0%    100.0%      0.0%
 flops    20 x    20 x   292         448921267200       0.0%    100.0%      0.0%
 flops     5 x     5 x   320         594241536000       0.0%    100.0%      0.0%
 flops     5 x    13 x   320         669502579200       0.0%    100.0%      0.0%
 flops    13 x     5 x   320         669563980800       0.0%    100.0%      0.0%
 flops    13 x    20 x   320         675990681600       0.0%    100.0%      0.0%
 flops    20 x    13 x   320         676481894400       0.0%    100.0%      0.0%
 flops    13 x    13 x   320         713769039360       0.0%    100.0%      0.0%
 flops     5 x    20 x   320         737448960000       0.0%    100.0%      0.0%
 flops    20 x     5 x   320         737511936000       0.0%    100.0%      0.0%
 flops    20 x    20 x   320        2951811072000       0.0%    100.0%      0.0%
 flops inhomo. stacks                           0       0.0%      0.0%      0.0%
 flops total                        10.971773E+12       0.0%    100.0%      0.0%
 flops max/rank                    179.543920E+09       0.0%    100.0%      0.0%
 matmuls inhomo. stacks                         0       0.0%      0.0%      0.0%
 matmuls total                          158177344       0.0%    100.0%      0.0%
 number of processed stacks                419840       0.0%    100.0%      0.0%
 average stack size                                     0.0     376.8       0.0
 marketing flops                    31.211674E+12
 -------------------------------------------------------------------------------
 # multiplications                             82
 max memory usage/rank               1.878503E+09
 # max total images/rank                        1
 # max 3D layers                                1
 # MPI messages exchanged                   73472
 MPI messages size (bytes):
  total size                       220.645474E+09
  min size                           2.762496E+06
  max size                           3.077120E+06
  average size                       3.003123E+06
 MPI breakdown and total messages size (bytes):
             size <=      128                   0                        0
       128 < size <=     8192                   0                        0
      8192 < size <=    32768                   0                        0
     32768 < size <=   131072                   0                        0
    131072 < size <=  4194304               73472             220645600000
   4194304 < size <= 16777216                   0                        0
  16777216 < size                               0                        0
 -------------------------------------------------------------------------------
 -                                                                             -
 -                      DBCSR MESSAGE PASSING PERFORMANCE                      -
 -                                                                             -
 -------------------------------------------------------------------------------
 ROUTINE             CALLS      AVE VOLUME [Bytes]
 MP_Bcast               28                     12.
 MP_Allreduce          648                     10.
 MP_Alltoall          2296                1972544.
 MP_ISend             2624                1329597.
 MP_IRecv             2624                1310413.
 -------------------------------------------------------------------------------

 -------------------------------------------------------------------------------
 -                                                                             -
 -                                DBM STATISTICS                               -
 -                                                                             -
 -------------------------------------------------------------------------------
    M  x    N  x    K                                          COUNT     PERCENT
 -------------------------------------------------------------------------------

 -------------------------------------------------------------------------------
 -                                                                             -
 -                                GRID STATISTICS                              -
 -                                                                             -
 -------------------------------------------------------------------------------
 LP    KERNEL             BACKEND                              COUNT     PERCENT
 3     collocate general  REF                               56834282      18.86%
 3     integrate general  REF                               56199165      18.64%
 2     collocate general  REF                               53603974      17.78%
 2     integrate general  REF                               52950267      17.57%
 4     collocate general  REF                               40159500      13.32%
 4     integrate general  REF                               39669750      13.16%
 6     integrate general  REF                                 693101       0.23%
 5     integrate general  REF                                 653707       0.22%
 7     integrate general  REF                                 489750       0.16%
 0     collocate general  REF                                 115968       0.04%
 0     integrate general  REF                                  57984       0.02%
 -------------------------------------------------------------------------------

 MEMORY| Estimated peak process memory [MiB]                                2115

 -------------------------------------------------------------------------------
 ----                             MULTIGRID INFO                            ----
 -------------------------------------------------------------------------------
 count for grid        1:         730711          cutoff [a.u.]          200.00
 count for grid        2:         806976          cutoff [a.u.]           66.67
 count for grid        3:         741098          cutoff [a.u.]           22.22
 count for grid        4:         830966          cutoff [a.u.]            7.41
 total gridlevel count  :        3109751

 -------------------------------------------------------------------------------
 -                                                                             -
 -                         MESSAGE PASSING PERFORMANCE                         -
 -                                                                             -
 -------------------------------------------------------------------------------

 ROUTINE             CALLS      AVE VOLUME [Bytes]
 MP_Group                4
 MP_Bcast              264                2236233.
 MP_Allreduce         1376                   1822.
 MP_Sync                85
 MP_Alltoall          1820               13718530.
 MP_SendRecv           252                  14154.
 MP_ISendRecv        20664                 113680.
 MP_Wait             46228
 MP_ISend            23904                 340012.
 MP_IRecv            23904                 340012.
 MP_Recv               385                2460160.
 MP_Write_All            3                1540656.
 -------------------------------------------------------------------------------


 -------------------------------------------------------------------------------
 -                                                                             -
 -                           R E F E R E N C E S                               -
 -                                                                             -
 -------------------------------------------------------------------------------
 
 CP2K version 2022.1, the CP2K developers group (2022).
 CP2K is freely available from https://www.cp2k.org/ .

 Kuehne,Thomas D.; Iannuzzi,Marcella; Del Ben,Mauro;
 Rybkin,Vladimir V.; Seewald,Patrick; Stein,Frederick; Laino,Teodoro;
 Khaliullin,Rustam Z.; Schuett,Ole; Schiffmann,Florian; Golze,Dorothea;
 Wilhelm,Jan; Chulkov,Sergey; Bani-Hashemian,Mohammad Hossein;
 Weber,Valery; Borstnik,Urban; Taillefumier,Mathieu;
 Jakobovits,Alice Shoshana; Lazzaro,Alfio; Pabst,Hans; Mueller,Tiziano;
 Schade,Robert; Guidon,Manuel; Andermatt,Samuel; Holmberg,Nico;
 Schenter,Gregory K.; Hehn,Anna; Bussy,Augustin; Belleflamme,Fabian;
 Tabacchi,Gloria; Gloess,Andreas; Lass,Michael; Bethune,Iain;
 Mundy,Christopher J.; Plessl,Christian; Watkins,Matt;
 VandeVondele,Joost; Krack,Matthias; Hutter,Juerg. 
 The Journal of Chemical Physics, 152 (19), (2020). 
 CP2K: An electronic structure and molecular dynamics software package -
 Quickstep: Efficient and accurate electronic structure calculations.
 https://doi.org/10.1063/5.0007045

 Goerigk, Lars; Hansen, Andreas; Bauer, Christoph; Ehrlich, Stephan;
 Najibi, Asim; Grimme, Stefan. , 19 (48), (2017). 
 A look at the density functional theory zoo with the advanced GMTKN55 database
 for general main group thermochemistry, kinetics and noncovalent interactions.
 https://doi.org/10.1039/C7CP04913G

 Schuett, Ole; Messmer, Peter; Hutter, Juerg; VandeVondele, Joost. 
 Electronic Structure Calculations on Graphics Processing Units, John
 Wiley & Sons, Ltd, 173-190 (2016). 
 GPU-Accelerated Sparse Matrix-Matrix Multiplication for
 Linear Scaling Density Functional Theory.
 https://doi.org/10.1002/9781118670712.ch8

 Heinecke, A; Henry, G; Hutchinson, M; Pabst, H. 
 Proceedings of Intl. Supercomputing Conference, 981-991 (2016). 
 LIBXSMM: Accelerating Small Matrix Multiplications
 by Runtime Code Generation.
 https://doi.org/10.1109/SC.2016.83

 Borstnik, U; VandeVondele, J; Weber, V; Hutter, J. 
 PARALLEL COMPUTING, 40 (5-6), 47-58 (2014). 
 Sparse matrix multiplication: The distributed block-compressed sparse
 row library.
 https://doi.org/10.1016/j.parco.2014.03.012

 Hutter, J; Iannuzzi, M; Schiffmann, F; VandeVondele, J. 
 WIREs Comput Mol Sci., 4 (1), 15-25 (2014). 
 CP2K: atomistic simulations of condensed matter systems.
 https://doi.org/10.1002/wcms.1159

 Marek, A; Blum, V; Johanni, R; Havu, V; Lang, B; Auckenthaler, T;
 Heinecke, A; Bungartz, H; Lederer, H. 
 Journal of Physics: Condensed Matter, 26 (21), (2014). 
 The ELPA library: scalable parallel eigenvalue solutions for
 electronic structure
 theory and computational science.
 https://doi.org/10.1088/0953-8984/26/21/213201

 Grimme, S; Ehrlich, S; Goerigk, L. 
 JOURNAL OF COMPUTATIONAL CHEMISTRY, 32, 1456 (2011). 
 Effect of the damping function in dispersion corrected density functional theory.
 https://doi.org/10.1002/jcc.21759

 Grimme, S; Antony, J; Ehrlich, S; Krieg, H. 
 JOURNAL OF CHEMICAL PHYSICS, 132 (15), 154104 (2010). 
 A consistent and accurate ab initio parametrization of density
 functional dispersion correction (DFT-D) for the 94 elements H-Pu.
 https://doi.org/10.1063/1.3382344

 VandeVondele, J; Hutter, J. 
 JOURNAL OF CHEMICAL PHYSICS, 127 (11), 114105 (2007). 
 Gaussian basis sets for accurate calculations on molecular systems in
 gas and condensed phases.
 https://doi.org/10.1063/1.2770708

 Krack, M. 
 THEORETICAL CHEMISTRY ACCOUNTS, 114 (1-3), 145-152 (2005). 
 Pseudopotentials for H to Kr optimized for gradient-corrected
 exchange-correlation functionals.
 https://doi.org/10.1007/s00214-005-0655-y

 VandeVondele, J; Krack, M; Mohamed, F; Parrinello, M; Chassaing, T;
 Hutter, J. COMPUTER PHYSICS COMMUNICATIONS, 167 (2), 103-128 (2005). 
 QUICKSTEP: Fast and accurate density functional calculations using a
 mixed Gaussian and plane waves approach.
 https://doi.org/10.1016/j.cpc.2004.12.014

 Frigo, M; Johnson, SG. 
 PROCEEDINGS OF THE IEEE, 93 (2), 216-231 (2005). 
 The design and implementation of FFTW3.
 https://doi.org/10.1109/JPROC.2004.840301

 Hartwigsen, C; Goedecker, S; Hutter, J. 
 PHYSICAL REVIEW B, 58 (7), 3641-3662 (1998). 
 Relativistic separable dual-space Gaussian pseudopotentials from H to Rn.
 https://doi.org/10.1103/PhysRevB.58.3641

 Lippert, G; Hutter, J; Parrinello, M. 
 MOLECULAR PHYSICS, 92 (3), 477-487 (1997). 
 A hybrid Gaussian and plane wave density functional scheme.
 https://doi.org/10.1080/002689797170220

 Perdew, JP; Burke, K; Ernzerhof, M. 
 PHYSICAL REVIEW LETTERS, 77 (18), 3865-3868 (1996). 
 Generalized gradient approximation made simple.
 https://doi.org/10.1103/PhysRevLett.77.3865

 Goedecker, S; Teter, M; Hutter, J. 
 PHYSICAL REVIEW B, 54 (3), 1703-1710 (1996). 
 Separable dual-space Gaussian pseudopotentials.
 https://doi.org/10.1103/PhysRevB.54.1703


 -------------------------------------------------------------------------------
 -                                                                             -
 -                                T I M I N G                                  -
 -                                                                             -
 -------------------------------------------------------------------------------
 SUBROUTINE                       CALLS  ASD         SELF TIME        TOTAL TIME
                                MAXIMUM       AVERAGE  MAXIMUM  AVERAGE  MAXIMUM
 CP2K                                 1  1.0    0.026    0.036  968.852  968.854
 qs_forces                            1  2.0    0.002    0.003  968.442  968.445
 qs_energies                          1  3.0    0.000    0.000  955.924  955.929
 scf_env_do_scf                       1  4.0    0.000    0.001  947.708  947.947
 scf_env_do_scf_inner_loop           81  5.0    0.004    0.017  947.708  947.947
 qs_scf_new_mos                      81  6.0    0.006    0.018  386.003  386.535
 eigensolver                         81  7.0    0.007    0.011  358.785  359.112
 rebuild_ks_matrix                   82  7.0    0.000    0.000  299.193  299.241
 qs_ks_build_kohn_sham_matrix        82  8.0    0.012    0.015  299.193  299.241
 qs_ks_update_qs_env                 81  6.0    0.001    0.001  291.141  291.188
 qs_rho_update_rho_low               82  6.0    0.001    0.001  255.916  255.953
 calculate_rho_elec                  82  7.0    0.192    0.244  255.915  255.952
 sum_up_and_integrate                82  9.0    0.344    0.434  251.010  251.061
 integrate_v_rspace                  82 10.0    0.003    0.003  250.665  250.758
 grid_collocate_task_list            82  8.0  224.864  231.129  224.864  231.129
 grid_integrate_task_list            82 11.0  219.097  224.409  219.097  224.409
 cp_fm_diag_elpa                     81  8.0    0.001    0.001  210.487  211.001
 cp_fm_diag_elpa_base                81  9.0  207.281  208.070  210.156  210.239
 cp_fm_triangular_multiply          243  8.0  145.311  147.081  145.311  147.081
 pw_transfer                       1640 10.9    0.116    0.155   45.317   46.443
 fft_wrap_pw1pw2                   1476 12.0    0.014    0.018   44.800   45.891
 rs_pw_transfer                     660 10.5    0.007    0.008   39.696   45.243
 fft_wrap_pw1pw2_200                984 13.3    4.055    4.427   43.190   44.215
 qs_vxc_create                       82  9.0    0.003    0.003   42.530   42.774
 xc_vxc_pw_create                    82 10.0    0.750    0.791   42.528   42.772
 fft3d_ps                          1476 14.0   16.329   18.533   33.016   34.090
 density_rs2pw                       82  8.0    0.005    0.006   28.300   33.798
 xc_pw_derive                       492 12.0    0.008    0.010   27.129   28.503
 xc_rho_set_and_dset_create          82 11.0    0.397    0.436   22.805   24.440
 potential_pw2rs                     82 11.0    0.031    0.037   23.686   23.753
 mp_waitany                       23904 12.4   16.976   22.867   16.976   22.867
 rs_pw_transfer_RS2PW_200            84 10.0    5.332    5.949   15.588   21.109
 calculate_dm_sparse                 81  7.0    0.025    0.033   19.757   20.376
 cp_dbcsr_plus_fm_fm_t_native        82  8.0    0.004    0.006   19.685   20.364
 -------------------------------------------------------------------------------

 The number of warnings for this run is : 1
 
 -------------------------------------------------------------------------------
  **** **** ******  **  PROGRAM ENDED AT                 2023-11-26 16:54:00.450
 ***** ** ***  *** **   PROGRAM RAN ON                                     cu054
 **    ****   ******    PROGRAM RAN BY                                     jxzhu
 ***** **    ** ** **   PROGRAM PROCESS ID                                 36501
  **** **  *******  **  PROGRAM STOPPED IN /public/home/jxzhu/tmp_calc/af2075565
                                           805657d94fa4669dad6f4b174b0a4fb/calc/
                                           000200.000/pbc
