 DBCSR| CPU Multiplication driver                                           XSMM
 DBCSR| Multrec recursion limit                                              512
 DBCSR| Multiplication stack size                                           1000
 DBCSR| Maximum elements for images                                    UNLIMITED
 DBCSR| Multiplicative factor virtual images                                   1
 DBCSR| Use multiplication densification                                       T
 DBCSR| Multiplication size stacks                                             3
 DBCSR| Use memory pool for CPU allocation                                     F
 DBCSR| Number of 3D layers                                               SINGLE
 DBCSR| Use MPI memory allocation                                              F
 DBCSR| Use RMA algorithm                                                      F
 DBCSR| Use Communication thread                                               T
 DBCSR| Communication thread load                                             87
 DBCSR| MPI: My node id                                                        0
 DBCSR| MPI: Number of nodes                                                  64
 DBCSR| OMP: Current number of threads                                         1
 DBCSR| OMP: Max number of threads                                             1
 DBCSR| Split modifier for TAS multiplication algorithm                  1.0E+00


  **** **** ******  **  PROGRAM STARTED AT               2023-11-26 19:26:22.629
 ***** ** ***  *** **   PROGRAM STARTED ON                                 cu054
 **    ****   ******    PROGRAM STARTED BY                                 jxzhu
 ***** **    ** ** **   PROGRAM PROCESS ID                                   828
  **** **  *******  **  PROGRAM STARTED IN /public/home/jxzhu/tmp_calc/af2075565
                                           805657d94fa4669dad6f4b174b0a4fb/calc/
                                           002900.000/pbc

 CP2K| version string:                                       CP2K version 2022.1
 CP2K| source code revision number:                                  git:2caeb6f
 CP2K| cp2kflags: omp libint fftw3 libxc elpa parallel mpi3 scalapack cosma xsmm
 CP2K|             plumed2 spglib mkl sirius libvori libbqb
 CP2K| is freely available from                            https://www.cp2k.org/
 CP2K| Program compiled at                           Mon Jul 3 17:37:06 CST 2023
 CP2K| Program compiled on                                                 mu003
 CP2K| Program compiled for                                                local
 CP2K| Data directory path                             /public/home/jxzhu/basis/
 CP2K| Input file name                                                 input.inp
 
 GLOBAL| Force Environment number                                              1
 GLOBAL| Basis set file name                                        BASIS_MOLOPT
 GLOBAL| Potential file name                                      GTH_POTENTIALS
 GLOBAL| MM Potential file name                                     MM_POTENTIAL
 GLOBAL| Coordinate file name                                          coord.xyz
 GLOBAL| Method name                                                        CP2K
 GLOBAL| Project name                                                       cp2k
 GLOBAL| Run type                                                   ENERGY_FORCE
 GLOBAL| FFT library                                                       FFTW3
 GLOBAL| Diagonalization library                                            ELPA
 GLOBAL| Minimum number of eigenvectors for ELPA usage                        16
 GLOBAL| Orthonormality check for eigenvectors                          DISABLED
 GLOBAL| Matrix multiplication library                                     COSMA
 GLOBAL| All-to-all communication in single precision                          F
 GLOBAL| FFTs using library dependent lengths                                  F
 GLOBAL| Grid backend                                                       AUTO
 GLOBAL| Global print level                                               MEDIUM
 GLOBAL| MPI I/O enabled                                                       T
 GLOBAL| Total number of message passing processes                            64
 GLOBAL| Number of threads for this process                                    1
 GLOBAL| This output is from process                                           0
 GLOBAL| Stack size for threads created by OpenMP (OMP_STACKSIZE)        default
 GLOBAL| CPU model name                 Intel(R) Xeon(R) Gold 6338 CPU @ 2.00GHz
 GLOBAL| CPUID                                                              1003

 MEMORY| system memory details [Kb]
 MEMORY|                        rank 0           min           max       average
 MEMORY| MemTotal            263619172     263619172     263619172     263619172
 MEMORY| MemFree             209841232     209841232     209844332     209841861
 MEMORY| Buffers                  3320          3320          3320          3320
 MEMORY| Cached                4815464       4815464       4815464       4815464
 MEMORY| Slab                  1883848       1883848       1883848       1883848
 MEMORY| SReclaimable           246284        246284        246284        246284
 MEMORY| MemLikelyFree       214906300     214906300     214909400     214906929


 *** Fundamental physical constants (SI units) ***

 *** Literature: B. J. Mohr and B. N. Taylor,
 ***             CODATA recommended values of the fundamental physical
 ***             constants: 2006, Web Version 5.1
 ***             http://physics.nist.gov/constants

 Speed of light in vacuum [m/s]                             2.99792458000000E+08
 Magnetic constant or permeability of vacuum [N/A**2]       1.25663706143592E-06
 Electric constant or permittivity of vacuum [F/m]          8.85418781762039E-12
 Planck constant (h) [J*s]                                  6.62606896000000E-34
 Planck constant (h-bar) [J*s]                              1.05457162825177E-34
 Elementary charge [C]                                      1.60217648700000E-19
 Electron mass [kg]                                         9.10938215000000E-31
 Electron g factor [ ]                                     -2.00231930436220E+00
 Proton mass [kg]                                           1.67262163700000E-27
 Fine-structure constant                                    7.29735253760000E-03
 Rydberg constant [1/m]                                     1.09737315685270E+07
 Avogadro constant [1/mol]                                  6.02214179000000E+23
 Boltzmann constant [J/K]                                   1.38065040000000E-23
 Atomic mass unit [kg]                                      1.66053878200000E-27
 Bohr radius [m]                                            5.29177208590000E-11

 *** Conversion factors ***

 [u] -> [a.u.]                                              1.82288848426455E+03
 [Angstrom] -> [Bohr] = [a.u.]                              1.88972613288564E+00
 [a.u.] = [Bohr] -> [Angstrom]                              5.29177208590000E-01
 [a.u.] -> [s]                                              2.41888432650478E-17
 [a.u.] -> [fs]                                             2.41888432650478E-02
 [a.u.] -> [J]                                              4.35974393937059E-18
 [a.u.] -> [N]                                              8.23872205491840E-08
 [a.u.] -> [K]                                              3.15774647902944E+05
 [a.u.] -> [kJ/mol]                                         2.62549961709828E+03
 [a.u.] -> [kcal/mol]                                       6.27509468713739E+02
 [a.u.] -> [Pa]                                             2.94210107994716E+13
 [a.u.] -> [bar]                                            2.94210107994716E+08
 [a.u.] -> [atm]                                            2.90362800883016E+08
 [a.u.] -> [eV]                                             2.72113838565563E+01
 [a.u.] -> [Hz]                                             6.57968392072181E+15
 [a.u.] -> [1/cm] (wave numbers)                            2.19474631370540E+05
 [a.u./Bohr**2] -> [1/cm]                                   5.14048714338585E+03
 

 CELL_TOP| Volume [angstrom^3]:                                     10221.806009
 CELL_TOP| Vector a [angstrom    16.869     0.000     0.000   |a| =    16.869000
 CELL_TOP| Vector b [angstrom    -8.434    14.609     0.000   |b| =    16.869015
 CELL_TOP| Vector c [angstrom     0.000     0.000    41.478   |c| =    41.478000
 CELL_TOP| Angle (b,c), alpha [degree]:                                90.000000
 CELL_TOP| Angle (a,c), beta  [degree]:                                90.000000
 CELL_TOP| Angle (a,b), gamma [degree]:                               119.999970
 CELL_TOP| Numerically orthorhombic:                                          NO
 
 GENERATE|  Preliminary Number of Bonds generated:                             0
 GENERATE|  Achieved consistency in connectivity generation.

 CELL| Volume [angstrom^3]:                                         10221.806009
 CELL| Vector a [angstrom]:      16.869     0.000     0.000   |a| =    16.869000
 CELL| Vector b [angstrom]:      -8.434    14.609     0.000   |b| =    16.869015
 CELL| Vector c [angstrom]:       0.000     0.000    41.478   |c| =    41.478000
 CELL| Angle (b,c), alpha [degree]:                                    90.000000
 CELL| Angle (a,c), beta  [degree]:                                    90.000000
 CELL| Angle (a,b), gamma [degree]:                                   119.999970
 CELL| Numerically orthorhombic:                                              NO

 CELL_REF| Volume [angstrom^3]:                                     10221.806009
 CELL_REF| Vector a [angstrom    16.869     0.000     0.000   |a| =    16.869000
 CELL_REF| Vector b [angstrom    -8.434    14.609     0.000   |b| =    16.869015
 CELL_REF| Vector c [angstrom     0.000     0.000    41.478   |c| =    41.478000
 CELL_REF| Angle (b,c), alpha [degree]:                                90.000000
 CELL_REF| Angle (a,c), beta  [degree]:                                90.000000
 CELL_REF| Angle (a,b), gamma [degree]:                               119.999970
 CELL_REF| Numerically orthorhombic:                                          NO

 *******************************************************************************
 *******************************************************************************
 **                                                                           **
 **     #####                         ##              ##                      **
 **    ##   ##            ##          ##              ##                      **
 **   ##     ##                       ##            ######                    **
 **   ##     ##  ##   ##  ##   #####  ##  ##   ####   ##    #####    #####    **
 **   ##     ##  ##   ##  ##  ##      ## ##   ##      ##   ##   ##  ##   ##   **
 **   ##  ## ##  ##   ##  ##  ##      ####     ###    ##   ######   ######    **
 **    ##  ###   ##   ##  ##  ##      ## ##      ##   ##   ##       ##        **
 **     #######   #####   ##   #####  ##  ##  ####    ##    #####   ##        **
 **           ##                                                    ##        **
 **                                                                           **
 **                                                ... make the atoms dance   **
 **                                                                           **
 **            Copyright (C) by CP2K developers group (2000-2022)             **
 **                      J. Chem. Phys. 152, 194103 (2020)                    **
 **                                                                           **
 *******************************************************************************

 DFT| Spin restricted Kohn-Sham (RKS) calculation                            RKS
 DFT| Multiplicity                                                             1
 DFT| Number of spin states                                                    1
 DFT| Charge                                                                   0
 DFT| Self-interaction correction (SIC)                                       NO
 DFT| Cutoffs: density                                              1.000000E-10
 DFT|          gradient                                             1.000000E-10
 DFT|          tau                                                  1.000000E-10
 DFT|          cutoff_smoothing_range                               0.000000E+00
 DFT| XC density smoothing                                                  NONE
 DFT| XC derivatives                                                          PW

 FUNCTIONAL| PBE:
 FUNCTIONAL| J.P.Perdew, K.Burke, M.Ernzerhof, Phys. Rev. Letter, vol. 77, n 18,
 FUNCTIONAL|  pp. 3865-3868, (1996){spin unpolarized}                           

 vdW POTENTIAL|                                                   Pair Potential
 vdW POTENTIAL|          DFT-D3 (Version 3.1)
 vdW POTENTIAL|          Potential Form: S. Grimme et al, JCP 132: 154104 (2010)
 vdW POTENTIAL|          Zero Damping
 vdW POTENTIAL|          Cutoff Radius [Bohr]:                             20.00
 vdW POTENTIAL|          s6 Scaling Factor:                               1.0000
 vdW POTENTIAL|          sr6 Scaling Factor:                              1.2170
 vdW POTENTIAL|          s8 Scaling Factor:                               0.7220
 vdW POTENTIAL|          Cutoff for CN calculation:                   0.1000E-05

 QS| Method:                                                                 GPW
 QS| Density plane wave grid type                        NON-SPHERICAL FULLSPACE
 QS| Number of grid levels:                                                    4
 QS| Density cutoff [a.u.]:                                                200.0
 QS| Multi grid cutoff [a.u.]: 1) grid level                               200.0
 QS|                           2) grid level                                66.7
 QS|                           3) grid level                                22.2
 QS|                           4) grid level                                 7.4
 QS| Grid level progression factor:                                          3.0
 QS| Relative density cutoff [a.u.]:                                        20.0
 QS| Interaction thresholds: eps_pgf_orb:                                3.2E-07
 QS|                         eps_filter_matrix:                          0.0E+00
 QS|                         eps_core_charge:                            1.0E-15
 QS|                         eps_rho_gspace:                             1.0E-13
 QS|                         eps_rho_rspace:                             1.0E-13
 QS|                         eps_gvg_rspace:                             3.2E-07
 QS|                         eps_ppl:                                    1.0E-02
 QS|                         eps_ppnl:                                   3.2E-09


 ATOMIC KIND INFORMATION

  1. Atomic kind: O                                     Number of atoms:     230

     Orbital Basis Set                                        DZVP-MOLOPT-SR-GTH

       Number of orbital shell sets:                                           1
       Number of orbital shells:                                               5
       Number of primitive Cartesian functions:                                5
       Number of Cartesian basis functions:                                   14
       Number of spherical basis functions:                                   13
       Norm type:                                                              2

       Normalised Cartesian orbitals:

                        Set   Shell   Orbital            Exponent    Coefficient

                          1       1    2s               10.389228       0.396646
                                                         3.849621       0.208811
                                                         1.388401      -0.301641
                                                         0.496955      -0.274061
                                                         0.162492      -0.033677

                          1       2    3s               10.389228       0.303673
                                                         3.849621       0.240943
                                                         1.388401      -0.313066
                                                         0.496955      -0.043055
                                                         0.162492       0.213991

                          1       3    3px              10.389228      -1.530415
                                                         3.849621      -1.371928
                                                         1.388401      -0.761951
                                                         0.496955      -0.253695
                                                         0.162492      -0.035541
                          1       3    3py              10.389228      -1.530415
                                                         3.849621      -1.371928
                                                         1.388401      -0.761951
                                                         0.496955      -0.253695
                                                         0.162492      -0.035541
                          1       3    3pz              10.389228      -1.530415
                                                         3.849621      -1.371928
                                                         1.388401      -0.761951
                                                         0.496955      -0.253695
                                                         0.162492      -0.035541

                          1       4    4px              10.389228      -0.565392
                                                         3.849621      -0.038231
                                                         1.388401      -0.382373
                                                         0.496955       0.179070
                                                         0.162492       0.122714
                          1       4    4py              10.389228      -0.565392
                                                         3.849621      -0.038231
                                                         1.388401      -0.382373
                                                         0.496955       0.179070
                                                         0.162492       0.122714
                          1       4    4pz              10.389228      -0.565392
                                                         3.849621      -0.038231
                                                         1.388401      -0.382373
                                                         0.496955       0.179070
                                                         0.162492       0.122714

                          1       5    4dx2             10.389228       1.867377
                                                         3.849621       0.670994
                                                         1.388401       1.353441
                                                         0.496955       0.273538
                                                         0.162492       0.006620
                          1       5    4dxy             10.389228       3.234392
                                                         3.849621       1.162195
                                                         1.388401       2.344229
                                                         0.496955       0.473781
                                                         0.162492       0.011466
                          1       5    4dxz             10.389228       3.234392
                                                         3.849621       1.162195
                                                         1.388401       2.344229
                                                         0.496955       0.473781
                                                         0.162492       0.011466
                          1       5    4dy2             10.389228       1.867377
                                                         3.849621       0.670994
                                                         1.388401       1.353441
                                                         0.496955       0.273538
                                                         0.162492       0.006620
                          1       5    4dyz             10.389228       3.234392
                                                         3.849621       1.162195
                                                         1.388401       2.344229
                                                         0.496955       0.473781
                                                         0.162492       0.011466
                          1       5    4dz2             10.389228       1.867377
                                                         3.849621       0.670994
                                                         1.388401       1.353441
                                                         0.496955       0.273538
                                                         0.162492       0.006620

       Atomic covalent radius [Angstrom]:                                  0.730

       Atomic van der Waals radius [Angstrom]:                             1.520

     GTH Potential information for                                    GTH-PBE-q6

       Description:                       Goedecker-Teter-Hutter pseudopotential
                                           Goedecker et al., PRB 54, 1703 (1996)
                                          Hartwigsen et al., PRB 58, 3641 (1998)
                                                      Krack, TCA 114, 145 (2005)

       Gaussian exponent of the core charge distribution:               8.360253
       Electronic configuration (s p d ...):                               2   4

       Parameters of the local part of the GTH pseudopotential:

                          rloc        C1          C2          C3          C4
                        0.244554  -16.667215    2.487311

       Parameters of the non-local part of the GTH pseudopotential:

                   l      r(l)      h(i,j,l)

                   0    0.220956   18.337458
                   1    0.211332

  2. Atomic kind: H                                     Number of atoms:     460

     Orbital Basis Set                                        DZVP-MOLOPT-SR-GTH

       Number of orbital shell sets:                                           1
       Number of orbital shells:                                               3
       Number of primitive Cartesian functions:                                5
       Number of Cartesian basis functions:                                    5
       Number of spherical basis functions:                                    5
       Norm type:                                                              2

       Normalised Cartesian orbitals:

                        Set   Shell   Orbital            Exponent    Coefficient

                          1       1    2s               10.068468      -0.133023
                                                         2.680223      -0.177618
                                                         0.791502      -0.258419
                                                         0.239116      -0.107525
                                                         0.082193      -0.014019

                          1       2    3s               10.068468       0.344673
                                                         2.680223       1.819821
                                                         0.791502      -0.999069
                                                         0.239116       0.017430
                                                         0.082193       0.082660

                          1       3    3px              10.068468       0.155326
                                                         2.680223       0.367157
                                                         0.791502       0.311480
                                                         0.239116       0.080105
                                                         0.082193       0.033440
                          1       3    3py              10.068468       0.155326
                                                         2.680223       0.367157
                                                         0.791502       0.311480
                                                         0.239116       0.080105
                                                         0.082193       0.033440
                          1       3    3pz              10.068468       0.155326
                                                         2.680223       0.367157
                                                         0.791502       0.311480
                                                         0.239116       0.080105
                                                         0.082193       0.033440

       Atomic covalent radius [Angstrom]:                                  0.320

       Atomic van der Waals radius [Angstrom]:                             1.090

     GTH Potential information for                                    GTH-PBE-q1

       Description:                       Goedecker-Teter-Hutter pseudopotential
                                           Goedecker et al., PRB 54, 1703 (1996)
                                          Hartwigsen et al., PRB 58, 3641 (1998)
                                                      Krack, TCA 114, 145 (2005)

       Gaussian exponent of the core charge distribution:              12.500000
       Electronic configuration (s p d ...):                                   1

       Parameters of the local part of the GTH pseudopotential:

                          rloc        C1          C2          C3          C4
                        0.200000   -4.178900    0.724463

  3. Atomic kind: Pt                                    Number of atoms:     216

     Orbital Basis Set                      DZVP-A5-Q10-323-MOL-T1-DERIVED_SET-1

       Number of orbital shell sets:                                           1
       Number of orbital shells:                                               6
       Number of primitive Cartesian functions:                                5
       Number of Cartesian basis functions:                                   23
       Number of spherical basis functions:                                   20
       Norm type:                                                              2

       Normalised Cartesian orbitals:

                        Set   Shell   Orbital            Exponent    Coefficient

                          1       1    2s                2.521825       0.177473
                                                         1.453920      -0.063399
                                                         0.614053      -0.407089
                                                         0.232656       0.262254
                                                         0.074788       0.047371

                          1       2    3s                2.521825      -0.049056
                                                         1.453920       0.044904
                                                         0.614053      -0.009756
                                                         0.232656      -0.144709
                                                         0.074788       0.144085

                          1       3    3px               2.521825      -0.317572
                                                         1.453920       0.534826
                                                         0.614053      -0.489458
                                                         0.232656       0.245631
                                                         0.074788       0.018221
                          1       3    3py               2.521825      -0.317572
                                                         1.453920       0.534826
                                                         0.614053      -0.489458
                                                         0.232656       0.245631
                                                         0.074788       0.018221
                          1       3    3pz               2.521825      -0.317572
                                                         1.453920       0.534826
                                                         0.614053      -0.489458
                                                         0.232656       0.245631
                                                         0.074788       0.018221

                          1       4    4dx2              2.521825       3.008522
                                                         1.453920      -1.224251
                                                         0.614053       0.225691
                                                         0.232656       0.125144
                                                         0.074788      -0.015348
                          1       4    4dxy              2.521825       5.210912
                                                         1.453920      -2.120465
                                                         0.614053       0.390909
                                                         0.232656       0.216756
                                                         0.074788      -0.026584
                          1       4    4dxz              2.521825       5.210912
                                                         1.453920      -2.120465
                                                         0.614053       0.390909
                                                         0.232656       0.216756
                                                         0.074788      -0.026584
                          1       4    4dy2              2.521825       3.008522
                                                         1.453920      -1.224251
                                                         0.614053       0.225691
                                                         0.232656       0.125144
                                                         0.074788      -0.015348
                          1       4    4dyz              2.521825       5.210912
                                                         1.453920      -2.120465
                                                         0.614053       0.390909
                                                         0.232656       0.216756
                                                         0.074788      -0.026584
                          1       4    4dz2              2.521825       3.008522
                                                         1.453920      -1.224251
                                                         0.614053       0.225691
                                                         0.232656       0.125144
                                                         0.074788      -0.015348

                          1       5    5dx2              2.521825       0.698026
                                                         1.453920      -1.511486
                                                         0.614053      -0.335394
                                                         0.232656      -0.025564
                                                         0.074788      -0.002699
                          1       5    5dxy              2.521825       1.209017
                                                         1.453920      -2.617970
                                                         0.614053      -0.580920
                                                         0.232656      -0.044277
                                                         0.074788      -0.004674
                          1       5    5dxz              2.521825       1.209017
                                                         1.453920      -2.617970
                                                         0.614053      -0.580920
                                                         0.232656      -0.044277
                                                         0.074788      -0.004674
                          1       5    5dy2              2.521825       0.698026
                                                         1.453920      -1.511486
                                                         0.614053      -0.335394
                                                         0.232656      -0.025564
                                                         0.074788      -0.002699
                          1       5    5dyz              2.521825       1.209017
                                                         1.453920      -2.617970
                                                         0.614053      -0.580920
                                                         0.232656      -0.044277
                                                         0.074788      -0.004674
                          1       5    5dz2              2.521825       0.698026
                                                         1.453920      -1.511486
                                                         0.614053      -0.335394
                                                         0.232656      -0.025564
                                                         0.074788      -0.002699

                          1       6    6dx2              2.521825       0.831079
                                                         1.453920      -0.709226
                                                         0.614053      -0.137351
                                                         0.232656       0.068642
                                                         0.074788       0.011745
                          1       6    6dxy              2.521825       1.439472
                                                         1.453920      -1.228415
                                                         0.614053      -0.237899
                                                         0.232656       0.118891
                                                         0.074788       0.020343
                          1       6    6dxz              2.521825       1.439472
                                                         1.453920      -1.228415
                                                         0.614053      -0.237899
                                                         0.232656       0.118891
                                                         0.074788       0.020343
                          1       6    6dy2              2.521825       0.831079
                                                         1.453920      -0.709226
                                                         0.614053      -0.137351
                                                         0.232656       0.068642
                                                         0.074788       0.011745
                          1       6    6dyz              2.521825       1.439472
                                                         1.453920      -1.228415
                                                         0.614053      -0.237899
                                                         0.232656       0.118891
                                                         0.074788       0.020343
                          1       6    6dz2              2.521825       0.831079
                                                         1.453920      -0.709226
                                                         0.614053      -0.137351
                                                         0.232656       0.068642
                                                         0.074788       0.011745

       Atomic covalent radius [Angstrom]:                                  1.300

       Atomic van der Waals radius [Angstrom]:                             1.750

     GTH Potential information for                                   GTH-PBE-q10

       Description:                       Goedecker-Teter-Hutter pseudopotential
                                           Goedecker et al., PRB 54, 1703 (1996)
                                          Hartwigsen et al., PRB 58, 3641 (1998)
                                                      Krack, TCA 114, 145 (2005)

       Gaussian exponent of the core charge distribution:               1.317676
       Electronic configuration (s p d ...):                           1   0   9

       Parameters of the local part of the GTH pseudopotential:

                          rloc        C1          C2          C3          C4
                        0.616000   11.313635

       Parameters of the non-local part of the GTH pseudopotential:

                   l      r(l)      h(i,j,l)

                   0    0.550904    4.733491   -1.784594
                                   -1.784594    2.303901
                   1    0.674138    2.534798   -1.778066
                                   -1.778066    2.103836
                   2    0.457392   -7.264011    2.558665
                                    2.558665   -2.901253


 MOLECULE KIND INFORMATION


 All atoms are their own molecule, skipping detailed information


 TOTAL NUMBERS AND MAXIMUM NUMBERS

  Total number of            - Atomic kinds:                                   3
                             - Atoms:                                        906
                             - Shell sets:                                   906
                             - Shells:                                      3826
                             - Primitive Cartesian functions:               4530
                             - Cartesian basis functions:                  10488
                             - Spherical basis functions:                   9610

  Maximum angular momentum of- Orbital basis functions:                        2
                             - Local part of the GTH pseudopotential:          2
                             - Non-local part of the GTH pseudopotential:      4


 MODULE QUICKSTEP:  ATOMIC COORDINATES IN angstrom

 Atom  Kind  Element       X           Y           Z          Z(eff)       Mass
    1   1 O    8       4.140000   -2.840000    9.030001       6.0000     15.9994
    2   2 H    1       4.400000   -1.970000    9.460000       1.0000      1.0079
    3   2 H    1       3.230000   -2.850000    8.720000       1.0000      1.0079
    4   1 O    8      14.840001   10.600000   11.900001       6.0000     15.9994
    5   2 H    1      14.050001   11.140001   11.960001       1.0000      1.0079
    6   2 H    1      15.150002   10.700001   10.960001       1.0000      1.0079
    7   1 O    8     -11.260000  -24.580002    8.150001       6.0000     15.9994
    8   2 H    1     -11.860001  -25.380001    8.200001       1.0000      1.0079
    9   2 H    1     -11.840000  -23.810001    8.360001       1.0000      1.0079
   10   1 O    8      27.780001    5.530000   12.850000       6.0000     15.9994
   11   2 H    1      27.480001    4.580000   12.640000       1.0000      1.0079
   12   2 H    1      28.050001    5.550000   13.810000       1.0000      1.0079
   13   1 O    8      16.370001  -25.630001   21.850002       6.0000     15.9994
   14   2 H    1      17.210001  -26.120003   21.550003       1.0000      1.0079
   15   2 H    1      15.520000  -26.120003   21.580000       1.0000      1.0079
   16   1 O    8       9.260000   31.810001   14.920001       6.0000     15.9994
   17   2 H    1      10.320001   31.820002   14.990001       1.0000      1.0079
   18   2 H    1       9.080001   30.870001   14.630001       1.0000      1.0079
   19   1 O    8     -18.620001   -0.800000   27.140003       6.0000     15.9994
   20   2 H    1     -17.880001   -1.260000   27.560001       1.0000      1.0079
   21   2 H    1     -19.330002   -1.430000   27.160000       1.0000      1.0079
   22   1 O    8      13.670001   28.260002    8.990001       6.0000     15.9994
   23   2 H    1      13.110001   28.120001    9.780001       1.0000      1.0079
   24   2 H    1      21.560001   13.500000    8.260000       1.0000      1.0079
   25   1 O    8     -38.240002  -22.850000   19.350000       6.0000     15.9994
   26   2 H    1     -38.639999  -22.180002   19.920002       1.0000      1.0079
   27   2 H    1     -37.570004  -22.390001   18.760000       1.0000      1.0079
   28   1 O    8      29.240000   16.990002   24.620001       6.0000     15.9994
   29   2 H    1      29.210003   18.040001   24.650002       1.0000      1.0079
   30   2 H    1      28.360003   16.720001   24.710003       1.0000      1.0079
   31   1 O    8      23.890001   10.420000   14.180001       6.0000     15.9994
   32   2 H    1      23.670002   10.420000   13.190001       1.0000      1.0079
   33   2 H    1      23.160002    9.970000   14.750000       1.0000      1.0079
   34   1 O    8     -10.240001  -47.090000   11.630001       6.0000     15.9994
   35   2 H    1     -10.950001  -46.420002   11.540001       1.0000      1.0079
   36   2 H    1     -10.410000  -47.830002   10.970000       1.0000      1.0079
   37   1 O    8      -2.340000  -19.680000   23.620003       6.0000     15.9994
   38   2 H    1      -2.130000  -19.030001   22.900002       1.0000      1.0079
   39   2 H    1      -2.050000  -19.290001   24.490002       1.0000      1.0079
   40   1 O    8      34.440002   26.890001   11.190001       6.0000     15.9994
   41   2 H    1      34.889999   26.370001   11.950001       1.0000      1.0079
   42   2 H    1      33.450005   26.760002   11.320001       1.0000      1.0079
   43   1 O    8      -9.740001  -18.750002   33.100002       6.0000     15.9994
   44   2 H    1     -10.050000  -19.680000   32.840000       1.0000      1.0079
   45   2 H    1      -8.820001  -18.690001   32.810001       1.0000      1.0079
   46   1 O    8      11.320001   17.660000   33.450005       6.0000     15.9994
   47   2 H    1      11.120001   16.700001   33.250000       1.0000      1.0079
   48   2 H    1      12.220000   17.850000   33.049999       1.0000      1.0079
   49   1 O    8     -23.530003   17.960001   29.660000       6.0000     15.9994
   50   2 H    1     -23.050001   17.830002   28.820002       1.0000      1.0079
   51   2 H    1     -24.300001   17.330000   29.670002       1.0000      1.0079
   52   1 O    8     -16.800001   24.310001   26.250002       6.0000     15.9994
   53   2 H    1     -16.570000   23.470001   26.740000       1.0000      1.0079
   54   2 H    1     -17.730001   24.220001   25.930002       1.0000      1.0079
   55   1 O    8      -3.440000  -13.170000   27.070000       6.0000     15.9994
   56   2 H    1      -3.770000  -12.680000   26.230001       1.0000      1.0079
   57   2 H    1      -3.020000  -13.900002   26.670000       1.0000      1.0079
   58   1 O    8      21.260002    2.470000    8.970000       6.0000     15.9994
   59   2 H    1      21.709999    1.640000    9.030001       1.0000      1.0079
   60   2 H    1      20.260000    2.340000    8.850000       1.0000      1.0079
   61   1 O    8     -16.360001   41.320000   29.520000       6.0000     15.9994
   62   2 H    1     -17.000000   41.990005   29.150002       1.0000      1.0079
   63   2 H    1       0.450000   41.470001   30.460003       1.0000      1.0079
   64   1 O    8      28.870001  -26.240002   15.170001       6.0000     15.9994
   65   2 H    1      29.520000  -26.310001   14.430000       1.0000      1.0079
   66   2 H    1      46.220001  -26.600000   15.960001       1.0000      1.0079
   67   1 O    8       7.320001    6.530001   29.890001       6.0000     15.9994
   68   2 H    1      -2.010000   20.670002   29.770002       1.0000      1.0079
   69   2 H    1       7.660000    6.070001   30.690002       1.0000      1.0079
   70   1 O    8       7.110000    8.060000   32.300003       6.0000     15.9994
   71   2 H    1       6.410000    7.370000   32.270004       1.0000      1.0079
   72   2 H    1       7.060000    8.280001   31.350002       1.0000      1.0079
   73   1 O    8     -22.260000    0.430000   29.430000       6.0000     15.9994
   74   2 H    1     -21.350000    0.800000   29.480001       1.0000      1.0079
   75   2 H    1     -22.180002   -0.430000   28.980003       1.0000      1.0079
   76   1 O    8       0.250000    1.080000   29.390001       6.0000     15.9994
   77   2 H    1      -0.440000    0.630000   29.910002       1.0000      1.0079
   78   2 H    1       0.970000    0.430000   29.320002       1.0000      1.0079
   79   1 O    8      -7.120000  -34.320000   20.150002       6.0000     15.9994
   80   2 H    1      -7.670000  -35.170002   20.220001       1.0000      1.0079
   81   2 H    1      -7.490000  -33.860001   19.370001       1.0000      1.0079
   82   1 O    8      27.440002  -26.080000   11.820001       6.0000     15.9994
   83   2 H    1      26.580002  -26.570000   11.620001       1.0000      1.0079
   84   2 H    1      28.120001  -26.270000   11.160001       1.0000      1.0079
   85   1 O    8      -5.950000   10.600000   24.920002       6.0000     15.9994
   86   2 H    1      -5.650000    9.790000   24.380001       1.0000      1.0079
   87   2 H    1      -6.840000   10.410000   25.270002       1.0000      1.0079
   88   1 O    8      12.240001   -5.440001    9.000000       6.0000     15.9994
   89   2 H    1      -4.770000   -5.470000    7.970000       1.0000      1.0079
   90   2 H    1      12.440001   -6.370000    9.120001       1.0000      1.0079
   91   1 O    8      -4.500000   -3.150000   14.200001       6.0000     15.9994
   92   2 H    1      -5.420001   -2.850000   14.080001       1.0000      1.0079
   93   2 H    1      -4.050000   -2.620000   13.540001       1.0000      1.0079
   94   1 O    8      15.650001   55.740005    8.140000       6.0000     15.9994
   95   2 H    1      14.920001   56.340004    8.360001       1.0000      1.0079
   96   2 H    1      15.310000   54.820004    8.450001       1.0000      1.0079
   97   1 O    8     -20.130001   -8.750001   11.470001       6.0000     15.9994
   98   2 H    1     -20.270002   -8.440001   12.390001       1.0000      1.0079
   99   2 H    1     -19.090000   -8.800000   11.390000       1.0000      1.0079
  100   1 O    8       8.850000    2.360000   17.540001       6.0000     15.9994
  101   2 H    1       9.810000    2.100000   17.920000       1.0000      1.0079
  102   2 H    1       8.960000    2.460000   16.570000       1.0000      1.0079
  103   1 O    8      32.830002   22.240002    9.000000       6.0000     15.9994
  104   2 H    1      32.600002   21.660002    8.270000       1.0000      1.0079
  105   2 H    1      16.940001   22.330000    8.980000       1.0000      1.0079
  106   1 O    8     -10.250001   15.960001    9.460000       6.0000     15.9994
  107   2 H    1     -10.610001   15.130001    8.970000       1.0000      1.0079
  108   2 H    1      -9.690001   16.420000    8.860001       1.0000      1.0079
  109   1 O    8      36.200001   10.610001   11.010000       6.0000     15.9994
  110   2 H    1      36.540001   10.090000   10.200001       1.0000      1.0079
  111   2 H    1      36.400002    9.960001   11.740000       1.0000      1.0079
  112   1 O    8     -42.690002    7.860000   16.920000       6.0000     15.9994
  113   2 H    1     -41.980003    7.240000   17.240002       1.0000      1.0079
  114   2 H    1     -42.290001    8.160001   16.030001       1.0000      1.0079
  115   1 O    8      19.580000   19.540001    8.210000       6.0000     15.9994
  116   2 H    1      19.890001   18.690001    8.650001       1.0000      1.0079
  117   2 H    1      18.640001   19.570002    8.190001       1.0000      1.0079
  118   1 O    8     -31.590002   26.130001   20.450001       6.0000     15.9994
  119   2 H    1     -32.560001   26.140001   20.440002       1.0000      1.0079
  120   2 H    1     -31.390001   26.390001   21.350000       1.0000      1.0079
  121   1 O    8       8.290001    1.500000   11.680001       6.0000     15.9994
  122   2 H    1       7.540000    2.000000   12.210001       1.0000      1.0079
  123   2 H    1       8.040000    1.590000   10.720000       1.0000      1.0079
  124   1 O    8     -19.010002   11.730001   21.650002       6.0000     15.9994
  125   2 H    1     -26.420002   26.310001   21.620003       1.0000      1.0079
  126   2 H    1     -19.380001   11.130000   20.930002       1.0000      1.0079
  127   1 O    8     -12.090001   -8.500000   11.550001       6.0000     15.9994
  128   2 H    1     -12.280001   -7.990000   10.740000       1.0000      1.0079
  129   2 H    1     -21.420002    5.990000   11.890000       1.0000      1.0079
  130   1 O    8      -8.210000   21.700001   19.880001       6.0000     15.9994
  131   2 H    1      -9.000000   21.370001   20.340002       1.0000      1.0079
  132   2 H    1      -8.470000   21.780003   18.970001       1.0000      1.0079
  133   1 O    8       5.440001   24.010000    8.140000       6.0000     15.9994
  134   2 H    1       5.150001   23.090000    8.640000       1.0000      1.0079
  135   2 H    1       4.930000   24.780003    8.460000       1.0000      1.0079
  136   1 O    8     -40.620003   10.360001   32.710003       6.0000     15.9994
  137   2 H    1     -40.000000    9.670001   33.090004       1.0000      1.0079
  138   2 H    1     -40.030003   11.140001   32.770000       1.0000      1.0079
  139   1 O    8     -17.480000   -1.250000   22.840002       6.0000     15.9994
  140   2 H    1     -17.630001   -2.230000   22.700003       1.0000      1.0079
  141   2 H    1     -16.570000   -1.280000   23.300001       1.0000      1.0079
  142   1 O    8       5.050000    9.400001   15.640001       6.0000     15.9994
  143   2 H    1       4.610000    8.950001   14.890001       1.0000      1.0079
  144   2 H    1       4.600000   10.320001   15.580001       1.0000      1.0079
  145   1 O    8     -21.870001   37.800003   23.370001       6.0000     15.9994
  146   2 H    1      -4.120000   37.930000   23.770000       1.0000      1.0079
  147   2 H    1     -22.150002   36.959999   23.820002       1.0000      1.0079
  148   1 O    8     -25.180000    2.480000   25.730001       6.0000     15.9994
  149   2 H    1     -24.480001    2.360000   26.390001       1.0000      1.0079
  150   2 H    1     -24.940002    3.350000   25.250000       1.0000      1.0079
  151   1 O    8     -13.000001    7.080000   28.070002       6.0000     15.9994
  152   2 H    1     -12.500000    6.890000   27.230000       1.0000      1.0079
  153   2 H    1     -13.900002    7.370000   27.730003       1.0000      1.0079
  154   1 O    8     -24.440001   -4.880000   14.770001       6.0000     15.9994
  155   2 H    1     -25.340002   -5.300000   14.640001       1.0000      1.0079
  156   2 H    1     -24.190002   -5.420001   15.590000       1.0000      1.0079
  157   1 O    8      25.640001  -10.640000    9.270000       6.0000     15.9994
  158   2 H    1      26.130001   -9.790000    9.000000       1.0000      1.0079
  159   2 H    1      24.690001  -10.390000    9.350000       1.0000      1.0079
  160   1 O    8       0.150000   -9.790000    8.930000       6.0000     15.9994
  161   2 H    1       0.150000   -9.670001    9.910001       1.0000      1.0079
  162   2 H    1      -0.810000   -9.690001    8.740000       1.0000      1.0079
  163   1 O    8      52.440002   -6.340000    8.930000       6.0000     15.9994
  164   2 H    1      52.340004   -6.800000    8.080000       1.0000      1.0079
  165   2 H    1      52.240005   -5.380001    8.700001       1.0000      1.0079
  166   1 O    8       2.370000   -8.330001   24.660000       6.0000     15.9994
  167   2 H    1       2.540000   -8.600000   25.580002       1.0000      1.0079
  168   2 H    1       1.750000   -8.950001   24.230001       1.0000      1.0079
  169   1 O    8     -48.150002  -14.210001   32.070004       6.0000     15.9994
  170   2 H    1     -32.220001  -14.250001   32.190002       1.0000      1.0079
  171   2 H    1     -31.210001  -14.390000   31.110001       1.0000      1.0079
  172   1 O    8      15.240001    1.400000   18.670002       6.0000     15.9994
  173   2 H    1      15.680000    0.750000   19.260002       1.0000      1.0079
  174   2 H    1      15.930000    1.850000   18.150002       1.0000      1.0079
  175   1 O    8      12.220000  -28.340000   22.380001       6.0000     15.9994
  176   2 H    1      12.770000  -27.640001   22.000000       1.0000      1.0079
  177   2 H    1      11.290001  -28.150002   22.260000       1.0000      1.0079
  178   1 O    8      -9.820001   22.299999   28.590002       6.0000     15.9994
  179   2 H    1      -9.270000   23.090000   28.549999       1.0000      1.0079
  180   2 H    1      -9.320001   21.520002   28.900002       1.0000      1.0079
  181   1 O    8      26.760002   26.830002   13.990001       6.0000     15.9994
  182   2 H    1      26.390001   27.130001   13.110001       1.0000      1.0079
  183   2 H    1      26.320002   25.990002   14.250001       1.0000      1.0079
  184   1 O    8      21.450003  -15.670000   20.490000       6.0000     15.9994
  185   2 H    1      21.430000  -14.960001   21.210001       1.0000      1.0079
  186   2 H    1      21.690002  -15.270000   19.650002       1.0000      1.0079
  187   1 O    8     -23.050001   52.140003   12.530001       6.0000     15.9994
  188   2 H    1     -23.500002   52.350002   13.350000       1.0000      1.0079
  189   2 H    1     -22.180002   51.710007   12.720001       1.0000      1.0079
  190   1 O    8      20.870001   17.700001    9.530001       6.0000     15.9994
  191   2 H    1      21.690002   18.230001    9.430000       1.0000      1.0079
  192   2 H    1      21.080000   16.780001    9.230001       1.0000      1.0079
  193   1 O    8       5.350000   -7.750000   32.450001       6.0000     15.9994
  194   2 H    1       5.550000   -7.680000   33.410000       1.0000      1.0079
  195   2 H    1       4.570000   -8.380001   32.290001       1.0000      1.0079
  196   1 O    8     -29.660000  -14.250001   25.080002       6.0000     15.9994
  197   2 H    1     -29.790001  -14.130001   24.090002       1.0000      1.0079
  198   2 H    1     -28.670002  -14.380001   25.060001       1.0000      1.0079
  199   1 O    8     -24.820002   26.160002   21.760002       6.0000     15.9994
  200   2 H    1     -24.360001   26.840000   21.100002       1.0000      1.0079
  201   2 H    1     -24.760000   25.260000   21.240002       1.0000      1.0079
  202   1 O    8      23.190001    9.850000    9.380000       6.0000     15.9994
  203   2 H    1      22.250002    9.730001    9.070001       1.0000      1.0079
  204   2 H    1      23.680000    8.960000    9.180000       1.0000      1.0079
  205   1 O    8      17.270000   14.630001   15.310000       6.0000     15.9994
  206   2 H    1       9.120001   28.490002   14.670001       1.0000      1.0079
  207   2 H    1      17.620001   14.370001   16.210001       1.0000      1.0079
  208   1 O    8     -32.930000   -0.130000    9.120001       6.0000     15.9994
  209   2 H    1     -33.470001   -0.180000    8.260000       1.0000      1.0079
  210   2 H    1     -32.720001   -1.040000    9.420000       1.0000      1.0079
  211   1 O    8      14.710001    2.530000   32.280003       6.0000     15.9994
  212   2 H    1      14.500000    2.860000   31.350002       1.0000      1.0079
  213   2 H    1      15.340000    3.160000   32.650002       1.0000      1.0079
  214   1 O    8      29.500000    8.040000   28.040001       6.0000     15.9994
  215   2 H    1      29.010000    8.060000   28.930000       1.0000      1.0079
  216   2 H    1      30.480001    7.870001   28.350000       1.0000      1.0079
  217   1 O    8     -42.239998   31.290001    8.810000       6.0000     15.9994
  218   2 H    1     -42.760002   30.920002    8.010000       1.0000      1.0079
  219   2 H    1     -42.070004   32.250000    8.490001       1.0000      1.0079
  220   1 O    8      39.190002    3.000000   32.550003       6.0000     15.9994
  221   2 H    1      39.720001    3.830000   32.330002       1.0000      1.0079
  222   2 H    1      39.520000    2.490000   33.400002       1.0000      1.0079
  223   1 O    8       8.870000    8.720000   14.700001       6.0000     15.9994
  224   2 H    1      25.000000    9.360001   14.460001       1.0000      1.0079
  225   2 H    1       8.990001    8.230000   13.820001       1.0000      1.0079
  226   1 O    8      17.670000   51.420002   12.350000       6.0000     15.9994
  227   2 H    1      18.040001   52.310005   11.930000       1.0000      1.0079
  228   2 H    1      35.280003   50.730003   12.630000       1.0000      1.0079
  229   1 O    8     -21.700001   40.360001   30.380001       6.0000     15.9994
  230   2 H    1     -21.000002   40.900002   29.920002       1.0000      1.0079
  231   2 H    1     -21.250000   40.030003   31.200001       1.0000      1.0079
  232   1 O    8      15.520000    0.170000   31.480003       6.0000     15.9994
  233   2 H    1      14.790001   -0.380000   31.880001       1.0000      1.0079
  234   2 H    1      15.390000    1.020000   31.940002       1.0000      1.0079
  235   1 O    8       3.220000   34.299999   24.910002       6.0000     15.9994
  236   2 H    1       2.300000   34.160000   25.290001       1.0000      1.0079
  237   2 H    1       2.970000   34.050003   23.970001       1.0000      1.0079
  238   1 O    8      18.200001   13.310001   17.450001       6.0000     15.9994
  239   2 H    1       9.270000   27.150002   17.140001       1.0000      1.0079
  240   2 H    1      19.100000   13.270000   16.980001       1.0000      1.0079
  241   1 O    8      12.150001    3.830000   20.400002       6.0000     15.9994
  242   2 H    1      12.240001    4.720000   20.010002       1.0000      1.0079
  243   2 H    1      11.360001    3.880000   20.980000       1.0000      1.0079
  244   1 O    8       5.080000   -0.210000    8.670000       6.0000     15.9994
  245   2 H    1       5.890000   -0.850000    8.640000       1.0000      1.0079
  246   2 H    1       4.490000   -0.410000    7.880001       1.0000      1.0079
  247   1 O    8      12.060001    2.710000   32.940002       6.0000     15.9994
  248   2 H    1      11.510000    1.950000   32.790001       1.0000      1.0079
  249   2 H    1      13.050001    2.530000   32.740002       1.0000      1.0079
  250   1 O    8      26.670000  -18.310001    8.920000       6.0000     15.9994
  251   2 H    1      26.330002  -17.740000    9.700001       1.0000      1.0079
  252   2 H    1      26.300001  -17.900002    8.080000       1.0000      1.0079
  253   1 O    8       0.040000   -2.250000   17.710001       6.0000     15.9994
  254   2 H    1       0.040000   -3.210000   17.889999       1.0000      1.0079
  255   2 H    1      -0.470000   -1.850000   18.480000       1.0000      1.0079
  256   1 O    8      10.740000  -18.800001   12.530001       6.0000     15.9994
  257   2 H    1      11.540001  -18.250000   12.570001       1.0000      1.0079
  258   2 H    1      10.770000  -19.160002   13.460001       1.0000      1.0079
  259   1 O    8     -20.240002   32.890003   12.570001       6.0000     15.9994
  260   2 H    1     -20.150002   33.670002   11.960001       1.0000      1.0079
  261   2 H    1     -19.340002   32.560001   12.880001       1.0000      1.0079
  262   1 O    8      11.770000   14.640001   15.020000       6.0000     15.9994
  263   2 H    1      11.450001   14.880000   14.110001       1.0000      1.0079
  264   2 H    1      12.740001   14.930000   15.150002       1.0000      1.0079
  265   1 O    8      28.330002    5.690000   15.360001       6.0000     15.9994
  266   2 H    1      28.580000    4.700000   15.560001       1.0000      1.0079
  267   2 H    1      37.470001   20.980000   15.270000       1.0000      1.0079
  268   1 O    8      13.410001   -3.070000   26.660002       6.0000     15.9994
  269   2 H    1      12.460001   -2.850000   26.480003       1.0000      1.0079
  270   2 H    1      13.550000   -3.720000   27.380001       1.0000      1.0079
  271   1 O    8      -0.750000    1.040000   11.830001       6.0000     15.9994
  272   2 H    1      -0.050000    1.710000   11.830001       1.0000      1.0079
  273   2 H    1      -1.150000    1.100000   10.890001       1.0000      1.0079
  274   1 O    8      -5.470000   -6.230001   32.099998       6.0000     15.9994
  275   2 H    1      -4.890000   -6.750000   32.700001       1.0000      1.0079
  276   2 H    1      -5.460000   -6.890000   31.370001       1.0000      1.0079
  277   1 O    8      10.360001   16.830002    8.330001       6.0000     15.9994
  278   2 H    1      -6.720000   15.880001    8.460000       1.0000      1.0079
  279   2 H    1       9.650001   17.350002    8.760000       1.0000      1.0079
  280   1 O    8      44.100002  -15.400001   26.230001       6.0000     15.9994
  281   2 H    1      43.370003  -16.000000   26.680002       1.0000      1.0079
  282   2 H    1      44.580002  -14.930000   26.940002       1.0000      1.0079
  283   1 O    8       7.210000  -11.750001   24.470001       6.0000     15.9994
  284   2 H    1      -1.530000    1.940000   24.620001       1.0000      1.0079
  285   2 H    1       7.460001  -11.640000   23.510000       1.0000      1.0079
  286   1 O    8     -22.510002   37.830002   20.720001       6.0000     15.9994
  287   2 H    1      -6.440001   38.410000   20.810001       1.0000      1.0079
  288   2 H    1     -22.240002   37.720001   21.650002       1.0000      1.0079
  289   1 O    8       4.740000   15.960001   16.720001       6.0000     15.9994
  290   2 H    1       5.580000   15.930000   17.260000       1.0000      1.0079
  291   2 H    1       4.450000   15.080000   16.620001       1.0000      1.0079
  292   1 O    8      24.890001   -9.420000   29.520000       6.0000     15.9994
  293   2 H    1      24.160002  -10.180000   29.450001       1.0000      1.0079
  294   2 H    1      25.730001   -9.930000   29.530001       1.0000      1.0079
  295   1 O    8       4.990000    6.230001   32.760002       6.0000     15.9994
  296   2 H    1       4.220000    5.790000   32.310001       1.0000      1.0079
  297   2 H    1       5.040000    5.960000   33.740002       1.0000      1.0079
  298   1 O    8       8.590000    6.930000   27.470001       6.0000     15.9994
  299   2 H    1       8.210000    6.790000   28.390003       1.0000      1.0079
  300   2 H    1       8.220000    6.200000   26.990002       1.0000      1.0079
  301   1 O    8     -17.060001    9.600000    8.450001       6.0000     15.9994
  302   2 H    1     -16.760002    8.930000    9.180000       1.0000      1.0079
  303   2 H    1     -18.030001    9.520000    8.270000       1.0000      1.0079
  304   1 O    8      10.990001   14.890001   19.890001       6.0000     15.9994
  305   2 H    1      10.770000   15.680000   20.530003       1.0000      1.0079
  306   2 H    1      11.590000   14.260001   20.280001       1.0000      1.0079
  307   1 O    8     -21.119999   17.780001   11.450001       6.0000     15.9994
  308   2 H    1     -20.750000   18.700001   11.440001       1.0000      1.0079
  309   2 H    1     -20.920000   17.510000   10.510000       1.0000      1.0079
  310   1 O    8     -13.910000   12.600001   33.310001       6.0000     15.9994
  311   2 H    1     -14.040001   13.560000   32.970001       1.0000      1.0079
  312   2 H    1     -12.930001   12.460001   33.020000       1.0000      1.0079
  313   1 O    8     -15.160000   11.610001    8.210000       6.0000     15.9994
  314   2 H    1     -15.740002   10.830001    8.390000       1.0000      1.0079
  315   2 H    1     -15.470000   12.410001    8.810000       1.0000      1.0079
  316   1 O    8       3.680000  -10.300001   29.040001       6.0000     15.9994
  317   2 H    1       3.520000  -10.000000   29.960001       1.0000      1.0079
  318   2 H    1       3.440000   -9.590000   28.320000       1.0000      1.0079
  319   1 O    8     -11.160001   -7.580000   17.530001       6.0000     15.9994
  320   2 H    1     -11.650001   -7.170000   16.770000       1.0000      1.0079
  321   2 H    1     -10.400001   -6.930000   17.760002       1.0000      1.0079
  322   1 O    8      37.420002  -14.280001   13.220000       6.0000     15.9994
  323   2 H    1      37.250000  -13.310001   12.990000       1.0000      1.0079
  324   2 H    1      38.440002  -14.270000   13.340001       1.0000      1.0079
  325   1 O    8     -23.720001    2.280000   28.670002       6.0000     15.9994
  326   2 H    1     -23.110001    1.480000   28.630001       1.0000      1.0079
  327   2 H    1     -23.220001    3.060000   28.370001       1.0000      1.0079
  328   1 O    8       8.050001   -7.120000   23.710001       6.0000     15.9994
  329   2 H    1       7.580000   -6.250000   23.650000       1.0000      1.0079
  330   2 H    1       7.740001   -7.470000   24.590000       1.0000      1.0079
  331   1 O    8     -24.070000   45.050003   24.400002       6.0000     15.9994
  332   2 H    1     -24.950001   45.520000   24.480001       1.0000      1.0079
  333   2 H    1     -24.080002   44.230003   25.020000       1.0000      1.0079
  334   1 O    8     -18.460001   -8.440001   22.800003       6.0000     15.9994
  335   2 H    1     -18.660000   -8.940001   21.960001       1.0000      1.0079
  336   2 H    1     -17.940001   -7.570000   22.580002       1.0000      1.0079
  337   1 O    8      14.200001   24.060001   28.500002       6.0000     15.9994
  338   2 H    1      22.190001    8.610001   28.290003       1.0000      1.0079
  339   2 H    1      -1.690000   23.900002   28.600002       1.0000      1.0079
  340   1 O    8      26.790001   20.780001    8.860001       6.0000     15.9994
  341   2 H    1      26.460001   21.650002    9.320001       1.0000      1.0079
  342   2 H    1      26.920002   20.910000    7.870001       1.0000      1.0079
  343   1 O    8      13.300000   10.020000   19.750002       6.0000     15.9994
  344   2 H    1      12.850000   10.790000   19.270000       1.0000      1.0079
  345   2 H    1      12.500000    9.580001   20.210001       1.0000      1.0079
  346   1 O    8       7.940001  -14.960001   20.170002       6.0000     15.9994
  347   2 H    1       7.840000  -15.260000   21.140001       1.0000      1.0079
  348   2 H    1       8.900001  -14.890001   19.960001       1.0000      1.0079
  349   1 O    8       0.180000   12.400000   32.530003       6.0000     15.9994
  350   2 H    1       1.120000   12.220000   32.870003       1.0000      1.0079
  351   2 H    1       0.020000   13.330001   32.800003       1.0000      1.0079
  352   1 O    8       1.110000   17.889999   31.090002       6.0000     15.9994
  353   2 H    1       1.210000   17.520000   30.170002       1.0000      1.0079
  354   2 H    1       1.880000   17.560001   31.530001       1.0000      1.0079
  355   1 O    8       7.770000    5.680000   11.510000       6.0000     15.9994
  356   2 H    1       7.880001    5.240001   12.430000       1.0000      1.0079
  357   2 H    1       8.250000    6.570000   11.570001       1.0000      1.0079
  358   1 O    8      16.430000   13.390001   12.500000       6.0000     15.9994
  359   2 H    1      15.710001   12.860001   12.060001       1.0000      1.0079
  360   2 H    1      16.380001   14.330001   12.290001       1.0000      1.0079
  361   1 O    8     -28.040001    3.250000   29.070000       6.0000     15.9994
  362   2 H    1     -28.180000    2.590000   28.330002       1.0000      1.0079
  363   2 H    1     -27.680000    2.720000   29.770002       1.0000      1.0079
  364   1 O    8      -1.790000   64.389999   21.480000       6.0000     15.9994
  365   2 H    1      -1.400000   63.480003   21.650002       1.0000      1.0079
  366   2 H    1      -1.440000   64.919998   22.200001       1.0000      1.0079
  367   1 O    8       2.610000   15.400001    9.230001       6.0000     15.9994
  368   2 H    1       2.720000   14.980001    8.370000       1.0000      1.0079
  369   2 H    1       1.840000   16.049999    9.090000       1.0000      1.0079
  370   1 O    8     -16.780001   -2.470000   27.650002       6.0000     15.9994
  371   2 H    1     -16.930000   -3.400000   27.310001       1.0000      1.0079
  372   2 H    1     -16.370001   -2.460000   28.570002       1.0000      1.0079
  373   1 O    8      -8.770000    0.280000   32.720001       6.0000     15.9994
  374   2 H    1      -8.910000    0.730000   33.530003       1.0000      1.0079
  375   2 H    1      -9.450001    0.540000   32.060001       1.0000      1.0079
  376   1 O    8     -10.690001   19.380001    9.110001       6.0000     15.9994
  377   2 H    1     -10.990001   20.140001    9.600000       1.0000      1.0079
  378   2 H    1     -10.810001   19.450001    8.140000       1.0000      1.0079
  379   1 O    8      -1.200000  -19.980001   18.560001       6.0000     15.9994
  380   2 H    1      -0.940000  -19.250000   17.880001       1.0000      1.0079
  381   2 H    1      -2.070000  -19.750002   18.930000       1.0000      1.0079
  382   1 O    8       3.400000   -9.280001   31.750002       6.0000     15.9994
  383   2 H    1       2.720000   -8.680000   32.140003       1.0000      1.0079
  384   2 H    1       3.340000  -10.040001   32.310001       1.0000      1.0079
  385   1 O    8      -1.970000   42.690002   18.940001       6.0000     15.9994
  386   2 H    1      -2.950000   42.460003   19.070000       1.0000      1.0079
  387   2 H    1      -1.630000   42.780003   19.840000       1.0000      1.0079
  388   1 O    8      -5.630000    9.860001   15.330001       6.0000     15.9994
  389   2 H    1      -6.520000    9.480001   15.450001       1.0000      1.0079
  390   2 H    1      -5.730000   10.870000   15.680000       1.0000      1.0079
  391   1 O    8       0.140000   19.160002   23.950003       6.0000     15.9994
  392   2 H    1      -0.590000   19.800001   23.680000       1.0000      1.0079
  393   2 H    1       0.380000   18.770000   23.059999       1.0000      1.0079
  394   1 O    8      12.390001   41.910000   18.680000       6.0000     15.9994
  395   2 H    1      20.110001   26.960001   19.260002       1.0000      1.0079
  396   2 H    1      12.090001   41.610001   17.810001       1.0000      1.0079
  397   1 O    8      20.830002    8.400001   17.850000       6.0000     15.9994
  398   2 H    1      21.420002    8.800000   17.100000       1.0000      1.0079
  399   2 H    1      21.070002    7.400000   17.870001       1.0000      1.0079
  400   1 O    8      28.470001   19.040001   22.010002       6.0000     15.9994
  401   2 H    1      27.900002   19.160002   21.220001       1.0000      1.0079
  402   2 H    1      28.710001   19.980001   22.240002       1.0000      1.0079
  403   1 O    8      16.040001   48.600002   32.240002       6.0000     15.9994
  404   2 H    1      16.920000   48.250004   31.960001       1.0000      1.0079
  405   2 H    1      16.150002   48.890003   33.160004       1.0000      1.0079
  406   1 O    8       4.470000    7.130001   14.030001       6.0000     15.9994
  407   2 H    1       3.680000    6.730001   14.440001       1.0000      1.0079
  408   2 H    1       5.150001    6.790000   14.670001       1.0000      1.0079
  409   1 O    8      16.500000   -4.750000   18.770000       6.0000     15.9994
  410   2 H    1      16.710001   -5.550000   18.160002       1.0000      1.0079
  411   2 H    1      15.560001   -4.770000   18.990000       1.0000      1.0079
  412   1 O    8     -36.910004   -7.690001   25.650002       6.0000     15.9994
  413   2 H    1     -37.750000   -7.900000   25.170002       1.0000      1.0079
  414   2 H    1     -36.480003   -8.540000   25.540001       1.0000      1.0079
  415   1 O    8      -8.710001    8.360001   21.680002       6.0000     15.9994
  416   2 H    1      -8.770000    8.460000   20.720001       1.0000      1.0079
  417   2 H    1      -9.020000    9.310000   22.080002       1.0000      1.0079
  418   1 O    8      22.750000   29.690001   15.640001       6.0000     15.9994
  419   2 H    1      23.380001   30.220001   15.020000       1.0000      1.0079
  420   2 H    1      23.080002   29.950001   16.540001       1.0000      1.0079
  421   1 O    8      29.630001   -1.510000   11.540001       6.0000     15.9994
  422   2 H    1      28.940001   -2.280000   11.560000       1.0000      1.0079
  423   2 H    1      29.290001   -0.730000   12.070000       1.0000      1.0079
  424   1 O    8     -20.160000    4.760000   25.389999       6.0000     15.9994
  425   2 H    1     -19.650002    4.010000   25.000000       1.0000      1.0079
  426   2 H    1     -12.330000   -9.530001   24.700001       1.0000      1.0079
  427   1 O    8     -15.330001   -7.320001   32.480003       6.0000     15.9994
  428   2 H    1     -15.200001   -7.130001   33.470001       1.0000      1.0079
  429   2 H    1     -16.260000   -7.280001   32.360001       1.0000      1.0079
  430   1 O    8     -12.120000   27.530001   28.660002       6.0000     15.9994
  431   2 H    1     -12.380000   27.040003   27.880001       1.0000      1.0079
  432   2 H    1     -11.250000   27.850000   28.500002       1.0000      1.0079
  433   1 O    8      -8.950001  -24.480001   14.080001       6.0000     15.9994
  434   2 H    1      -9.610001  -24.270000   14.850000       1.0000      1.0079
  435   2 H    1      -8.400001  -25.300003   14.320001       1.0000      1.0079
  436   1 O    8      21.080000   25.459999   26.850002       6.0000     15.9994
  437   2 H    1      20.889999   24.600000   27.299999       1.0000      1.0079
  438   2 H    1      28.780001   10.970000   26.130001       1.0000      1.0079
  439   1 O    8      14.830000   12.530001   14.720001       6.0000     15.9994
  440   2 H    1      14.640001   13.390001   15.160000       1.0000      1.0079
  441   2 H    1      15.710001   12.630000   14.240000       1.0000      1.0079
  442   1 O    8      -4.070000    9.760000   32.590000       6.0000     15.9994
  443   2 H    1      -3.130000   10.030001   32.730003       1.0000      1.0079
  444   2 H    1      -3.900000    8.800000   32.290001       1.0000      1.0079
  445   1 O    8     -11.630001    2.630000   19.910000       6.0000     15.9994
  446   2 H    1     -12.450000    2.790000   19.370001       1.0000      1.0079
  447   2 H    1     -11.120001    2.080000   19.310001       1.0000      1.0079
  448   1 O    8      10.250001   -1.250000   20.060001       6.0000     15.9994
  449   2 H    1      11.290001   -1.130000   20.220001       1.0000      1.0079
  450   2 H    1      27.030001   -1.290000   19.050001       1.0000      1.0079
  451   1 O    8      27.290001   12.960000   23.430002       6.0000     15.9994
  452   2 H    1      28.030003   13.180000   22.850000       1.0000      1.0079
  453   2 H    1      27.530001   12.070000   23.890001       1.0000      1.0079
  454   1 O    8      -3.000000    1.150000   28.440001       6.0000     15.9994
  455   2 H    1      -2.340000    0.670000   27.880001       1.0000      1.0079
  456   2 H    1      -3.560000    1.710000   27.750000       1.0000      1.0079
  457   1 O    8      17.760002   -2.790000   30.120001       6.0000     15.9994
  458   2 H    1      17.590000   -2.150000   30.880001       1.0000      1.0079
  459   2 H    1      18.690001   -3.020000   30.280001       1.0000      1.0079
  460   1 O    8      20.950001    7.110000   22.640001       6.0000     15.9994
  461   2 H    1      20.900002    7.630000   21.830002       1.0000      1.0079
  462   2 H    1       5.050000    6.920000   22.730000       1.0000      1.0079
  463   1 O    8     -13.130001  -25.440002   16.680000       6.0000     15.9994
  464   2 H    1     -12.850000  -25.660002   15.740002       1.0000      1.0079
  465   2 H    1     -13.610001  -26.220001   17.020000       1.0000      1.0079
  466   1 O    8      15.010000   -1.780000   15.600000       6.0000     15.9994
  467   2 H    1      15.320001   -2.530000   15.020000       1.0000      1.0079
  468   2 H    1      15.640001   -1.830000   16.330002       1.0000      1.0079
  469   1 O    8       1.100000  -13.610001   21.570000       6.0000     15.9994
  470   2 H    1       1.220000  -14.300001   20.870001       1.0000      1.0079
  471   2 H    1       0.300000  -13.870001   22.040001       1.0000      1.0079
  472   1 O    8      -6.560000  -12.540001   21.860001       6.0000     15.9994
  473   2 H    1      -6.610000  -13.160001   22.660000       1.0000      1.0079
  474   2 H    1      -5.890000  -11.820001   22.040001       1.0000      1.0079
  475   1 O    8      22.700003   11.110001   20.180000       6.0000     15.9994
  476   2 H    1      22.040001   10.360001   20.240002       1.0000      1.0079
  477   2 H    1      22.260000   11.940001   20.340002       1.0000      1.0079
  478   1 O    8     -25.890003   29.870003   23.840000       6.0000     15.9994
  479   2 H    1     -26.650002   30.210001   23.450001       1.0000      1.0079
  480   2 H    1     -25.720001   30.470001   24.670000       1.0000      1.0079
  481   1 O    8       8.100000    9.590000   29.670002       6.0000     15.9994
  482   2 H    1       8.320000   10.530001   29.820002       1.0000      1.0079
  483   2 H    1       8.960000    9.160001   29.750002       1.0000      1.0079
  484   1 O    8       5.700001   46.140003   21.049999       6.0000     15.9994
  485   2 H    1       5.050000   46.840000   20.670002       1.0000      1.0079
  486   2 H    1       6.150000   45.760002   20.240002       1.0000      1.0079
  487   1 O    8      13.080001   49.750004   18.310001       6.0000     15.9994
  488   2 H    1      12.360001   49.270000   18.750002       1.0000      1.0079
  489   2 H    1      13.790001   49.750004   18.970001       1.0000      1.0079
  490   1 O    8      21.280001   27.120001   12.600001       6.0000     15.9994
  491   2 H    1      20.810001   27.970001   12.430000       1.0000      1.0079
  492   2 H    1      21.870001   27.250002   13.380001       1.0000      1.0079
  493   1 O    8       6.870000   -4.050000   25.970001       6.0000     15.9994
  494   2 H    1      -2.400000   10.790000   26.430000       1.0000      1.0079
  495   2 H    1       7.240000   -3.140000   25.740002       1.0000      1.0079
  496   1 O    8      28.690002   28.390003   16.049999       6.0000     15.9994
  497   2 H    1      20.700001   42.150002   15.810001       1.0000      1.0079
  498   2 H    1      20.230000   43.450005   15.150002       1.0000      1.0079
  499   1 O    8      14.770001   19.780001   20.170002       6.0000     15.9994
  500   2 H    1      14.440001   18.860001   20.150002       1.0000      1.0079
  501   2 H    1      15.650001   19.570002   19.830000       1.0000      1.0079
  502   1 O    8      10.200001    6.310000   17.580002       6.0000     15.9994
  503   2 H    1      10.930000    6.570000   18.220001       1.0000      1.0079
  504   2 H    1      10.640000    5.980001   16.760002       1.0000      1.0079
  505   1 O    8      22.910002    0.840000   30.890003       6.0000     15.9994
[...]
    899      3      Pt         -0.01109765    -0.02185847     0.00882533
    900      3      Pt          0.02215647     0.01437523     0.01119315
    901      3      Pt         -0.00268194    -0.00001433     0.00213303
    902      3      Pt         -0.01540497    -0.01036242     0.00676452
    903      3      Pt          0.00837211     0.00105792     0.00630867
    904      3      Pt         -0.00870289    -0.01077825     0.00646815
    905      3      Pt          0.01823231     0.01071515     0.01191864
    906      3      Pt         -0.00125341    -0.01529812     0.00156747
 SUM OF ATOMIC FORCES          -0.00159415    -0.00268390    -0.00403187     0.00509908

 STRESS| Analytical stress tensor [GPa]
 STRESS|                        x                   y                   z
 STRESS|      x       -2.34138021538E+00  -7.13622748531E-02   3.45222971727E-02
 STRESS|      y       -7.13622748531E-02  -2.77204749124E+00   1.06822317600E-01
 STRESS|      z        3.45222971727E-02   1.06822317600E-01  -5.80667997226E-01
 STRESS| 1/3 Trace                                            -1.89803190128E+00
 STRESS| Determinant                                          -3.73632556368E+00

 STRESS| Eigenvectors and eigenvalues of the analytical stress tensor [GPa]
 STRESS|                        1                   2                   3
 STRESS| Eigenvalues  -2.78914070685E+00  -2.33002721828E+00  -5.74927778712E-01
 STRESS|      x           0.160964104916      0.986803692391      0.017579238107
 STRESS|      y           0.985683124843     -0.161636137498      0.047984752319
 STRESS|      z          -0.050192970914     -0.009603735643      0.998693363317

 -------------------------------------------------------------------------------
 -                                                                             -
 -                                DBCSR STATISTICS                             -
 -                                                                             -
 -------------------------------------------------------------------------------
 COUNTER                                    TOTAL       BLAS       SMM       ACC
 flops     5 x     5 x   288          89216524800       0.0%    100.0%      0.0%
 flops     5 x     5 x   292          90455643200       0.0%    100.0%      0.0%
 flops     5 x    13 x   288         100474508160       0.0%    100.0%      0.0%
 flops    13 x     5 x   288         100588101120       0.0%    100.0%      0.0%
 flops    20 x    13 x   288         101202117120       0.0%    100.0%      0.0%
 flops    13 x    20 x   288         101656488960       0.0%    100.0%      0.0%
 flops     5 x    13 x   292         101869987440       0.0%    100.0%      0.0%
 flops    13 x     5 x   292         101985158080       0.0%    100.0%      0.0%
 flops    20 x    13 x   292         102607702080       0.0%    100.0%      0.0%
 flops    13 x    20 x   292         103068384640       0.0%    100.0%      0.0%
 flops    13 x    13 x   288         107312804352       0.0%    100.0%      0.0%
 flops    13 x    13 x   292         108803259968       0.0%    100.0%      0.0%
 flops     5 x    20 x   288         110503987200       0.0%    100.0%      0.0%
 flops    20 x     5 x   288         110721254400       0.0%    100.0%      0.0%
 flops     5 x    20 x   292         112038764800       0.0%    100.0%      0.0%
 flops    20 x     5 x   292         112259049600       0.0%    100.0%      0.0%
 flops    20 x    20 x   288         442771660800       0.0%    100.0%      0.0%
 flops    20 x    20 x   292         448921267200       0.0%    100.0%      0.0%
 flops     5 x     5 x   320         594776832000       0.0%    100.0%      0.0%
 flops     5 x    13 x   320         669830054400       0.0%    100.0%      0.0%
 flops    13 x     5 x   320         670587340800       0.0%    100.0%      0.0%
 flops    20 x    13 x   320         674680780800       0.0%    100.0%      0.0%
 flops    13 x    20 x   320         677709926400       0.0%    100.0%      0.0%
 flops    13 x    13 x   320         715418695680       0.0%    100.0%      0.0%
 flops     5 x    20 x   320         736693248000       0.0%    100.0%      0.0%
 flops    20 x     5 x   320         738141696000       0.0%    100.0%      0.0%
 flops    20 x    20 x   320        2951811072000       0.0%    100.0%      0.0%
 flops inhomo. stacks                           0       0.0%      0.0%      0.0%
 flops total                        10.976106E+12       0.0%    100.0%      0.0%
 flops max/rank                    184.093690E+09       0.0%    100.0%      0.0%
 matmuls inhomo. stacks                         0       0.0%      0.0%      0.0%
 matmuls total                          158282304       0.0%    100.0%      0.0%
 number of processed stacks                419840       0.0%    100.0%      0.0%
 average stack size                                     0.0     377.0       0.0
 marketing flops                    31.211674E+12
 -------------------------------------------------------------------------------
 # multiplications                             82
 max memory usage/rank               1.863320E+09
 # max total images/rank                        1
 # max 3D layers                                1
 # MPI messages exchanged                   73472
 MPI messages size (bytes):
  total size                       220.645474E+09
  min size                           2.762496E+06
  max size                           3.077120E+06
  average size                       3.003123E+06
 MPI breakdown and total messages size (bytes):
             size <=      128                   0                        0
       128 < size <=     8192                   0                        0
      8192 < size <=    32768                   0                        0
     32768 < size <=   131072                   0                        0
    131072 < size <=  4194304               73472             220645600000
   4194304 < size <= 16777216                   0                        0
  16777216 < size                               0                        0
 -------------------------------------------------------------------------------
 -                                                                             -
 -                      DBCSR MESSAGE PASSING PERFORMANCE                      -
 -                                                                             -
 -------------------------------------------------------------------------------
 ROUTINE             CALLS      AVE VOLUME [Bytes]
 MP_Bcast               28                     12.
 MP_Allreduce          648                     10.
 MP_Alltoall          2296                1974889.
 MP_ISend             2624                1329597.
 MP_IRecv             2624                1310413.
 -------------------------------------------------------------------------------

 -------------------------------------------------------------------------------
 -                                                                             -
 -                                DBM STATISTICS                               -
 -                                                                             -
 -------------------------------------------------------------------------------
    M  x    N  x    K                                          COUNT     PERCENT
 -------------------------------------------------------------------------------

 -------------------------------------------------------------------------------
 -                                                                             -
 -                                GRID STATISTICS                              -
 -                                                                             -
 -------------------------------------------------------------------------------
 LP    KERNEL             BACKEND                              COUNT     PERCENT
 3     collocate general  REF                               56952526      18.87%
 3     integrate general  REF                               56315967      18.66%
 2     collocate general  REF                               53771828      17.82%
 2     integrate general  REF                               53116074      17.60%
 4     collocate general  REF                               40043224      13.27%
 4     integrate general  REF                               39554892      13.11%
 6     integrate general  REF                                 694543       0.23%
 5     integrate general  REF                                 655754       0.22%
 7     integrate general  REF                                 488332       0.16%
 0     collocate general  REF                                 115968       0.04%
 0     integrate general  REF                                  57984       0.02%
 -------------------------------------------------------------------------------

 MEMORY| Estimated peak process memory [MiB]                                2107

 -------------------------------------------------------------------------------
 ----                             MULTIGRID INFO                            ----
 -------------------------------------------------------------------------------
 count for grid        1:         731941          cutoff [a.u.]          200.00
 count for grid        2:         807055          cutoff [a.u.]           66.67
 count for grid        3:         741713          cutoff [a.u.]           22.22
 count for grid        4:         831094          cutoff [a.u.]            7.41
 total gridlevel count  :        3111803

 -------------------------------------------------------------------------------
 -                                                                             -
 -                         MESSAGE PASSING PERFORMANCE                         -
 -                                                                             -
 -------------------------------------------------------------------------------

 ROUTINE             CALLS      AVE VOLUME [Bytes]
 MP_Group                4
 MP_Bcast              264                2236233.
 MP_Allreduce         1376                   1822.
 MP_Sync                85
 MP_Alltoall          1820               13079295.
 MP_SendRecv           252                  13578.
 MP_ISendRecv        20664                 113680.
 MP_Wait             46228
 MP_ISend            23904                 340012.
 MP_IRecv            23904                 340012.
 MP_Recv               385                2460160.
 MP_Write_All            3                1540656.
 -------------------------------------------------------------------------------


 -------------------------------------------------------------------------------
 -                                                                             -
 -                           R E F E R E N C E S                               -
 -                                                                             -
 -------------------------------------------------------------------------------
 
 CP2K version 2022.1, the CP2K developers group (2022).
 CP2K is freely available from https://www.cp2k.org/ .

 Kuehne,Thomas D.; Iannuzzi,Marcella; Del Ben,Mauro;
 Rybkin,Vladimir V.; Seewald,Patrick; Stein,Frederick; Laino,Teodoro;
 Khaliullin,Rustam Z.; Schuett,Ole; Schiffmann,Florian; Golze,Dorothea;
 Wilhelm,Jan; Chulkov,Sergey; Bani-Hashemian,Mohammad Hossein;
 Weber,Valery; Borstnik,Urban; Taillefumier,Mathieu;
 Jakobovits,Alice Shoshana; Lazzaro,Alfio; Pabst,Hans; Mueller,Tiziano;
 Schade,Robert; Guidon,Manuel; Andermatt,Samuel; Holmberg,Nico;
 Schenter,Gregory K.; Hehn,Anna; Bussy,Augustin; Belleflamme,Fabian;
 Tabacchi,Gloria; Gloess,Andreas; Lass,Michael; Bethune,Iain;
 Mundy,Christopher J.; Plessl,Christian; Watkins,Matt;
 VandeVondele,Joost; Krack,Matthias; Hutter,Juerg. 
 The Journal of Chemical Physics, 152 (19), (2020). 
 CP2K: An electronic structure and molecular dynamics software package -
 Quickstep: Efficient and accurate electronic structure calculations.
 https://doi.org/10.1063/5.0007045

 Goerigk, Lars; Hansen, Andreas; Bauer, Christoph; Ehrlich, Stephan;
 Najibi, Asim; Grimme, Stefan. , 19 (48), (2017). 
 A look at the density functional theory zoo with the advanced GMTKN55 database
 for general main group thermochemistry, kinetics and noncovalent interactions.
 https://doi.org/10.1039/C7CP04913G

 Schuett, Ole; Messmer, Peter; Hutter, Juerg; VandeVondele, Joost. 
 Electronic Structure Calculations on Graphics Processing Units, John
 Wiley & Sons, Ltd, 173-190 (2016). 
 GPU-Accelerated Sparse Matrix-Matrix Multiplication for
 Linear Scaling Density Functional Theory.
 https://doi.org/10.1002/9781118670712.ch8

 Heinecke, A; Henry, G; Hutchinson, M; Pabst, H. 
 Proceedings of Intl. Supercomputing Conference, 981-991 (2016). 
 LIBXSMM: Accelerating Small Matrix Multiplications
 by Runtime Code Generation.
 https://doi.org/10.1109/SC.2016.83

 Borstnik, U; VandeVondele, J; Weber, V; Hutter, J. 
 PARALLEL COMPUTING, 40 (5-6), 47-58 (2014). 
 Sparse matrix multiplication: The distributed block-compressed sparse
 row library.
 https://doi.org/10.1016/j.parco.2014.03.012

 Hutter, J; Iannuzzi, M; Schiffmann, F; VandeVondele, J. 
 WIREs Comput Mol Sci., 4 (1), 15-25 (2014). 
 CP2K: atomistic simulations of condensed matter systems.
 https://doi.org/10.1002/wcms.1159

 Marek, A; Blum, V; Johanni, R; Havu, V; Lang, B; Auckenthaler, T;
 Heinecke, A; Bungartz, H; Lederer, H. 
 Journal of Physics: Condensed Matter, 26 (21), (2014). 
 The ELPA library: scalable parallel eigenvalue solutions for
 electronic structure
 theory and computational science.
 https://doi.org/10.1088/0953-8984/26/21/213201

 Grimme, S; Ehrlich, S; Goerigk, L. 
 JOURNAL OF COMPUTATIONAL CHEMISTRY, 32, 1456 (2011). 
 Effect of the damping function in dispersion corrected density functional theory.
 https://doi.org/10.1002/jcc.21759

 Grimme, S; Antony, J; Ehrlich, S; Krieg, H. 
 JOURNAL OF CHEMICAL PHYSICS, 132 (15), 154104 (2010). 
 A consistent and accurate ab initio parametrization of density
 functional dispersion correction (DFT-D) for the 94 elements H-Pu.
 https://doi.org/10.1063/1.3382344

 VandeVondele, J; Hutter, J. 
 JOURNAL OF CHEMICAL PHYSICS, 127 (11), 114105 (2007). 
 Gaussian basis sets for accurate calculations on molecular systems in
 gas and condensed phases.
 https://doi.org/10.1063/1.2770708

 Krack, M. 
 THEORETICAL CHEMISTRY ACCOUNTS, 114 (1-3), 145-152 (2005). 
 Pseudopotentials for H to Kr optimized for gradient-corrected
 exchange-correlation functionals.
 https://doi.org/10.1007/s00214-005-0655-y

 VandeVondele, J; Krack, M; Mohamed, F; Parrinello, M; Chassaing, T;
 Hutter, J. COMPUTER PHYSICS COMMUNICATIONS, 167 (2), 103-128 (2005). 
 QUICKSTEP: Fast and accurate density functional calculations using a
 mixed Gaussian and plane waves approach.
 https://doi.org/10.1016/j.cpc.2004.12.014

 Frigo, M; Johnson, SG. 
 PROCEEDINGS OF THE IEEE, 93 (2), 216-231 (2005). 
 The design and implementation of FFTW3.
 https://doi.org/10.1109/JPROC.2004.840301

 Hartwigsen, C; Goedecker, S; Hutter, J. 
 PHYSICAL REVIEW B, 58 (7), 3641-3662 (1998). 
 Relativistic separable dual-space Gaussian pseudopotentials from H to Rn.
 https://doi.org/10.1103/PhysRevB.58.3641

 Lippert, G; Hutter, J; Parrinello, M. 
 MOLECULAR PHYSICS, 92 (3), 477-487 (1997). 
 A hybrid Gaussian and plane wave density functional scheme.
 https://doi.org/10.1080/002689797170220

 Perdew, JP; Burke, K; Ernzerhof, M. 
 PHYSICAL REVIEW LETTERS, 77 (18), 3865-3868 (1996). 
 Generalized gradient approximation made simple.
 https://doi.org/10.1103/PhysRevLett.77.3865

 Goedecker, S; Teter, M; Hutter, J. 
 PHYSICAL REVIEW B, 54 (3), 1703-1710 (1996). 
 Separable dual-space Gaussian pseudopotentials.
 https://doi.org/10.1103/PhysRevB.54.1703


 -------------------------------------------------------------------------------
 -                                                                             -
 -                                T I M I N G                                  -
 -                                                                             -
 -------------------------------------------------------------------------------
 SUBROUTINE                       CALLS  ASD         SELF TIME        TOTAL TIME
                                MAXIMUM       AVERAGE  MAXIMUM  AVERAGE  MAXIMUM
 CP2K                                 1  1.0    0.036    0.041  970.708  970.710
 qs_forces                            1  2.0    0.002    0.003  970.296  970.299
 qs_energies                          1  3.0    0.000    0.000  957.752  957.768
 scf_env_do_scf                       1  4.0    0.000    0.000  949.458  949.703
 scf_env_do_scf_inner_loop           81  5.0    0.004    0.012  949.458  949.703
 qs_scf_new_mos                      81  6.0    0.005    0.012  386.123  386.739
 eigensolver                         81  7.0    0.007    0.011  358.524  358.937
 rebuild_ks_matrix                   82  7.0    0.000    0.000  300.072  300.117
 qs_ks_build_kohn_sham_matrix        82  8.0    0.013    0.014  300.072  300.117
 qs_ks_update_qs_env                 81  6.0    0.001    0.001  292.085  292.130
 qs_rho_update_rho_low               82  6.0    0.001    0.001  256.518  256.554
 calculate_rho_elec                  82  7.0    0.191    0.225  256.518  256.553
 sum_up_and_integrate                82  9.0    0.346    0.417  252.100  252.153
 integrate_v_rspace                  82 10.0    0.003    0.004  251.754  251.839
 grid_collocate_task_list            82  8.0  224.982  231.395  224.982  231.395
 grid_integrate_task_list            82 11.0  219.094  225.219  219.094  225.219
 cp_fm_diag_elpa                     81  8.0    0.001    0.001  210.317  210.867
 cp_fm_diag_elpa_base                81  9.0  207.089  207.864  209.980  210.056
 cp_fm_triangular_multiply          243  8.0  145.204  147.133  145.204  147.133
 rs_pw_transfer                     660 10.5    0.007    0.008   40.345   46.257
 pw_transfer                       1640 10.9    0.117    0.155   45.140   46.187
 fft_wrap_pw1pw2                   1476 12.0    0.014    0.020   44.623   45.659
 fft_wrap_pw1pw2_200                984 13.3    4.050    4.388   42.925   43.929
 qs_vxc_create                       82  9.0    0.003    0.003   42.321   42.565
 xc_vxc_pw_create                    82 10.0    0.754    0.789   42.318   42.563
 density_rs2pw                       82  8.0    0.005    0.006   28.778   34.635
 fft3d_ps                          1476 14.0   16.312   18.389   32.899   33.923
 xc_pw_derive                       492 12.0    0.008    0.010   26.962   28.435
 xc_rho_set_and_dset_create          82 11.0    0.401    0.434   22.763   24.280
 potential_pw2rs                     82 11.0    0.031    0.036   23.881   23.963
 mp_waitany                       23904 12.4   17.769   23.804   17.769   23.804
 rs_pw_transfer_RS2PW_200            84 10.0    5.227    5.791   16.297   22.122
 cp_dbcsr_plus_fm_fm_t_native        82  8.0    0.004    0.009   20.093   20.995
 calculate_dm_sparse                 81  7.0    0.025    0.031   20.168   20.988
 -------------------------------------------------------------------------------

 The number of warnings for this run is : 1
 
 -------------------------------------------------------------------------------
  **** **** ******  **  PROGRAM ENDED AT                 2023-11-26 19:42:36.552
 ***** ** ***  *** **   PROGRAM RAN ON                                     cu054
 **    ****   ******    PROGRAM RAN BY                                     jxzhu
 ***** **    ** ** **   PROGRAM PROCESS ID                                   828
  **** **  *******  **  PROGRAM STOPPED IN /public/home/jxzhu/tmp_calc/af2075565
                                           805657d94fa4669dad6f4b174b0a4fb/calc/
                                           002900.000/pbc
