 DBCSR| CPU Multiplication driver                                           XSMM
 DBCSR| Multrec recursion limit                                              512
 DBCSR| Multiplication stack size                                           1000
 DBCSR| Maximum elements for images                                    UNLIMITED
 DBCSR| Multiplicative factor virtual images                                   1
 DBCSR| Use multiplication densification                                       T
 DBCSR| Multiplication size stacks                                             3
 DBCSR| Use memory pool for CPU allocation                                     F
 DBCSR| Number of 3D layers                                               SINGLE
 DBCSR| Use MPI memory allocation                                              F
 DBCSR| Use RMA algorithm                                                      F
 DBCSR| Use Communication thread                                               T
 DBCSR| Communication thread load                                             87
 DBCSR| MPI: My node id                                                        0
 DBCSR| MPI: Number of nodes                                                  32
 DBCSR| OMP: Current number of threads                                         1
 DBCSR| OMP: Max number of threads                                             1
 DBCSR| Split modifier for TAS multiplication algorithm                  1.0E+00


  **** **** ******  **  PROGRAM STARTED AT               2023-12-03 07:28:26.983
 ***** ** ***  *** **   PROGRAM STARTED ON                                 cu042
 **    ****   ******    PROGRAM STARTED BY                                 jxzhu
 ***** **    ** ** **   PROGRAM PROCESS ID                                 61427
  **** **  *******  **  PROGRAM STARTED IN /public/home/jxzhu/tmp_calc/04c0855f9
                                           8753fac23fde4df51ba20f3741a9e9a/calc/
                                           task.001.000016

 CP2K| version string:                                       CP2K version 2022.1
 CP2K| source code revision number:                                  git:2caeb6f
 CP2K| cp2kflags: omp libint fftw3 libxc elpa parallel mpi3 scalapack cosma xsmm
 CP2K|             plumed2 spglib mkl sirius libvori libbqb
 CP2K| is freely available from                            https://www.cp2k.org/
 CP2K| Program compiled at                           Mon Jul 3 17:37:06 CST 2023
 CP2K| Program compiled on                                                 mu003
 CP2K| Program compiled for                                                local
 CP2K| Data directory path                             /public/home/jxzhu/basis/
 CP2K| Input file name                                                 input.inp
 
 GLOBAL| Force Environment number                                              1
 GLOBAL| Basis set file name                                        BASIS_MOLOPT
 GLOBAL| Potential file name                                      GTH_POTENTIALS
 GLOBAL| MM Potential file name                                     MM_POTENTIAL
 GLOBAL| Coordinate file name                                          coord.xyz
 GLOBAL| Method name                                                        CP2K
 GLOBAL| Project name                                                       cp2k
 GLOBAL| Run type                                                   ENERGY_FORCE
 GLOBAL| FFT library                                                       FFTW3
 GLOBAL| Diagonalization library                                            ELPA
 GLOBAL| Minimum number of eigenvectors for ELPA usage                        16
 GLOBAL| Orthonormality check for eigenvectors                          DISABLED
 GLOBAL| Matrix multiplication library                                     COSMA
 GLOBAL| All-to-all communication in single precision                          F
 GLOBAL| FFTs using library dependent lengths                                  T
 GLOBAL| Grid backend                                                       AUTO
 GLOBAL| Global print level                                               MEDIUM
 GLOBAL| MPI I/O enabled                                                       T
 GLOBAL| Total number of message passing processes                            32
 GLOBAL| Number of threads for this process                                    1
 GLOBAL| This output is from process                                           0
 GLOBAL| Stack size for threads created by OpenMP (OMP_STACKSIZE)        default
 GLOBAL| CPU model name                 Intel(R) Xeon(R) Gold 6338 CPU @ 2.00GHz
 GLOBAL| CPUID                                                              1003

 MEMORY| system memory details [Kb]
 MEMORY|                        rank 0           min           max       average
 MEMORY| MemTotal            263619172     263619172     263619172     263619172
 MEMORY| MemFree             174779488     174779488     174779488     174779488
 MEMORY| Buffers                  3320          3320          3320          3320
 MEMORY| Cached                8382468       8382468       8382468       8382468
 MEMORY| Slab                  1874472       1874472       1874472       1874472
 MEMORY| SReclaimable           244448        244448        244448        244448
 MEMORY| MemLikelyFree       183409724     183409724     183409724     183409724


 *** Fundamental physical constants (SI units) ***

 *** Literature: B. J. Mohr and B. N. Taylor,
 ***             CODATA recommended values of the fundamental physical
 ***             constants: 2006, Web Version 5.1
 ***             http://physics.nist.gov/constants

 Speed of light in vacuum [m/s]                             2.99792458000000E+08
 Magnetic constant or permeability of vacuum [N/A**2]       1.25663706143592E-06
 Electric constant or permittivity of vacuum [F/m]          8.85418781762039E-12
 Planck constant (h) [J*s]                                  6.62606896000000E-34
 Planck constant (h-bar) [J*s]                              1.05457162825177E-34
 Elementary charge [C]                                      1.60217648700000E-19
 Electron mass [kg]                                         9.10938215000000E-31
 Electron g factor [ ]                                     -2.00231930436220E+00
 Proton mass [kg]                                           1.67262163700000E-27
 Fine-structure constant                                    7.29735253760000E-03
 Rydberg constant [1/m]                                     1.09737315685270E+07
 Avogadro constant [1/mol]                                  6.02214179000000E+23
 Boltzmann constant [J/K]                                   1.38065040000000E-23
 Atomic mass unit [kg]                                      1.66053878200000E-27
 Bohr radius [m]                                            5.29177208590000E-11

 *** Conversion factors ***

 [u] -> [a.u.]                                              1.82288848426455E+03
 [Angstrom] -> [Bohr] = [a.u.]                              1.88972613288564E+00
 [a.u.] = [Bohr] -> [Angstrom]                              5.29177208590000E-01
 [a.u.] -> [s]                                              2.41888432650478E-17
 [a.u.] -> [fs]                                             2.41888432650478E-02
 [a.u.] -> [J]                                              4.35974393937059E-18
 [a.u.] -> [N]                                              8.23872205491840E-08
 [a.u.] -> [K]                                              3.15774647902944E+05
 [a.u.] -> [kJ/mol]                                         2.62549961709828E+03
 [a.u.] -> [kcal/mol]                                       6.27509468713739E+02
 [a.u.] -> [Pa]                                             2.94210107994716E+13
 [a.u.] -> [bar]                                            2.94210107994716E+08
 [a.u.] -> [atm]                                            2.90362800883016E+08
 [a.u.] -> [eV]                                             2.72113838565563E+01
 [a.u.] -> [Hz]                                             6.57968392072181E+15
 [a.u.] -> [1/cm] (wave numbers)                            2.19474631370540E+05
 [a.u./Bohr**2] -> [1/cm]                                   5.14048714338585E+03
 

 CELL_TOP| Volume [angstrom^3]:                                     12686.086737
 CELL_TOP| Vector a [angstrom    16.869     0.000     0.000   |a| =    16.869000
 CELL_TOP| Vector b [angstrom    -8.434    14.609     0.000   |b| =    16.868929
 CELL_TOP| Vector c [angstrom     0.000     0.000    51.478   |c| =    51.477900
 CELL_TOP| Angle (b,c), alpha [degree]:                                90.000000
 CELL_TOP| Angle (a,c), beta  [degree]:                                90.000000
 CELL_TOP| Angle (a,b), gamma [degree]:                               120.000140
 CELL_TOP| Numerically orthorhombic:                                          NO
 
 GENERATE|  Preliminary Number of Bonds generated:                             0
 GENERATE|  Achieved consistency in connectivity generation.

 CELL| Volume [angstrom^3]:                                         12686.086737
 CELL| Vector a [angstrom]:      16.869     0.000     0.000   |a| =    16.869000
 CELL| Vector b [angstrom]:      -8.434    14.609     0.000   |b| =    16.868929
 CELL| Vector c [angstrom]:       0.000     0.000    51.478   |c| =    51.477900
 CELL| Angle (b,c), alpha [degree]:                                    90.000000
 CELL| Angle (a,c), beta  [degree]:                                    90.000000
 CELL| Angle (a,b), gamma [degree]:                                   120.000140
 CELL| Numerically orthorhombic:                                              NO

 CELL_REF| Volume [angstrom^3]:                                     12686.086737
 CELL_REF| Vector a [angstrom    16.869     0.000     0.000   |a| =    16.869000
 CELL_REF| Vector b [angstrom    -8.434    14.609     0.000   |b| =    16.868929
 CELL_REF| Vector c [angstrom     0.000     0.000    51.478   |c| =    51.477900
 CELL_REF| Angle (b,c), alpha [degree]:                                90.000000
 CELL_REF| Angle (a,c), beta  [degree]:                                90.000000
 CELL_REF| Angle (a,b), gamma [degree]:                               120.000140
 CELL_REF| Numerically orthorhombic:                                          NO

 *******************************************************************************
 *******************************************************************************
 **                                                                           **
 **     #####                         ##              ##                      **
 **    ##   ##            ##          ##              ##                      **
 **   ##     ##                       ##            ######                    **
 **   ##     ##  ##   ##  ##   #####  ##  ##   ####   ##    #####    #####    **
 **   ##     ##  ##   ##  ##  ##      ## ##   ##      ##   ##   ##  ##   ##   **
 **   ##  ## ##  ##   ##  ##  ##      ####     ###    ##   ######   ######    **
 **    ##  ###   ##   ##  ##  ##      ## ##      ##   ##   ##       ##        **
 **     #######   #####   ##   #####  ##  ##  ####    ##    #####   ##        **
 **           ##                                                    ##        **
 **                                                                           **
 **                                                ... make the atoms dance   **
 **                                                                           **
 **            Copyright (C) by CP2K developers group (2000-2022)             **
 **                      J. Chem. Phys. 152, 194103 (2020)                    **
 **                                                                           **
 *******************************************************************************

 DFT| Spin restricted Kohn-Sham (RKS) calculation                            RKS
 DFT| Multiplicity                                                             1
 DFT| Number of spin states                                                    1
 DFT| Charge                                                                   0
 DFT| Self-interaction correction (SIC)                                       NO
 DFT| Cutoffs: density                                              1.000000E-10
 DFT|          gradient                                             1.000000E-10
 DFT|          tau                                                  1.000000E-10
 DFT|          cutoff_smoothing_range                               0.000000E+00
 DFT| XC density smoothing                                                  NONE
 DFT| XC derivatives                                                          PW

 FUNCTIONAL| PBE:
 FUNCTIONAL| J.P.Perdew, K.Burke, M.Ernzerhof, Phys. Rev. Letter, vol. 77, n 18,
 FUNCTIONAL|  pp. 3865-3868, (1996){spin unpolarized}                           

 vdW POTENTIAL|                                                   Pair Potential
 vdW POTENTIAL|          DFT-D3 (Version 3.1)
 vdW POTENTIAL|          Potential Form: S. Grimme et al, JCP 132: 154104 (2010)
 vdW POTENTIAL|          Zero Damping
 vdW POTENTIAL|          Cutoff Radius [Bohr]:                             20.00
 vdW POTENTIAL|          s6 Scaling Factor:                               1.0000
 vdW POTENTIAL|          sr6 Scaling Factor:                              1.2170
 vdW POTENTIAL|          s8 Scaling Factor:                               0.7220
 vdW POTENTIAL|          Cutoff for CN calculation:                   0.1000E-05

 QS| Method:                                                                 GPW
 QS| Density plane wave grid type                        NON-SPHERICAL FULLSPACE
 QS| Number of grid levels:                                                    4
 QS| Density cutoff [a.u.]:                                                200.0
 QS| Multi grid cutoff [a.u.]: 1) grid level                               200.0
 QS|                           2) grid level                                66.7
 QS|                           3) grid level                                22.2
 QS|                           4) grid level                                 7.4
 QS| Grid level progression factor:                                          3.0
 QS| Relative density cutoff [a.u.]:                                        20.0
 QS| Interaction thresholds: eps_pgf_orb:                                3.2E-07
 QS|                         eps_filter_matrix:                          0.0E+00
 QS|                         eps_core_charge:                            1.0E-15
 QS|                         eps_rho_gspace:                             1.0E-13
 QS|                         eps_rho_rspace:                             1.0E-13
 QS|                         eps_gvg_rspace:                             3.2E-07
 QS|                         eps_ppl:                                    1.0E-02
 QS|                         eps_ppnl:                                   3.2E-09


 ATOMIC KIND INFORMATION

  1. Atomic kind: Pt                                    Number of atoms:     216

     Orbital Basis Set                      DZVP-A5-Q10-323-MOL-T1-DERIVED_SET-1

       Number of orbital shell sets:                                           1
       Number of orbital shells:                                               6
       Number of primitive Cartesian functions:                                5
       Number of Cartesian basis functions:                                   23
       Number of spherical basis functions:                                   20
       Norm type:                                                              2

       Normalised Cartesian orbitals:

                        Set   Shell   Orbital            Exponent    Coefficient

                          1       1    2s                2.521825       0.177473
                                                         1.453920      -0.063399
                                                         0.614053      -0.407089
                                                         0.232656       0.262254
                                                         0.074788       0.047371

                          1       2    3s                2.521825      -0.049056
                                                         1.453920       0.044904
                                                         0.614053      -0.009756
                                                         0.232656      -0.144709
                                                         0.074788       0.144085

                          1       3    3px               2.521825      -0.317572
                                                         1.453920       0.534826
                                                         0.614053      -0.489458
                                                         0.232656       0.245631
                                                         0.074788       0.018221
                          1       3    3py               2.521825      -0.317572
                                                         1.453920       0.534826
                                                         0.614053      -0.489458
                                                         0.232656       0.245631
                                                         0.074788       0.018221
                          1       3    3pz               2.521825      -0.317572
                                                         1.453920       0.534826
                                                         0.614053      -0.489458
                                                         0.232656       0.245631
                                                         0.074788       0.018221

                          1       4    4dx2              2.521825       3.008522
                                                         1.453920      -1.224251
                                                         0.614053       0.225691
                                                         0.232656       0.125144
                                                         0.074788      -0.015348
                          1       4    4dxy              2.521825       5.210912
                                                         1.453920      -2.120465
                                                         0.614053       0.390909
                                                         0.232656       0.216756
                                                         0.074788      -0.026584
                          1       4    4dxz              2.521825       5.210912
                                                         1.453920      -2.120465
                                                         0.614053       0.390909
                                                         0.232656       0.216756
                                                         0.074788      -0.026584
                          1       4    4dy2              2.521825       3.008522
                                                         1.453920      -1.224251
                                                         0.614053       0.225691
                                                         0.232656       0.125144
                                                         0.074788      -0.015348
                          1       4    4dyz              2.521825       5.210912
                                                         1.453920      -2.120465
                                                         0.614053       0.390909
                                                         0.232656       0.216756
                                                         0.074788      -0.026584
                          1       4    4dz2              2.521825       3.008522
                                                         1.453920      -1.224251
                                                         0.614053       0.225691
                                                         0.232656       0.125144
                                                         0.074788      -0.015348

                          1       5    5dx2              2.521825       0.698026
                                                         1.453920      -1.511486
                                                         0.614053      -0.335394
                                                         0.232656      -0.025564
                                                         0.074788      -0.002699
                          1       5    5dxy              2.521825       1.209017
                                                         1.453920      -2.617970
                                                         0.614053      -0.580920
                                                         0.232656      -0.044277
                                                         0.074788      -0.004674
                          1       5    5dxz              2.521825       1.209017
                                                         1.453920      -2.617970
                                                         0.614053      -0.580920
                                                         0.232656      -0.044277
                                                         0.074788      -0.004674
                          1       5    5dy2              2.521825       0.698026
                                                         1.453920      -1.511486
                                                         0.614053      -0.335394
                                                         0.232656      -0.025564
                                                         0.074788      -0.002699
                          1       5    5dyz              2.521825       1.209017
                                                         1.453920      -2.617970
                                                         0.614053      -0.580920
                                                         0.232656      -0.044277
                                                         0.074788      -0.004674
                          1       5    5dz2              2.521825       0.698026
                                                         1.453920      -1.511486
                                                         0.614053      -0.335394
                                                         0.232656      -0.025564
                                                         0.074788      -0.002699

                          1       6    6dx2              2.521825       0.831079
                                                         1.453920      -0.709226
                                                         0.614053      -0.137351
                                                         0.232656       0.068642
                                                         0.074788       0.011745
                          1       6    6dxy              2.521825       1.439472
                                                         1.453920      -1.228415
                                                         0.614053      -0.237899
                                                         0.232656       0.118891
                                                         0.074788       0.020343
                          1       6    6dxz              2.521825       1.439472
                                                         1.453920      -1.228415
                                                         0.614053      -0.237899
                                                         0.232656       0.118891
                                                         0.074788       0.020343
                          1       6    6dy2              2.521825       0.831079
                                                         1.453920      -0.709226
                                                         0.614053      -0.137351
                                                         0.232656       0.068642
                                                         0.074788       0.011745
                          1       6    6dyz              2.521825       1.439472
                                                         1.453920      -1.228415
                                                         0.614053      -0.237899
                                                         0.232656       0.118891
                                                         0.074788       0.020343
                          1       6    6dz2              2.521825       0.831079
                                                         1.453920      -0.709226
                                                         0.614053      -0.137351
                                                         0.232656       0.068642
                                                         0.074788       0.011745

       Atomic covalent radius [Angstrom]:                                  1.300

       Atomic van der Waals radius [Angstrom]:                             1.750

     GTH Potential information for                                   GTH-PBE-q10

       Description:                       Goedecker-Teter-Hutter pseudopotential
                                           Goedecker et al., PRB 54, 1703 (1996)
                                          Hartwigsen et al., PRB 58, 3641 (1998)
                                                      Krack, TCA 114, 145 (2005)

       Gaussian exponent of the core charge distribution:               1.317676
       Electronic configuration (s p d ...):                           1   0   9

       Parameters of the local part of the GTH pseudopotential:

                          rloc        C1          C2          C3          C4
                        0.616000   11.313635

       Parameters of the non-local part of the GTH pseudopotential:

                   l      r(l)      h(i,j,l)

                   0    0.550904    4.733491   -1.784594
                                   -1.784594    2.303901
                   1    0.674138    2.534798   -1.778066
                                   -1.778066    2.103836
                   2    0.457392   -7.264011    2.558665
                                    2.558665   -2.901253


 MOLECULE KIND INFORMATION


 All atoms are their own molecule, skipping detailed information


 TOTAL NUMBERS AND MAXIMUM NUMBERS

  Total number of            - Atomic kinds:                                   1
                             - Atoms:                                        216
                             - Shell sets:                                   216
                             - Shells:                                      1296
                             - Primitive Cartesian functions:               1080
                             - Cartesian basis functions:                   4968
                             - Spherical basis functions:                   4320

  Maximum angular momentum of- Orbital basis functions:                        2
                             - Local part of the GTH pseudopotential:          0
                             - Non-local part of the GTH pseudopotential:      4


 MODULE QUICKSTEP:  ATOMIC COORDINATES IN angstrom

 Atom  Kind  Element       X           Y           Z          Z(eff)       Mass
    1   1 Pt  78       2.360406    0.374470   19.884934      10.0000    195.0840
    2   1 Pt  78       5.080406    0.424470   19.924931      10.0000    195.0840
    3   1 Pt  78       7.840407    0.524470   19.994930      10.0000    195.0840
    4   1 Pt  78      10.630408    0.584470   19.864933      10.0000    195.0840
    5   1 Pt  78      13.490407    0.494470   19.864933      10.0000    195.0840
    6   1 Pt  78      16.240407    0.354470   19.924931      10.0000    195.0840
    7   1 Pt  78       3.620406    2.984470   19.934933      10.0000    195.0840
    8   1 Pt  78       6.370406    2.904470   19.924931      10.0000    195.0840
    9   1 Pt  78       9.210407    2.904470   20.004933      10.0000    195.0840
   10   1 Pt  78      12.120406    2.924470   19.874935      10.0000    195.0840
   11   1 Pt  78      14.990407    2.894470   19.954933      10.0000    195.0840
   12   1 Pt  78       0.840406    2.724470   19.874935      10.0000    195.0840
   13   1 Pt  78       4.980406    5.344470   19.884934      10.0000    195.0840
   14   1 Pt  78       7.880406    5.304470   19.844933      10.0000    195.0840
   15   1 Pt  78      10.660406    5.314470   19.894932      10.0000    195.0840
   16   1 Pt  78      13.500407    5.344470   19.884934      10.0000    195.0840
   17   1 Pt  78      -0.589594    5.364470   19.974934      10.0000    195.0840
   18   1 Pt  78       2.130406    5.384470   19.814934      10.0000    195.0840
   19   1 Pt  78       6.410406    7.734470   19.854931      10.0000    195.0840
   20   1 Pt  78       9.130407    7.744470   19.794933      10.0000    195.0840
   21   1 Pt  78      11.930407    7.704470   19.974934      10.0000    195.0840
   22   1 Pt  78      -1.959594    7.814470   19.924931      10.0000    195.0840
   23   1 Pt  78       0.810406    7.824470   19.864933      10.0000    195.0840
   24   1 Pt  78       3.510406    7.744470   19.784931      10.0000    195.0840
   25   1 Pt  78       7.760407   10.164470   19.844933      10.0000    195.0840
   26   1 Pt  78      10.630408   10.084471   19.814934      10.0000    195.0840
   27   1 Pt  78      -3.389594    9.934471   19.884934      10.0000    195.0840
   28   1 Pt  78      -0.639594   10.164470   19.814934      10.0000    195.0840
   29   1 Pt  78       2.190406   10.224470   20.054932      10.0000    195.0840
   30   1 Pt  78       5.020407   10.184470   19.884934      10.0000    195.0840
   31   1 Pt  78       9.240406   12.604470   19.734936      10.0000    195.0840
   32   1 Pt  78      -4.679594   12.424470   19.774933      10.0000    195.0840
   33   1 Pt  78      -1.949594   12.654470   19.904934      10.0000    195.0840
   34   1 Pt  78       0.790406   12.554470   19.754933      10.0000    195.0840
   35   1 Pt  78       3.580406   12.544471   19.734936      10.0000    195.0840
   36   1 Pt  78       6.330407   12.584471   19.884934      10.0000    195.0840
   37   1 Pt  78       0.830406    1.254470   22.224934      10.0000    195.0840
   38   1 Pt  78       3.620406    1.354470   22.194931      10.0000    195.0840
   39   1 Pt  78       6.430406    1.284470   22.274933      10.0000    195.0840
   40   1 Pt  78       9.240406    1.244470   22.384934      10.0000    195.0840
   41   1 Pt  78      12.060407    1.234470   22.244934      10.0000    195.0840
   42   1 Pt  78      14.850407    1.284470   22.234936      10.0000    195.0840
   43   1 Pt  78       2.170406    3.754470   22.154934      10.0000    195.0840
   44   1 Pt  78       4.970406    3.784470   22.294933      10.0000    195.0840
   45   1 Pt  78       7.850407    3.664470   22.324932      10.0000    195.0840
   46   1 Pt  78      10.610406    3.634470   22.234936      10.0000    195.0840
   47   1 Pt  78      13.410407    3.774470   22.214932      10.0000    195.0840
   48   1 Pt  78      -0.659594    3.694470   22.294933      10.0000    195.0840
   49   1 Pt  78       3.510406    6.184470   22.084934      10.0000    195.0840
   50   1 Pt  78       6.360406    6.174470   22.184933      10.0000    195.0840
   51   1 Pt  78       9.070406    6.094470   22.224934      10.0000    195.0840
   52   1 Pt  78      11.930407    6.084470   22.234936      10.0000    195.0840
   53   1 Pt  78      -2.039594    6.204470   22.294933      10.0000    195.0840
   54   1 Pt  78       0.750406    6.064470   22.304936      10.0000    195.0840
   55   1 Pt  78       4.950406    8.574470   22.254933      10.0000    195.0840
   56   1 Pt  78       7.670407    8.614470   22.194931      10.0000    195.0840
   57   1 Pt  78      10.550407    8.594471   22.174935      10.0000    195.0840
   58   1 Pt  78      -3.549594    8.564470   22.214932      10.0000    195.0840
   59   1 Pt  78      -0.539594    8.564470   22.304936      10.0000    195.0840
   60   1 Pt  78       2.110406    8.564470   22.224934      10.0000    195.0840
   61   1 Pt  78       6.450406   11.004471   22.264931      10.0000    195.0840
   62   1 Pt  78       9.230407   10.924471   22.124931      10.0000    195.0840
   63   1 Pt  78      -4.859594   11.134471   22.194931      10.0000    195.0840
   64   1 Pt  78      -2.109594   10.894470   22.234936      10.0000    195.0840
   65   1 Pt  78       0.690406   11.044470   22.234936      10.0000    195.0840
   66   1 Pt  78       3.460406   11.024470   22.254933      10.0000    195.0840
   67   1 Pt  78       7.840407   13.344470   22.184933      10.0000    195.0840
   68   1 Pt  78      -6.299594   13.344470   22.144932      10.0000    195.0840
   69   1 Pt  78      -3.439594   13.524470   22.184933      10.0000    195.0840
   70   1 Pt  78      -0.619594   13.344470   22.344933      10.0000    195.0840
   71   1 Pt  78       2.130406   13.444470   22.134934      10.0000    195.0840
   72   1 Pt  78       4.970406   13.424471   22.234936      10.0000    195.0840
   73   1 Pt  78      -7.759595   14.274471   24.464932      10.0000    195.0840
   74   1 Pt  78      -4.979594   14.234470   24.424935      10.0000    195.0840
   75   1 Pt  78      -2.099594   14.144470   24.514935      10.0000    195.0840
   76   1 Pt  78       0.610406   14.084471   24.584934      10.0000    195.0840
   77   1 Pt  78       3.450406   14.144470   24.554936      10.0000    195.0840
   78   1 Pt  78       6.280406   14.254471   24.674931      10.0000    195.0840
   79   1 Pt  78       2.100406    2.174470   24.494934      10.0000    195.0840
   80   1 Pt  78       4.900406    2.114470   24.554936      10.0000    195.0840
   81   1 Pt  78       7.720406    2.094470   24.604931      10.0000    195.0840
   82   1 Pt  78      10.490406    1.894470   24.604931      10.0000    195.0840
   83   1 Pt  78      13.370407    1.994470   24.614933      10.0000    195.0840
   84   1 Pt  78      -0.729594    2.084470   24.604931      10.0000    195.0840
   85   1 Pt  78       3.540406    4.544470   24.564934      10.0000    195.0840
   86   1 Pt  78       6.340406    4.574470   24.544933      10.0000    195.0840
   87   1 Pt  78       9.180407    4.534470   24.644932      10.0000    195.0840
   88   1 Pt  78      11.890406    4.464470   24.574932      10.0000    195.0840
   89   1 Pt  78      -2.139594    4.464470   24.524933      10.0000    195.0840
   90   1 Pt  78       0.650406    4.494470   24.514935      10.0000    195.0840
   91   1 Pt  78       4.840406    7.044470   24.524933      10.0000    195.0840
   92   1 Pt  78       7.680406    6.924470   24.544933      10.0000    195.0840
   93   1 Pt  78      10.490406    7.014470   24.574932      10.0000    195.0840
   94   1 Pt  78      -3.649594    6.944470   24.574932      10.0000    195.0840
   95   1 Pt  78      -0.639594    6.904470   24.644932      10.0000    195.0840
   96   1 Pt  78       2.110406    6.864470   24.534931      10.0000    195.0840
   97   1 Pt  78       6.300406    9.414470   24.574932      10.0000    195.0840
   98   1 Pt  78       9.110406    9.414470   24.424935      10.0000    195.0840
   99   1 Pt  78      -4.919594    9.364470   24.444935      10.0000    195.0840
  100   1 Pt  78      -2.129594    9.294471   24.434933      10.0000    195.0840
  101   1 Pt  78       0.820406    9.344471   24.614933      10.0000    195.0840
  102   1 Pt  78       3.530406    9.404470   24.634934      10.0000    195.0840
  103   1 Pt  78       7.690406   11.814470   24.624935      10.0000    195.0840
  104   1 Pt  78      -6.409594   11.854471   24.404934      10.0000    195.0840
  105   1 Pt  78      -3.529594   11.834470   24.504933      10.0000    195.0840
  106   1 Pt  78      -0.719594   11.734470   24.564934      10.0000    195.0840
  107   1 Pt  78       2.030406   11.794471   24.614933      10.0000    195.0840
  108   1 Pt  78       4.830407   11.814470   24.574932      10.0000    195.0840
  109   1 Pt  78       2.010406    0.464470   26.802932      10.0000    195.0840
  110   1 Pt  78       4.900406    0.304470   26.692932      10.0000    195.0840
  111   1 Pt  78       7.670407    0.364470   26.892932      10.0000    195.0840
  112   1 Pt  78      10.300407    0.324470   26.952932      10.0000    195.0840
  113   1 Pt  78      13.280407    0.374470   26.902932      10.0000    195.0840
  114   1 Pt  78      16.010407    0.424470   26.892932      10.0000    195.0840
  115   1 Pt  78       3.510406    2.854470   26.872932      10.0000    195.0840
  116   1 Pt  78       6.240406    2.874470   26.862932      10.0000    195.0840
  117   1 Pt  78       8.990406    2.904470   26.832932      10.0000    195.0840
  118   1 Pt  78      11.830407    2.764470   26.932932      10.0000    195.0840
  119   1 Pt  78      14.690407    2.794470   26.892932      10.0000    195.0840
  120   1 Pt  78       0.630406    2.834470   26.912932      10.0000    195.0840
  121   1 Pt  78       4.840406    5.324470   26.822932      10.0000    195.0840
  122   1 Pt  78       7.590406    5.414470   26.862932      10.0000    195.0840
  123   1 Pt  78      10.400406    5.374470   26.882932      10.0000    195.0840
  124   1 Pt  78      13.200407    5.214470   26.832932      10.0000    195.0840
  125   1 Pt  78      -0.759594    5.214470   26.802932      10.0000    195.0840
  126   1 Pt  78       2.020406    5.214470   26.822932      10.0000    195.0840
  127   1 Pt  78       6.270407    7.794470   26.882932      10.0000    195.0840
  128   1 Pt  78       9.090407    7.784470   26.942932      10.0000    195.0840
  129   1 Pt  78      11.910406    7.764471   26.882932      10.0000    195.0840
  130   1 Pt  78      -2.229594    7.604470   26.852932      10.0000    195.0840
  131   1 Pt  78       0.630406    7.584471   26.902932      10.0000    195.0840
  132   1 Pt  78       3.440406    7.774470   26.922932      10.0000    195.0840
  133   1 Pt  78       7.630407   10.214471   26.812932      10.0000    195.0840
  134   1 Pt  78      10.430407   10.134470   26.702932      10.0000    195.0840
  135   1 Pt  78      -3.519594   10.144471   26.762932      10.0000    195.0840
  136   1 Pt  78      -0.779594   10.024470   27.022932      10.0000    195.0840
  137   1 Pt  78       1.950406   10.144471   27.022932      10.0000    195.0840
  138   1 Pt  78       4.810407   10.144471   26.862932      10.0000    195.0840
  139   1 Pt  78       9.020406   12.654470   26.832932      10.0000    195.0840
  140   1 Pt  78      -5.079594   12.534470   26.662932      10.0000    195.0840
  141   1 Pt  78      -2.169594   12.514471   26.862932      10.0000    195.0840
  142   1 Pt  78       0.540406   12.494470   26.972932      10.0000    195.0840
  143   1 Pt  78       3.380406   12.564470   26.952932      10.0000    195.0840
  144   1 Pt  78       6.190407   12.654470   26.932932      10.0000    195.0840
  145   1 Pt  78       0.800406    1.164470   29.132932      10.0000    195.0840
  146   1 Pt  78       3.470406    1.094470   29.102932      10.0000    195.0840
  147   1 Pt  78       6.180407    1.174470   29.082932      10.0000    195.0840
  148   1 Pt  78       9.010407    1.244470   29.172932      10.0000    195.0840
  149   1 Pt  78      12.000407    1.224470   29.232932      10.0000    195.0840
  150   1 Pt  78      14.800407    1.184470   29.252932      10.0000    195.0840
  151   1 Pt  78       2.040406    3.634470   29.222932      10.0000    195.0840
  152   1 Pt  78       4.870406    3.634470   29.142932      10.0000    195.0840
  153   1 Pt  78       7.590406    3.734470   29.232932      10.0000    195.0840
  154   1 Pt  78      10.380407    3.674470   29.192932      10.0000    195.0840
  155   1 Pt  78      13.200407    3.634470   29.042932      10.0000    195.0840
  156   1 Pt  78      -0.769594    3.564470   29.152932      10.0000    195.0840
  157   1 Pt  78       3.430406    6.044470   29.142932      10.0000    195.0840
  158   1 Pt  78       6.120406    6.144470   29.142932      10.0000    195.0840
  159   1 Pt  78       9.010407    6.054470   29.202932      10.0000    195.0840
  160   1 Pt  78      11.870406    6.124470   29.212932      10.0000    195.0840
  161   1 Pt  78      -2.229594    6.004470   29.162932      10.0000    195.0840
  162   1 Pt  78       0.630406    6.004470   29.202932      10.0000    195.0840
  163   1 Pt  78       4.870406    8.594471   29.192932      10.0000    195.0840
  164   1 Pt  78       7.710407    8.444470   29.192932      10.0000    195.0840
  165   1 Pt  78      10.500407    8.464471   29.302932      10.0000    195.0840
  166   1 Pt  78      -3.579594    8.474470   29.322932      10.0000    195.0840
  167   1 Pt  78      -0.879594    8.484470   29.252932      10.0000    195.0840
  168   1 Pt  78       2.000406    8.544470   29.262932      10.0000    195.0840
  169   1 Pt  78       6.360406   10.774470   29.182932      10.0000    195.0840
  170   1 Pt  78       9.120406   10.804471   29.042932      10.0000    195.0840
  171   1 Pt  78      -4.989594   10.934471   29.022932      10.0000    195.0840
  172   1 Pt  78      -2.219594   10.954470   29.252932      10.0000    195.0840
  173   1 Pt  78       0.590406   10.984470   29.282932      10.0000    195.0840
  174   1 Pt  78       3.480406   10.944470   29.312932      10.0000    195.0840
  175   1 Pt  78       7.660406   13.314470   29.152932      10.0000    195.0840
  176   1 Pt  78      -6.439594   13.334471   29.092932      10.0000    195.0840
  177   1 Pt  78      -3.589594   13.324470   29.102932      10.0000    195.0840
  178   1 Pt  78      -0.759594   13.324470   29.242932      10.0000    195.0840
  179   1 Pt  78       2.000406   13.444470   29.322932      10.0000    195.0840
  180   1 Pt  78       4.940406   13.354471   29.292932      10.0000    195.0840
  181   1 Pt  78      -7.789594   14.154471   31.452932      10.0000    195.0840
  182   1 Pt  78      -4.959594   14.164470   31.372932      10.0000    195.0840
  183   1 Pt  78      -2.079594   14.124470   31.462932      10.0000    195.0840
  184   1 Pt  78       0.590406   14.304471   31.522932      10.0000    195.0840
  185   1 Pt  78       3.460406   14.174471   31.642932      10.0000    195.0840
  186   1 Pt  78       6.160406   14.094471   31.612932      10.0000    195.0840
  187   1 Pt  78       2.100406    1.914470   31.542932      10.0000    195.0840
  188   1 Pt  78       4.900406    1.914470   31.502932      10.0000    195.0840
  189   1 Pt  78       7.690406    2.074470   31.482932      10.0000    195.0840
  190   1 Pt  78      10.450406    2.034470   31.462932      10.0000    195.0840
  191   1 Pt  78      13.310407    2.004470   31.492932      10.0000    195.0840
  192   1 Pt  78      -0.699594    2.144470   31.502932      10.0000    195.0840
  193   1 Pt  78       3.460406    4.394470   31.562932      10.0000    195.0840
  194   1 Pt  78       6.360406    4.484470   31.592932      10.0000    195.0840
  195   1 Pt  78       9.080407    4.344470   31.662932      10.0000    195.0840
  196   1 Pt  78      11.920407    4.264470   31.482932      10.0000    195.0840
  197   1 Pt  78      -2.179594    4.554470   31.432931      10.0000    195.0840
  198   1 Pt  78       0.670406    4.474470   31.562932      10.0000    195.0840
  199   1 Pt  78       4.820406    6.784470   31.542932      10.0000    195.0840
  200   1 Pt  78       7.690406    6.814470   31.562932      10.0000    195.0840
  201   1 Pt  78      10.420407    6.694470   31.662932      10.0000    195.0840
  202   1 Pt  78      -3.709594    6.784470   31.592932      10.0000    195.0840
  203   1 Pt  78      -0.809594    7.024470   31.512932      10.0000    195.0840
  204   1 Pt  78       2.090406    6.734470   31.662932      10.0000    195.0840
  205   1 Pt  78       6.150406    9.344471   31.492932      10.0000    195.0840
  206   1 Pt  78       8.960407    9.324470   31.522932      10.0000    195.0840
  207   1 Pt  78      -5.069594    9.264470   31.742932      10.0000    195.0840
  208   1 Pt  78      -2.329594    9.144470   31.602932      10.0000    195.0840
  209   1 Pt  78       0.520406    9.374470   31.582932      10.0000    195.0840
  210   1 Pt  78       3.420406    9.324470   31.592932      10.0000    195.0840
  211   1 Pt  78       7.670407   11.794471   31.412932      10.0000    195.0840
  212   1 Pt  78      -6.449594   11.674471   31.342932      10.0000    195.0840
  213   1 Pt  78      -3.779594   11.744470   31.442932      10.0000    195.0840
  214   1 Pt  78      -0.899594   11.714470   31.492932      10.0000    195.0840
  215   1 Pt  78       1.950406   11.794471   31.682932      10.0000    195.0840
  216   1 Pt  78       4.880406   11.714470   31.532932      10.0000    195.0840




 SCF PARAMETERS         Density guess:                                   RESTART
                        --------------------------------------------------------
                        max_scf:                                             500
                        max_scf_history:                                       0
                        max_diis:                                              4
                        --------------------------------------------------------
                        eps_scf:                                        1.00E-06
                        eps_scf_history:                                0.00E+00
                        eps_diis:                                       1.00E-01
                        eps_eigval:                                     1.00E-05
                        --------------------------------------------------------
                        level_shift [a.u.]:                             0.000000
                        added MOs                                       500    0
                        --------------------------------------------------------
                        Mixing method:                            BROYDEN_MIXING
                                                charge density mixing in g-space
                        --------------------------------------------------------
                        Smear method:                                FERMI_DIRAC
                        Electronic temperature [K]:                        300.0
                        Electronic temperature [a.u.]:                  9.50E-04
                        Accuracy threshold:                             1.00E-10
                        --------------------------------------------------------
                        No outer SCF

 PW_GRID| Information for grid number                                          1
 PW_GRID| Grid distributed over                                    32 processors
 PW_GRID| Real space group dimensions                                    32    1
 PW_GRID| the grid is blocked:                                                NO
 PW_GRID| Cutoff [a.u.]                                                    200.0
 PW_GRID| spherical cutoff:                                                   NO
 PW_GRID|   Bounds   1           -105     104                Points:         210
 PW_GRID|   Bounds   2           -105     104                Points:         210
 PW_GRID|   Bounds   3           -315     314                Points:         630
 PW_GRID| Volume element (a.u.^3)  0.3081E-02     Volume (a.u.^3)     85609.9578
 PW_GRID| Grid span                                                    FULLSPACE
 PW_GRID|   Distribution                         Average         Max         Min
 PW_GRID|   G-Vectors                           868218.8      868350      868140
 PW_GRID|   G-Rays                                4134.4        4135        4134
 PW_GRID|   Real Space Points                   868218.8      926100      793800

 PW_GRID| Information for grid number                                          2
 PW_GRID| Number of the reference grid                                         1
 PW_GRID| Grid distributed over                                    32 processors
 PW_GRID| Real space group dimensions                                    32    1
 PW_GRID| the grid is blocked:                                                NO
 PW_GRID| Cutoff [a.u.]                                                     66.7
 PW_GRID| spherical cutoff:                                                   NO
 PW_GRID|   Bounds   1            -60      59                Points:         120
 PW_GRID|   Bounds   2            -60      59                Points:         120
 PW_GRID|   Bounds   3           -180     179                Points:         360
 PW_GRID| Volume element (a.u.^3)  0.1651E-01     Volume (a.u.^3)     85609.9578
 PW_GRID| Grid span                                                    FULLSPACE
 PW_GRID|   Distribution                         Average         Max         Min
 PW_GRID|   G-Vectors                           162000.0      162840      161280
 PW_GRID|   G-Rays                                1350.0        1357        1344
 PW_GRID|   Real Space Points                   162000.0      172800      129600

 PW_GRID| Information for grid number                                          3
 PW_GRID| Number of the reference grid                                         1
 PW_GRID| Grid distributed over                                    32 processors
 PW_GRID| Real space group dimensions                                    32    1
 PW_GRID| the grid is blocked:                                                NO
 PW_GRID| Cutoff [a.u.]                                                     22.2
 PW_GRID| spherical cutoff:                                                   NO
 PW_GRID|   Bounds   1            -35      34                Points:          70
 PW_GRID|   Bounds   2            -35      34                Points:          70
 PW_GRID|   Bounds   3           -105     104                Points:         210
 PW_GRID| Volume element (a.u.^3)  0.8320E-01     Volume (a.u.^3)     85609.9578
 PW_GRID| Grid span                                                    FULLSPACE
 PW_GRID|   Distribution                         Average         Max         Min
 PW_GRID|   G-Vectors                            32156.2       32340       31990
 PW_GRID|   G-Rays                                 459.4         462         457
 PW_GRID|   Real Space Points                    32156.2       44100       29400

 PW_GRID| Information for grid number                                          4
 PW_GRID| Number of the reference grid                                         1
 PW_GRID| Grid distributed over                                    32 processors
 PW_GRID| Real space group dimensions                                    32    1
 PW_GRID| the grid is blocked:                                                NO
 PW_GRID| Cutoff [a.u.]                                                      7.4
 PW_GRID| spherical cutoff:                                                   NO
 PW_GRID|   Bounds   1            -20      19                Points:          40
 PW_GRID|   Bounds   2            -20      19                Points:          40
 PW_GRID|   Bounds   3            -60      59                Points:         120
 PW_GRID| Volume element (a.u.^3)  0.4459         Volume (a.u.^3)     85609.9578
 PW_GRID| Grid span                                                    FULLSPACE
 PW_GRID|   Distribution                         Average         Max         Min
 PW_GRID|   G-Vectors                             6000.0        6120        5920
 PW_GRID|   G-Rays                                 150.0         153         148
 PW_GRID|   Real Space Points                     6000.0        9600        4800

 POISSON| Solver                                          IMPLICIT (GENERALIZED)
 POISSON| Boundary Condition                                PERIODIC & DIRICHLET
 POISSON| Maximum number of iterations                                        30
 POISSON| Convergence threshold                                         1.00E-08
 POISSON| Dielectric Constant                                              80.00
 POISSON| Relaxation parameter                                          1.00E+00

 RS_GRID| Information for grid number                                          1
 RS_GRID|   Bounds   1           -105     104                Points:         210
 RS_GRID|   Bounds   2           -105     104                Points:         210
 RS_GRID|   Bounds   3           -315     314                Points:         630
 RS_GRID| Real space distribution over                                 32 groups
 RS_GRID| Real space distribution along direction                              3
 RS_GRID| Border size                                                         54
 RS_GRID|   Distribution                         Average         Max         Min
 RS_GRID|   Planes                                 127.7         128         127

 RS_GRID| Information for grid number                                          2
 RS_GRID|   Bounds   1            -60      59                Points:         120
 RS_GRID|   Bounds   2            -60      59                Points:         120
 RS_GRID|   Bounds   3           -180     179                Points:         360
 RS_GRID| Real space distribution over                                 32 groups
 RS_GRID| Real space distribution along direction                              3
 RS_GRID| Border size                                                         36
 RS_GRID|   Distribution                         Average         Max         Min
 RS_GRID|   Planes                                  83.2          84          83

 RS_GRID| Information for grid number                                          3
 RS_GRID|   Bounds   1            -35      34                Points:          70
 RS_GRID|   Bounds   2            -35      34                Points:          70
 RS_GRID|   Bounds   3           -105     104                Points:         210
 RS_GRID| Real space fully replicated
 RS_GRID| Group size                                                           1

 RS_GRID| Information for grid number                                          4
 RS_GRID|   Bounds   1            -20      19                Points:          40
 RS_GRID|   Bounds   2            -20      19                Points:          40
 RS_GRID|   Bounds   3            -60      59                Points:         120
 RS_GRID| Real space fully replicated
 RS_GRID| Group size                                                           1

 Number of electrons:                                                       2160
 Number of occupied orbitals:                                               1080
 Number of molecular orbitals:                                              1580

 Number of orbital functions:                                               4320
 Number of independent orbital functions:                                   4320

 Extrapolation method: initial_guess


 SCF WAVEFUNCTION OPTIMIZATION

  Step     Update method      Time    Convergence         Total energy    Change
  ------------------------------------------------------------------------------

  POISSON| IMPLICIT (GENERALIZED) SOLVER ---------------------------------------
  POISSON| Preparing Dirichlet regions ...
  POISSON| Dirichlet region    1
  POISSON|     type : axis-aligned planar
  POISSON|     applied potential :   0.0000E+00  [Eh/e]
  POISSON| Dirichlet region    2
  POISSON|     type : axis-aligned planar
  POISSON|     applied potential :   0.0000E+00  [Eh/e]
  POISSON| ... Done. 
  ------------------------------------------------------------------------------

  POISSON|   iter        pres error      nabs error        E_hartree    delta E
  POISSON|      1        0.6204E-06      0.3303E-01    1992.6657620605  0.20E+04
  POISSON|      2        0.1064E-14      0.6204E-06    1992.6657620605  0.23E-10
  POISSON| Poisson solver converged in 2 iterations.
     1 NoMix/Diag. 0.30E+00   11.0     0.23430642     -5670.9301603614 -5.67E+03
  POISSON|   iter        pres error      nabs error        E_hartree    delta E
  POISSON|      1        0.1615E-04      0.3279E-01    1992.4799662864 -0.19E+00
  POISSON|      2        0.1017E-14      0.1615E-04    1992.4799662864  0.23E-10
  POISSON| Poisson solver converged in 2 iterations.
     2 Broy./Diag. 0.30E+00   13.2     0.27035764     -5670.3814743400  5.49E-01
  POISSON|   iter        pres error      nabs error        E_hartree    delta E
  POISSON|      1        0.3503E-04      0.3341E-03    1992.6716199427  0.19E+00
  POISSON|      2        0.1288E-16      0.3503E-04    1992.6716199427  0.23E-12
  POISSON| Poisson solver converged in 2 iterations.
     3 Broy./Diag. 0.30E+00   13.3     0.11382762     -5675.8255896154 -5.44E+00
  POISSON|   iter        pres error      nabs error        E_hartree    delta E
  POISSON|      1        0.7270E-04      0.2929E-03    1992.7141592019  0.43E-01
  POISSON|      2        0.7653E-17      0.7270E-04    1992.7141592019  0.91E-12
  POISSON| Poisson solver converged in 2 iterations.
     4 Broy./Diag. 0.30E+00   13.3     0.13314493     -5672.9748438774  2.85E+00
  POISSON|   iter        pres error      nabs error        E_hartree    delta E
  POISSON|      1        0.6163E-04      0.2468E-03    1992.7872851832  0.73E-01
  POISSON|      2        0.2121E-17      0.6163E-04    1992.7872851832  0.14E-11
  POISSON| Poisson solver converged in 2 iterations.
     5 Broy./Diag. 0.30E+00   13.2     0.11724957     -5671.9293941202  1.05E+00
  POISSON|   iter        pres error      nabs error        E_hartree    delta E
  POISSON|      1        0.8898E-05      0.5388E-04    1992.8723315305  0.85E-01
  POISSON|      2        0.7793E-18      0.8898E-05    1992.8723315305 -0.23E-12
  POISSON| Poisson solver converged in 2 iterations.
     6 Broy./Diag. 0.30E+00   13.3     0.03727676     -5672.5753232964 -6.46E-01
  POISSON|   iter        pres error      nabs error        E_hartree    delta E
  POISSON|      1        0.3477E-06      0.3265E-04    1992.9531705157  0.81E-01
  POISSON|      2        0.5912E-19      0.3477E-06    1992.9531705157 -0.23E-12
  POISSON| Poisson solver converged in 2 iterations.
     7 Broy./Diag. 0.30E+00   13.5     0.02902469     -5672.3449750969  2.30E-01
  POISSON|   iter        pres error      nabs error        E_hartree    delta E
  POISSON|      1        0.1812E-05      0.2699E-04    1993.0088711234  0.56E-01
  POISSON|      2        0.9626E-18      0.1812E-05    1993.0088711234 -0.45E-12
  POISSON| Poisson solver converged in 2 iterations.
     8 Broy./Diag. 0.30E+00   13.4     0.02069349     -5672.1747069757  1.70E-01
  POISSON|   iter        pres error      nabs error        E_hartree    delta E
  POISSON|      1        0.4374E-06      0.1090E-04    1993.0368950905  0.28E-01
  POISSON|      2        0.8920E-19      0.4374E-06    1993.0368950905 -0.45E-12
  POISSON| Poisson solver converged in 2 iterations.
     9 Broy./Diag. 0.30E+00   13.5     0.01028652     -5672.3417520501 -1.67E-01
  POISSON|   iter        pres error      nabs error        E_hartree    delta E
  POISSON|      1        0.1512E-06      0.5343E-05    1993.0483928122  0.11E-01
  POISSON|      2        0.1033E-19      0.1512E-06    1993.0483928122  0.00E+00
  POISSON| Poisson solver converged in 2 iterations.
    10 Broy./Diag. 0.30E+00   13.5     0.00377017     -5672.2739343117  6.78E-02
  POISSON|   iter        pres error      nabs error        E_hartree    delta E
  POISSON|      1        0.8237E-07      0.4725E-05    1993.0553536415  0.70E-02
  POISSON|      2        0.8751E-19      0.8237E-07    1993.0553536415  0.00E+00
  POISSON| Poisson solver converged in 2 iterations.
    11 Broy./Diag. 0.30E+00   13.5     0.00309226     -5672.2543636285  1.96E-02
  POISSON|   iter        pres error      nabs error        E_hartree    delta E
  POISSON|      1        0.1192E-06      0.5508E-05    1993.0641721018  0.88E-02
  POISSON|      2        0.1874E-18      0.1192E-06    1993.0641721018  0.23E-12
  POISSON| Poisson solver converged in 2 iterations.
    12 Broy./Diag. 0.30E+00   13.5     0.00198360     -5672.2517967641  2.57E-03
  POISSON|   iter        pres error      nabs error        E_hartree    delta E
  POISSON|      1        0.1130E-06      0.2972E-05    1993.0691140545  0.49E-02
  POISSON|      2        0.1281E-19      0.1130E-06    1993.0691140545 -0.23E-12
  POISSON| Poisson solver converged in 2 iterations.
    13 Broy./Diag. 0.30E+00   13.6     0.00154906     -5672.2701884968 -1.84E-02
  POISSON|   iter        pres error      nabs error        E_hartree    delta E
  POISSON|      1        0.1112E-06      0.1805E-05    1993.0699596709  0.85E-03
  POISSON|      2        0.5851E-19      0.1112E-06    1993.0699596709  0.00E+00
  POISSON| Poisson solver converged in 2 iterations.
    14 Broy./Diag. 0.30E+00   13.6     0.00088559     -5672.2486131183  2.16E-02
  POISSON|   iter        pres error      nabs error        E_hartree    delta E
  POISSON|      1        0.7416E-06      0.3124E-05    1993.0703223436  0.36E-03
  POISSON|      2        0.8242E-19      0.7416E-06    1993.0703223436  0.00E+00
  POISSON| Poisson solver converged in 2 iterations.
    15 Broy./Diag. 0.30E+00   13.5     0.00144021     -5672.2577765648 -9.16E-03
  POISSON|   iter        pres error      nabs error        E_hartree    delta E
  POISSON|      1        0.7629E-06      0.3245E-05    1993.0702944775 -0.28E-04
  POISSON|      2        0.8842E-20      0.7629E-06    1993.0702944775  0.00E+00
  POISSON| Poisson solver converged in 2 iterations.
    16 Broy./Diag. 0.30E+00   13.5     0.00162760     -5672.2577263310  5.02E-05
  POISSON|   iter        pres error      nabs error        E_hartree    delta E
  POISSON|      1        0.1295E-06      0.1958E-05    1993.0706382714  0.34E-03
  POISSON|      2        0.4649E-19      0.1295E-06    1993.0706382714 -0.23E-12
  POISSON| Poisson solver converged in 2 iterations.
    17 Broy./Diag. 0.30E+00   13.5     0.00062770     -5672.2670327203 -9.31E-03
  POISSON|   iter        pres error      nabs error        E_hartree    delta E
  POISSON|      1        0.3703E-08      0.1245E-05    1993.0709320327  0.29E-03
  POISSON| Poisson solver converged in 1 iteration. 
    18 Broy./Diag. 0.30E+00   12.2     0.00033930     -5672.2625430454  4.49E-03
  POISSON|   iter        pres error      nabs error        E_hartree    delta E
  POISSON|      1        0.4562E-08      0.9525E-06    1993.0710851219  0.15E-03
  POISSON| Poisson solver converged in 1 iteration. 
    19 Broy./Diag. 0.30E+00   12.1     0.00025208     -5672.2632760126 -7.33E-04
  POISSON|   iter        pres error      nabs error        E_hartree    delta E
  POISSON|      1        0.2121E-08      0.1058E-05    1993.0715267711  0.44E-03
  POISSON| Poisson solver converged in 1 iteration. 
    20 Broy./Diag. 0.30E+00   12.1     0.00012536     -5672.2659620542 -2.69E-03
  POISSON|   iter        pres error      nabs error        E_hartree    delta E
  POISSON|      1        0.1017E-07      0.9555E-06    1993.0720069068  0.48E-03
  POISSON|      2        0.3149E-19      0.1017E-07    1993.0720069068  0.23E-12
  POISSON| Poisson solver converged in 2 iterations.
    21 Broy./Diag. 0.30E+00   13.5     0.00017897     -5672.2653006725  6.61E-04
  POISSON|   iter        pres error      nabs error        E_hartree    delta E
  POISSON|      1        0.1860E-07      0.1162E-05    1993.0725115104  0.50E-03
  POISSON|      2        0.4018E-19      0.1860E-07    1993.0725115104  0.23E-12
  POISSON| Poisson solver converged in 2 iterations.
    22 Broy./Diag. 0.30E+00   13.5     0.00016989     -5672.2647733347  5.27E-04
  POISSON|   iter        pres error      nabs error        E_hartree    delta E
  POISSON|      1        0.1110E-08      0.7390E-06    1993.0727726464  0.26E-03
  POISSON| Poisson solver converged in 1 iteration. 
    23 Broy./Diag. 0.30E+00   12.1     0.00012698     -5672.2650228964 -2.50E-04
  POISSON|   iter        pres error      nabs error        E_hartree    delta E
  POISSON|      1        0.1213E-07      0.7206E-06    1993.0730810547  0.31E-03
  POISSON|      2        0.2185E-19      0.1213E-07    1993.0730810547 -0.23E-12
  POISSON| Poisson solver converged in 2 iterations.
    24 Broy./Diag. 0.30E+00   13.5     0.00008192     -5672.2664022892 -1.38E-03
  POISSON|   iter        pres error      nabs error        E_hartree    delta E
  POISSON|      1        0.8047E-07      0.4576E-06    1993.0731435399  0.62E-04
  POISSON|      2        0.7597E-20      0.8047E-07    1993.0731435399  0.23E-12
  POISSON| Poisson solver converged in 2 iterations.
    25 Broy./Diag. 0.30E+00   13.6     0.00018808     -5672.2653548390  1.05E-03
  POISSON|   iter        pres error      nabs error        E_hartree    delta E
  POISSON|      1        0.9615E-07      0.5827E-06    1993.0732708572  0.13E-03
  POISSON|      2        0.2145E-19      0.9615E-07    1993.0732708572  0.00E+00
  POISSON| Poisson solver converged in 2 iterations.
    26 Broy./Diag. 0.30E+00   13.5     0.00019545     -5672.2657953244 -4.40E-04
  POISSON|   iter        pres error      nabs error        E_hartree    delta E
  POISSON|      1        0.5578E-07      0.1011E-05    1993.0734643793  0.19E-03
  POISSON|      2        0.3450E-19      0.5578E-07    1993.0734643793 -0.23E-12
  POISSON| Poisson solver converged in 2 iterations.
    27 Broy./Diag. 0.30E+00   13.5     0.00012246     -5672.2656967422  9.86E-05
  POISSON|   iter        pres error      nabs error        E_hartree    delta E
  POISSON|      1        0.7489E-08      0.5621E-06    1993.0735599146  0.96E-04
  POISSON| Poisson solver converged in 1 iteration. 
    28 Broy./Diag. 0.30E+00   12.1     0.00006285     -5672.2665199944 -8.23E-04
  POISSON|   iter        pres error      nabs error        E_hartree    delta E
  POISSON|      1        0.6719E-08      0.4152E-06    1993.0735917036  0.32E-04
  POISSON| Poisson solver converged in 1 iteration. 
    29 Broy./Diag. 0.30E+00   12.1     0.00005713     -5672.2661533232  3.67E-04
  POISSON|   iter        pres error      nabs error        E_hartree    delta E
  POISSON|      1        0.8385E-08      0.4473E-06    1993.0735775185 -0.14E-04
  POISSON| Poisson solver converged in 1 iteration. 
    30 Broy./Diag. 0.30E+00   12.1     0.00004764     -5672.2661493818  3.94E-06
  POISSON|   iter        pres error      nabs error        E_hartree    delta E
  POISSON|      1        0.7548E-08      0.3620E-06    1993.0735747944 -0.27E-05
  POISSON| Poisson solver converged in 1 iteration. 
    31 Broy./Diag. 0.30E+00   12.1     0.00003182     -5672.2669616330 -8.12E-04
  POISSON|   iter        pres error      nabs error        E_hartree    delta E
  POISSON|      1        0.5699E-08      0.3698E-06    1993.0735547360 -0.20E-04
  POISSON| Poisson solver converged in 1 iteration. 
    32 Broy./Diag. 0.30E+00   12.1     0.00003182     -5672.2667096998  2.52E-04
  POISSON|   iter        pres error      nabs error        E_hartree    delta E
  POISSON|      1        0.6160E-08      0.2048E-06    1993.0735375603 -0.17E-04
  POISSON| Poisson solver converged in 1 iteration. 
    33 Broy./Diag. 0.30E+00   12.1     0.00003336     -5672.2669510020 -2.41E-04
  POISSON|   iter        pres error      nabs error        E_hartree    delta E
  POISSON|      1        0.2984E-08      0.2278E-06    1993.0735498058  0.12E-04
  POISSON| Poisson solver converged in 1 iteration. 
    34 Broy./Diag. 0.30E+00   12.1     0.00002566     -5672.2669156962  3.53E-05
  POISSON|   iter        pres error      nabs error        E_hartree    delta E
  POISSON|      1        0.5650E-08      0.1747E-06    1993.0735758563  0.26E-04
  POISSON| Poisson solver converged in 1 iteration. 
    35 Broy./Diag. 0.30E+00   12.2     0.00003225     -5672.2672126455 -2.97E-04
  POISSON|   iter        pres error      nabs error        E_hartree    delta E
  POISSON|      1        0.2009E-07      0.1178E-06    1993.0735705111 -0.53E-05
  POISSON|      2        0.4871E-20      0.2009E-07    1993.0735705111  0.23E-12
  POISSON| Poisson solver converged in 2 iterations.
    36 Broy./Diag. 0.30E+00   13.5     0.00004199     -5672.2669172646  2.95E-04
  POISSON|   iter        pres error      nabs error        E_hartree    delta E
  POISSON|      1        0.5810E-08      0.2502E-06    1993.0736197871  0.49E-04
  POISSON| Poisson solver converged in 1 iteration. 
    37 Broy./Diag. 0.30E+00   12.1     0.00002981     -5672.2668897763  2.75E-05
  POISSON|   iter        pres error      nabs error        E_hartree    delta E
  POISSON|      1        0.4011E-08      0.1084E-06    1993.0736532414  0.33E-04
  POISSON| Poisson solver converged in 1 iteration. 
    38 Broy./Diag. 0.30E+00   12.2     0.00001858     -5672.2668626952  2.71E-05
  POISSON|   iter        pres error      nabs error        E_hartree    delta E
  POISSON|      1        0.2086E-08      0.1022E-06    1993.0736857314  0.32E-04
  POISSON| Poisson solver converged in 1 iteration. 
    39 Broy./Diag. 0.30E+00   12.2     0.00001460     -5672.2669203341 -5.76E-05
  POISSON|   iter        pres error      nabs error        E_hartree    delta E
  POISSON|      1        0.2070E-08      0.1030E-06    1993.0737192711  0.34E-04
  POISSON| Poisson solver converged in 1 iteration. 
    40 Broy./Diag. 0.30E+00   12.1     0.00001463     -5672.2668417049  7.86E-05
  POISSON|   iter        pres error      nabs error        E_hartree    delta E
  POISSON|      1        0.1704E-08      0.8744E-07    1993.0737350566  0.16E-04
  POISSON| Poisson solver converged in 1 iteration. 
    41 Broy./Diag. 0.30E+00   12.1     0.00000990     -5672.2666738954  1.68E-04
  POISSON|   iter        pres error      nabs error        E_hartree    delta E
  POISSON|      1        0.3104E-08      0.8814E-07    1993.0737487157  0.14E-04
  POISSON| Poisson solver converged in 1 iteration. 
    42 Broy./Diag. 0.30E+00   12.1     0.00000856     -5672.2668120912 -1.38E-04
  POISSON|   iter        pres error      nabs error        E_hartree    delta E
  POISSON|      1        0.2026E-08      0.8848E-07    1993.0737480689 -0.65E-06
  POISSON| Poisson solver converged in 1 iteration. 
    43 Broy./Diag. 0.30E+00   12.1     0.00000871     -5672.2667240706  8.80E-05
  POISSON|   iter        pres error      nabs error        E_hartree    delta E
  POISSON|      1        0.2279E-08      0.6246E-07    1993.0737421931 -0.59E-05
  POISSON| Poisson solver converged in 1 iteration. 
    44 Broy./Diag. 0.30E+00   12.1     0.00000900     -5672.2667792261 -5.52E-05
  POISSON|   iter        pres error      nabs error        E_hartree    delta E
  POISSON|      1        0.5340E-08      0.1313E-06    1993.0737287739 -0.13E-04
  POISSON| Poisson solver converged in 1 iteration. 
    45 Broy./Diag. 0.30E+00   12.1     0.00000824     -5672.2667467998  3.24E-05
  POISSON|   iter        pres error      nabs error        E_hartree    delta E
  POISSON|      1        0.1117E-07      0.8511E-07    1993.0737354202  0.66E-05
  POISSON|      2        0.2541E-20      0.1117E-07    1993.0737354202 -0.23E-12
  POISSON| Poisson solver converged in 2 iterations.
    46 Broy./Diag. 0.30E+00   13.5     0.00002077     -5672.2668347605 -8.80E-05
  POISSON|   iter        pres error      nabs error        E_hartree    delta E
  POISSON|      1        0.1010E-07      0.1404E-06    1993.0737179921 -0.17E-04
  POISSON|      2        0.5899E-20      0.1010E-07    1993.0737179921  0.23E-12
  POISSON| Poisson solver converged in 2 iterations.
    47 Broy./Diag. 0.30E+00   13.5     0.00001333     -5672.2668266273  8.13E-06
  POISSON|   iter        pres error      nabs error        E_hartree    delta E
  POISSON|      1        0.5149E-09      0.5611E-07    1993.0737104557 -0.75E-05
  POISSON| Poisson solver converged in 1 iteration. 
    48 Broy./Diag. 0.30E+00   12.1     0.00000681     -5672.2668229337  3.69E-06
  POISSON|   iter        pres error      nabs error        E_hartree    delta E
  POISSON|      1        0.1536E-08      0.4496E-07    1993.0737074931 -0.30E-05
  POISSON| Poisson solver converged in 1 iteration. 
    49 Broy./Diag. 0.30E+00   12.1     0.00000539     -5672.2668226997  2.34E-07
  POISSON|   iter        pres error      nabs error        E_hartree    delta E
  POISSON|      1        0.1108E-08      0.4460E-07    1993.0737075969  0.10E-06
  POISSON| Poisson solver converged in 1 iteration. 
    50 Broy./Diag. 0.30E+00   12.1     0.00000459     -5672.2668569655 -3.43E-05
  POISSON|   iter        pres error      nabs error        E_hartree    delta E
  POISSON|      1        0.1276E-08      0.5019E-07    1993.0737125513  0.50E-05
  POISSON| Poisson solver converged in 1 iteration. 
    51 Broy./Diag. 0.30E+00   12.1     0.00000357     -5672.2668694939 -1.25E-05
  POISSON|   iter        pres error      nabs error        E_hartree    delta E
  POISSON|      1        0.5880E-09      0.3865E-07    1993.0737168448  0.43E-05
  POISSON| Poisson solver converged in 1 iteration. 
    52 Broy./Diag. 0.30E+00   12.2     0.00000425     -5672.2668047390  6.48E-05
  POISSON|   iter        pres error      nabs error        E_hartree    delta E
  POISSON|      1        0.1269E-08      0.4200E-07    1993.0737291308  0.12E-04
  POISSON| Poisson solver converged in 1 iteration. 
    53 Broy./Diag. 0.30E+00   12.1     0.00000252     -5672.2668478123 -4.31E-05
  POISSON|   iter        pres error      nabs error        E_hartree    delta E
  POISSON|      1        0.1854E-09      0.1693E-07    1993.0737374435  0.83E-05
  POISSON| Poisson solver converged in 1 iteration. 
    54 Broy./Diag. 0.30E+00   12.1     0.00000320     -5672.2668085250  3.93E-05
  POISSON|   iter        pres error      nabs error        E_hartree    delta E
  POISSON|      1        0.5319E-09      0.2987E-07    1993.0737469069  0.95E-05
  POISSON| Poisson solver converged in 1 iteration. 
    55 Broy./Diag. 0.30E+00   12.2     0.00000227     -5672.2668173672 -8.84E-06
  POISSON|   iter        pres error      nabs error        E_hartree    delta E
  POISSON|      1        0.3241E-08      0.1365E-07    1993.0737460553 -0.85E-06
  POISSON| Poisson solver converged in 1 iteration. 
    56 Broy./Diag. 0.30E+00   12.1     0.00000716     -5672.2668052645  1.21E-05
  POISSON|   iter        pres error      nabs error        E_hartree    delta E
  POISSON|      1        0.2546E-08      0.1902E-07    1993.0737525431  0.65E-05
  POISSON| Poisson solver converged in 1 iteration. 
    57 Broy./Diag. 0.30E+00   12.1     0.00000620     -5672.2668119691 -6.70E-06
  POISSON|   iter        pres error      nabs error        E_hartree    delta E
  POISSON|      1        0.9016E-09      0.1279E-07    1993.0737542061  0.17E-05
  POISSON| Poisson solver converged in 1 iteration. 
    58 Broy./Diag. 0.30E+00   12.2     0.00000197     -5672.2668089394  3.03E-06
  POISSON|   iter        pres error      nabs error        E_hartree    delta E
  POISSON|      1        0.1283E-10      0.9589E-08    1993.0737548036  0.60E-06
  POISSON| Poisson solver converged in 1 iteration. 
    59 Broy./Diag. 0.30E+00   12.2     0.00000119     -5672.2668197882 -1.08E-05
  POISSON|   iter        pres error      nabs error        E_hartree    delta E
  POISSON|      1        0.2037E-09      0.1044E-07    1993.0737545225 -0.28E-06
  POISSON| Poisson solver converged in 1 iteration. 
    60 Broy./Diag. 0.30E+00   12.2     0.00000123     -5672.2668110920  8.70E-06
  POISSON|   iter        pres error      nabs error        E_hartree    delta E
  POISSON|      1        0.3958E-09      0.1814E-07    1993.0737537957 -0.73E-06
  POISSON| Poisson solver converged in 1 iteration. 
    61 Broy./Diag. 0.30E+00   12.2     0.00000136     -5672.2668193619 -8.27E-06
  POISSON|   iter        pres error      nabs error        E_hartree    delta E
  POISSON|      1        0.3920E-09      0.9710E-08    1993.0737539921  0.20E-06
  POISSON| Poisson solver converged in 1 iteration. 
    62 Broy./Diag. 0.30E+00   12.1     0.00000121     -5672.2668421337 -2.28E-05
  POISSON|   iter        pres error      nabs error        E_hartree    delta E
  POISSON|      1        0.4621E-09      0.1373E-07    1993.0737526746 -0.13E-05
  POISSON| Poisson solver converged in 1 iteration. 
    63 Broy./Diag. 0.30E+00   12.1     0.00000080     -5672.2668260215  1.61E-05

  *** SCF run converged in    63 steps ***


  Electronic density on regular grids:      -2159.9999999992        0.0000000008
  Core density on regular grids:             2159.9999999995       -0.0000000005
  Total charge density on r-space grids:        0.0000000003
  Total charge density g-space grids:           0.0000000003

  Overlap energy of the core charge distribution:               0.00003180531645
  Self energy of the core charge distribution:              -9891.63555570741482
  Core Hamiltonian energy:                                   3202.05064672676781
  Hartree energy:                                            1993.07375267455222
  Electric enthalpy:                                         1993.07375267453631
  Exchange-correlation energy:                               -971.03162116309011
  Dispersion energy:                                           -4.69163991614700
  Electronic entropic energy:                                  -0.03244038963391
  Fermi energy:                                                -0.20798571583676

  Total energy:                                             -5672.26682602150959

 The electron density is written in cube file format to the file:

 cp2k-ELECTRON_DENSITY-1_0.cube

 !-----------------------------------------------------------------------------!
                     Mulliken Population Analysis

 #  Atom  Element  Kind  Atomic population                           Net charge
       1     Pt       1         10.063482                             -0.063482
       2     Pt       1         10.040382                             -0.040382
       3     Pt       1         10.060687                             -0.060687
       4     Pt       1         10.059921                             -0.059921
       5     Pt       1         10.050033                             -0.050033
       6     Pt       1         10.047856                             -0.047856
       7     Pt       1         10.061579                             -0.061579
       8     Pt       1         10.049594                             -0.049594
       9     Pt       1         10.045913                             -0.045913
      10     Pt       1         10.041028                             -0.041028
      11     Pt       1         10.044203                             -0.044203
      12     Pt       1         10.054621                             -0.054621
      13     Pt       1         10.049056                             -0.049056
      14     Pt       1         10.042369                             -0.042369
      15     Pt       1         10.047005                             -0.047005
      16     Pt       1         10.057704                             -0.057704
      17     Pt       1         10.062869                             -0.062869
      18     Pt       1         10.034985                             -0.034985
      19     Pt       1         10.049530                             -0.049530
      20     Pt       1         10.027754                             -0.027754
      21     Pt       1         10.032857                             -0.032857
[...]
    191      1      Pt          0.01176014    -0.00581812     0.00240015
    192      1      Pt         -0.00356961    -0.01548213     0.00101805
    193      1      Pt          0.00733654    -0.00619608    -0.00573407
    194      1      Pt         -0.01842861    -0.01183936    -0.00462706
    195      1      Pt          0.00208333     0.01464874    -0.00540933
    196      1      Pt         -0.00277178     0.02511605    -0.00055892
    197      1      Pt          0.00731510    -0.01636373     0.00257825
    198      1      Pt         -0.00807851    -0.00154617    -0.00348812
    199      1      Pt          0.00443142     0.01034924    -0.00311829
    200      1      Pt         -0.00303493     0.00974962    -0.00225388
    201      1      Pt          0.00341590     0.00902302    -0.00714842
    202      1      Pt         -0.00104661     0.00203536     0.00386124
    203      1      Pt          0.01260256    -0.02867288     0.00339872
    204      1      Pt         -0.00375248     0.02130612    -0.01546644
    205      1      Pt          0.01444632    -0.01886782     0.00878437
    206      1      Pt          0.00490057    -0.00862848     0.00116769
    207      1      Pt         -0.00686151    -0.00233028    -0.01579353
    208      1      Pt         -0.00206003     0.02900373     0.00916485
    209      1      Pt          0.00990072    -0.00400389    -0.00269139
    210      1      Pt         -0.00996502    -0.00572315    -0.00274061
    211      1      Pt          0.00184329    -0.00830732     0.00756201
    212      1      Pt         -0.00205077    -0.00044062     0.00768863
    213      1      Pt          0.01519085    -0.01172306     0.00311836
    214      1      Pt          0.00448794    -0.00142462     0.01595136
    215      1      Pt          0.00269558    -0.00179648    -0.01061533
    216      1      Pt         -0.01395888     0.00728896     0.00950860
 SUM OF ATOMIC FORCES           0.00001554     0.00001460    -0.00004712     0.00005172

 -------------------------------------------------------------------------------
 -                                                                             -
 -                                DBCSR STATISTICS                             -
 -                                                                             -
 -------------------------------------------------------------------------------
 COUNTER                                    TOTAL       BLAS       SMM       ACC
 flops    20 x    12 x    20            447897600       0.0%    100.0%      0.0%
 flops    20 x    32 x    20          58525286400       0.0%    100.0%      0.0%
 flops    20 x    20 x   204         248609088000       0.0%    100.0%      0.0%
 flops    20 x    20 x   224         272982528000       0.0%    100.0%      0.0%
 flops    20 x    20 x   192        1403910144000       0.0%    100.0%      0.0%
 flops inhomo. stacks                           0       0.0%      0.0%      0.0%
 flops total                         1.984475E+12       0.0%    100.0%      0.0%
 flops max/rank                     63.687885E+09       0.0%    100.0%      0.0%
 matmuls inhomo. stacks                         0       0.0%      0.0%      0.0%
 matmuls total                           14519520       0.0%    100.0%      0.0%
 number of processed stacks                 19072       0.0%    100.0%      0.0%
 average stack size                                     0.0     761.3       0.0
 marketing flops                     2.825076E+12
 -------------------------------------------------------------------------------
 # multiplications                             66
 max memory usage/rank               1.825882E+09
 # max total images/rank                        2
 # max 3D layers                                1
 # MPI messages exchanged                   27456
 MPI messages size (bytes):
  total size                        36.702028E+09
  min size                         829.440000E+03
  max size                           4.665600E+06
  average size                       1.336758E+06
 MPI breakdown and total messages size (bytes):
             size <=      128                   0                        0
       128 < size <=     8192                   0                        0
      8192 < size <=    32768                   0                        0
     32768 < size <=   131072                   0                        0
    131072 < size <=  4194304               27232              35656934400
   4194304 < size <= 16777216                 224               1045094400
  16777216 < size                               0                        0
 -------------------------------------------------------------------------------

 *** WARNING in dbcsr_mm.F:290 :: Using a non-square number of MPI ranks ***
 *** might lead to poor performance. Used ranks: 32 Suggested: 36 64     ***

 -------------------------------------------------------------------------------
 -                                                                             -
 -                      DBCSR MESSAGE PASSING PERFORMANCE                      -
 -                                                                             -
 -------------------------------------------------------------------------------
 ROUTINE             CALLS      AVE VOLUME [Bytes]
 MP_Bcast                6                     12.
 MP_Allreduce          485                      9.
 MP_Alltoall          1829                1275340.
 MP_ISend             2112                 578495.
 MP_IRecv             2112                 561506.
 -------------------------------------------------------------------------------

 -------------------------------------------------------------------------------
 -                                                                             -
 -                                DBM STATISTICS                               -
 -                                                                             -
 -------------------------------------------------------------------------------
    M  x    N  x    K                                          COUNT     PERCENT
 -------------------------------------------------------------------------------

 -------------------------------------------------------------------------------
 -                                                                             -
 -                                GRID STATISTICS                              -
 -                                                                             -
 -------------------------------------------------------------------------------
 LP    KERNEL             BACKEND                              COUNT     PERCENT
 4     collocate general  REF                               21782464      49.97%
 4     integrate general  REF                               21442113      49.19%
 5     integrate general  REF                                 340351       0.78%
 0     collocate general  REF                                  13824       0.03%
 0     integrate general  REF                                   6912       0.02%
 1     integrate general  REF                                   6912       0.02%
 -------------------------------------------------------------------------------

 MEMORY| Estimated peak process memory [MiB]                                2150

 -------------------------------------------------------------------------------
 ----                             MULTIGRID INFO                            ----
 -------------------------------------------------------------------------------
 count for grid        1:          17576          cutoff [a.u.]          200.00
 count for grid        2:         177561          cutoff [a.u.]           66.67
 count for grid        3:         109685          cutoff [a.u.]           22.22
 count for grid        4:         155174          cutoff [a.u.]            7.41
 total gridlevel count  :         459996

 -------------------------------------------------------------------------------
 -                                                                             -
 -                         MESSAGE PASSING PERFORMANCE                         -
 -                                                                             -
 -------------------------------------------------------------------------------

 ROUTINE             CALLS      AVE VOLUME [Bytes]
 MP_Group                4
 MP_Bcast             1770                 164528.
 MP_Allreduce         1598                   1582.
 MP_Sync                69
 MP_Alltoall          3095               49276642.
 MP_SendRecv           124                  14976.
 MP_ISendRecv         7936                 214800.
 MP_Wait             19240
 MP_comm_split           1
 MP_ISend            10136                 715003.
 MP_IRecv            10136                 715003.
 MP_Recv               192                1105920.
 MP_Write_All            3                4213860.
 -------------------------------------------------------------------------------


 -------------------------------------------------------------------------------
 -                                                                             -
 -                           R E F E R E N C E S                               -
 -                                                                             -
 -------------------------------------------------------------------------------
 
 CP2K version 2022.1, the CP2K developers group (2022).
 CP2K is freely available from https://www.cp2k.org/ .

 Kuehne,Thomas D.; Iannuzzi,Marcella; Del Ben,Mauro;
 Rybkin,Vladimir V.; Seewald,Patrick; Stein,Frederick; Laino,Teodoro;
 Khaliullin,Rustam Z.; Schuett,Ole; Schiffmann,Florian; Golze,Dorothea;
 Wilhelm,Jan; Chulkov,Sergey; Bani-Hashemian,Mohammad Hossein;
 Weber,Valery; Borstnik,Urban; Taillefumier,Mathieu;
 Jakobovits,Alice Shoshana; Lazzaro,Alfio; Pabst,Hans; Mueller,Tiziano;
 Schade,Robert; Guidon,Manuel; Andermatt,Samuel; Holmberg,Nico;
 Schenter,Gregory K.; Hehn,Anna; Bussy,Augustin; Belleflamme,Fabian;
 Tabacchi,Gloria; Gloess,Andreas; Lass,Michael; Bethune,Iain;
 Mundy,Christopher J.; Plessl,Christian; Watkins,Matt;
 VandeVondele,Joost; Krack,Matthias; Hutter,Juerg. 
 The Journal of Chemical Physics, 152 (19), (2020). 
 CP2K: An electronic structure and molecular dynamics software package -
 Quickstep: Efficient and accurate electronic structure calculations.
 https://doi.org/10.1063/5.0007045

 Goerigk, Lars; Hansen, Andreas; Bauer, Christoph; Ehrlich, Stephan;
 Najibi, Asim; Grimme, Stefan. , 19 (48), (2017). 
 A look at the density functional theory zoo with the advanced GMTKN55 database
 for general main group thermochemistry, kinetics and noncovalent interactions.
 https://doi.org/10.1039/C7CP04913G

 Bani-Hashemian, MH; Bruck, S; Luisier, M; VandeVondele, J. 
 JOURNAL OF CHEMICAL PHYSICS, 144 (4), 044113 (2016). 
 A generalized Poisson solver for first-principles device simulations.
 https://doi.org/10.1063/1.4940796

 Schuett, Ole; Messmer, Peter; Hutter, Juerg; VandeVondele, Joost. 
 Electronic Structure Calculations on Graphics Processing Units, John
 Wiley & Sons, Ltd, 173-190 (2016). 
 GPU-Accelerated Sparse Matrix-Matrix Multiplication for
 Linear Scaling Density Functional Theory.
 https://doi.org/10.1002/9781118670712.ch8

 Heinecke, A; Henry, G; Hutchinson, M; Pabst, H. 
 Proceedings of Intl. Supercomputing Conference, 981-991 (2016). 
 LIBXSMM: Accelerating Small Matrix Multiplications
 by Runtime Code Generation.
 https://doi.org/10.1109/SC.2016.83

 Borstnik, U; VandeVondele, J; Weber, V; Hutter, J. 
 PARALLEL COMPUTING, 40 (5-6), 47-58 (2014). 
 Sparse matrix multiplication: The distributed block-compressed sparse
 row library.
 https://doi.org/10.1016/j.parco.2014.03.012

 Hutter, J; Iannuzzi, M; Schiffmann, F; VandeVondele, J. 
 WIREs Comput Mol Sci., 4 (1), 15-25 (2014). 
 CP2K: atomistic simulations of condensed matter systems.
 https://doi.org/10.1002/wcms.1159

 Marek, A; Blum, V; Johanni, R; Havu, V; Lang, B; Auckenthaler, T;
 Heinecke, A; Bungartz, H; Lederer, H. 
 Journal of Physics: Condensed Matter, 26 (21), (2014). 
 The ELPA library: scalable parallel eigenvalue solutions for
 electronic structure
 theory and computational science.
 https://doi.org/10.1088/0953-8984/26/21/213201

 Grimme, S; Ehrlich, S; Goerigk, L. 
 JOURNAL OF COMPUTATIONAL CHEMISTRY, 32, 1456 (2011). 
 Effect of the damping function in dispersion corrected density functional theory.
 https://doi.org/10.1002/jcc.21759

 Grimme, S; Antony, J; Ehrlich, S; Krieg, H. 
 JOURNAL OF CHEMICAL PHYSICS, 132 (15), 154104 (2010). 
 A consistent and accurate ab initio parametrization of density
 functional dispersion correction (DFT-D) for the 94 elements H-Pu.
 https://doi.org/10.1063/1.3382344

 VandeVondele, J; Hutter, J. 
 JOURNAL OF CHEMICAL PHYSICS, 127 (11), 114105 (2007). 
 Gaussian basis sets for accurate calculations on molecular systems in
 gas and condensed phases.
 https://doi.org/10.1063/1.2770708

 Krack, M. 
 THEORETICAL CHEMISTRY ACCOUNTS, 114 (1-3), 145-152 (2005). 
 Pseudopotentials for H to Kr optimized for gradient-corrected
 exchange-correlation functionals.
 https://doi.org/10.1007/s00214-005-0655-y

 VandeVondele, J; Krack, M; Mohamed, F; Parrinello, M; Chassaing, T;
 Hutter, J. COMPUTER PHYSICS COMMUNICATIONS, 167 (2), 103-128 (2005). 
 QUICKSTEP: Fast and accurate density functional calculations using a
 mixed Gaussian and plane waves approach.
 https://doi.org/10.1016/j.cpc.2004.12.014

 Frigo, M; Johnson, SG. 
 PROCEEDINGS OF THE IEEE, 93 (2), 216-231 (2005). 
 The design and implementation of FFTW3.
 https://doi.org/10.1109/JPROC.2004.840301

 Hartwigsen, C; Goedecker, S; Hutter, J. 
 PHYSICAL REVIEW B, 58 (7), 3641-3662 (1998). 
 Relativistic separable dual-space Gaussian pseudopotentials from H to Rn.
 https://doi.org/10.1103/PhysRevB.58.3641

 Lippert, G; Hutter, J; Parrinello, M. 
 MOLECULAR PHYSICS, 92 (3), 477-487 (1997). 
 A hybrid Gaussian and plane wave density functional scheme.
 https://doi.org/10.1080/002689797170220

 Perdew, JP; Burke, K; Ernzerhof, M. 
 PHYSICAL REVIEW LETTERS, 77 (18), 3865-3868 (1996). 
 Generalized gradient approximation made simple.
 https://doi.org/10.1103/PhysRevLett.77.3865

 Goedecker, S; Teter, M; Hutter, J. 
 PHYSICAL REVIEW B, 54 (3), 1703-1710 (1996). 
 Separable dual-space Gaussian pseudopotentials.
 https://doi.org/10.1103/PhysRevB.54.1703


 -------------------------------------------------------------------------------
 -                                                                             -
 -                                T I M I N G                                  -
 -                                                                             -
 -------------------------------------------------------------------------------
 SUBROUTINE                       CALLS  ASD         SELF TIME        TOTAL TIME
                                MAXIMUM       AVERAGE  MAXIMUM  AVERAGE  MAXIMUM
 CP2K                                 1  1.0    0.019    0.044  821.117  821.119
 qs_forces                            1  2.0    0.001    0.001  820.705  820.706
 qs_energies                          1  3.0    0.000    0.000  807.928  807.933
 scf_env_do_scf                       1  4.0    0.000    0.000  799.632  799.719
 scf_env_do_scf_inner_loop           63  5.0    0.003    0.006  799.629  799.717
 rebuild_ks_matrix                   64  7.0    0.000    0.000  507.432  507.471
 qs_ks_build_kohn_sham_matrix        64  8.0    0.010    0.011  507.432  507.471
 qs_ks_update_qs_env                 63  6.0    0.000    0.001  499.135  499.174
 pw_transfer                       2952 12.1    0.226    0.269  283.764  286.381
 fft_wrap_pw1pw2                   2952 13.1    0.032    0.036  283.538  286.140
 fft_wrap_pw1pw2_200               2568 14.4   24.068   27.171  280.711  283.272
 pw_poisson_solve                    64  9.0    0.018    0.025  241.609  241.681
 implicit_poisson_solver_mixed_      64 10.0    6.483    7.053  226.973  227.122
 fft3d_ps                          2952 15.1  120.946  130.207  211.456  214.608
 qs_rho_update_rho_low               64  6.0    0.001    0.001  193.644  193.660
 calculate_rho_elec                  64  7.0    0.350    0.375  193.644  193.659
 sum_up_and_integrate                64  9.0    0.999    1.091  181.773  181.821
 integrate_v_rspace                  64 10.0    0.002    0.002  180.774  180.886
 grid_collocate_task_list            64  8.0   85.818  167.486   85.818  167.486
 derive_fft                         308 12.2    0.022    0.025  159.565  160.711
 grid_integrate_task_list            64 11.0   79.636  154.997   79.636  154.997
 rs_pw_transfer                     516 10.5    0.006    0.007  107.032  133.871
 density_rs2pw                       64  8.0    0.004    0.005  106.102  133.155
 apply_P_operator                   244 11.2    2.285    2.624  128.780  129.611
 mp_waitany                       10136 12.4   89.127  115.817   89.127  115.817
 rs_pw_transfer_RS2PW_200            66 10.0    3.731    4.298   87.681  114.505
 mp_alltoall_d11v                   912 10.3   77.706  102.662   77.706  102.662
 rs_gather_matrices                  64 11.0    0.243    0.289   76.511  101.424
 qs_scf_new_mos                      63  6.0    0.006    0.009   79.338   79.428
 qs_vxc_create                       64  9.0    0.002    0.003   75.559   76.443
 xc_vxc_pw_create                    64 10.0    1.717    2.158   75.556   76.441
 eigensolver                         63  7.0    0.005    0.008   71.518   71.592
 x_to_yz                           1847 16.3   40.315   46.447   62.007   65.462
 mp_alltoall_z22v                  2952 17.1   38.666   57.654   38.666   57.654
 xc_pw_derive                       384 12.0    0.007    0.008   50.977   53.801
 apply_poisson_operator_fft          64 11.0    0.001    0.001   48.583   48.838
 cp_fm_diag_elpa                     64  8.0    0.001    0.001   45.395   45.512
 cp_fm_diag_elpa_base                64  9.0   44.421   44.529   45.269   45.333
 xc_rho_set_and_dset_create          64 11.0    0.726    0.883   39.365   40.290
 yz_to_x                           1105 15.8   11.459   12.207   28.433   39.679
 apply_inv_laplace_operator_fft     156 11.6    1.309    1.362   34.495   35.510
 xc_pw_divergence                    64 11.0    0.004    0.004   33.466   35.372
 ps_implicit_compute_veps            64 11.0    0.772    0.911   33.846   34.568
 pw_scatter_p                      1847 15.3   31.191   34.452   31.191   34.452
 gspace_mixing                       62  6.0    0.339    0.369   30.120   30.123
 pw_derive                         1308 13.1   25.017   26.082   25.017   26.082
 cp_fm_triangular_multiply          189  8.0   25.348   25.552   25.348   25.552
 potential_pw2rs                     64 11.0    0.051    0.059   24.613   24.718
 ps_implicit_compute_error_fft       90 11.0    1.666    1.787   22.228   23.777
 broyden_mixing                      62  7.0   21.978   22.495   22.582   22.688
 pw_gather_p                       1105 14.8   16.506   17.232   16.506   17.232
 -------------------------------------------------------------------------------

 The number of warnings for this run is : 1
 
 -------------------------------------------------------------------------------
  **** **** ******  **  PROGRAM ENDED AT                 2023-12-03 07:42:09.026
 ***** ** ***  *** **   PROGRAM RAN ON                                     cu042
 **    ****   ******    PROGRAM RAN BY                                     jxzhu
 ***** **    ** ** **   PROGRAM PROCESS ID                                 61427
  **** **  *******  **  PROGRAM STOPPED IN /public/home/jxzhu/tmp_calc/04c0855f9
                                           8753fac23fde4df51ba20f3741a9e9a/calc/
                                           task.001.000016
