 DBCSR| CPU Multiplication driver                                           XSMM
 DBCSR| Multrec recursion limit                                              512
 DBCSR| Multiplication stack size                                           1000
 DBCSR| Maximum elements for images                                    UNLIMITED
 DBCSR| Multiplicative factor virtual images                                   1
 DBCSR| Use multiplication densification                                       T
 DBCSR| Multiplication size stacks                                             3
 DBCSR| Use memory pool for CPU allocation                                     F
 DBCSR| Number of 3D layers                                               SINGLE
 DBCSR| Use MPI memory allocation                                              F
 DBCSR| Use RMA algorithm                                                      F
 DBCSR| Use Communication thread                                               T
 DBCSR| Communication thread load                                             87
 DBCSR| MPI: My node id                                                        0
 DBCSR| MPI: Number of nodes                                                  32
 DBCSR| OMP: Current number of threads                                         1
 DBCSR| OMP: Max number of threads                                             1
 DBCSR| Split modifier for TAS multiplication algorithm                  1.0E+00


  **** **** ******  **  PROGRAM STARTED AT               2023-12-03 06:25:49.523
 ***** ** ***  *** **   PROGRAM STARTED ON                                 cu042
 **    ****   ******    PROGRAM STARTED BY                                 jxzhu
 ***** **    ** ** **   PROGRAM PROCESS ID                                 49946
  **** **  *******  **  PROGRAM STARTED IN /public/home/jxzhu/tmp_calc/04c0855f9
                                           8753fac23fde4df51ba20f3741a9e9a/calc/
                                           task.000.000025

 CP2K| version string:                                       CP2K version 2022.1
 CP2K| source code revision number:                                  git:2caeb6f
 CP2K| cp2kflags: omp libint fftw3 libxc elpa parallel mpi3 scalapack cosma xsmm
 CP2K|             plumed2 spglib mkl sirius libvori libbqb
 CP2K| is freely available from                            https://www.cp2k.org/
 CP2K| Program compiled at                           Mon Jul 3 17:37:06 CST 2023
 CP2K| Program compiled on                                                 mu003
 CP2K| Program compiled for                                                local
 CP2K| Data directory path                             /public/home/jxzhu/basis/
 CP2K| Input file name                                                 input.inp
 
 GLOBAL| Force Environment number                                              1
 GLOBAL| Basis set file name                                        BASIS_MOLOPT
 GLOBAL| Potential file name                                      GTH_POTENTIALS
 GLOBAL| MM Potential file name                                     MM_POTENTIAL
 GLOBAL| Coordinate file name                                          coord.xyz
 GLOBAL| Method name                                                        CP2K
 GLOBAL| Project name                                                       cp2k
 GLOBAL| Run type                                                   ENERGY_FORCE
 GLOBAL| FFT library                                                       FFTW3
 GLOBAL| Diagonalization library                                            ELPA
 GLOBAL| Minimum number of eigenvectors for ELPA usage                        16
 GLOBAL| Orthonormality check for eigenvectors                          DISABLED
 GLOBAL| Matrix multiplication library                                     COSMA
 GLOBAL| All-to-all communication in single precision                          F
 GLOBAL| FFTs using library dependent lengths                                  T
 GLOBAL| Grid backend                                                       AUTO
 GLOBAL| Global print level                                               MEDIUM
 GLOBAL| MPI I/O enabled                                                       T
 GLOBAL| Total number of message passing processes                            32
 GLOBAL| Number of threads for this process                                    1
 GLOBAL| This output is from process                                           0
 GLOBAL| Stack size for threads created by OpenMP (OMP_STACKSIZE)        default
 GLOBAL| CPU model name                 Intel(R) Xeon(R) Gold 6338 CPU @ 2.00GHz
 GLOBAL| CPUID                                                              1003

 MEMORY| system memory details [Kb]
 MEMORY|                        rank 0           min           max       average
 MEMORY| MemTotal            263619172     263619172     263619172     263619172
 MEMORY| MemFree             171770596     171770596     171770596     171770596
 MEMORY| Buffers                  3320          3320          3320          3320
 MEMORY| Cached                9039016       9039016       9039016       9039016
 MEMORY| Slab                  1953588       1953588       1953588       1953588
 MEMORY| SReclaimable           248640        248640        248640        248640
 MEMORY| MemLikelyFree       181061572     181061572     181061572     181061572


 *** Fundamental physical constants (SI units) ***

 *** Literature: B. J. Mohr and B. N. Taylor,
 ***             CODATA recommended values of the fundamental physical
 ***             constants: 2006, Web Version 5.1
 ***             http://physics.nist.gov/constants

 Speed of light in vacuum [m/s]                             2.99792458000000E+08
 Magnetic constant or permeability of vacuum [N/A**2]       1.25663706143592E-06
 Electric constant or permittivity of vacuum [F/m]          8.85418781762039E-12
 Planck constant (h) [J*s]                                  6.62606896000000E-34
 Planck constant (h-bar) [J*s]                              1.05457162825177E-34
 Elementary charge [C]                                      1.60217648700000E-19
 Electron mass [kg]                                         9.10938215000000E-31
 Electron g factor [ ]                                     -2.00231930436220E+00
 Proton mass [kg]                                           1.67262163700000E-27
 Fine-structure constant                                    7.29735253760000E-03
 Rydberg constant [1/m]                                     1.09737315685270E+07
 Avogadro constant [1/mol]                                  6.02214179000000E+23
 Boltzmann constant [J/K]                                   1.38065040000000E-23
 Atomic mass unit [kg]                                      1.66053878200000E-27
 Bohr radius [m]                                            5.29177208590000E-11

 *** Conversion factors ***

 [u] -> [a.u.]                                              1.82288848426455E+03
 [Angstrom] -> [Bohr] = [a.u.]                              1.88972613288564E+00
 [a.u.] = [Bohr] -> [Angstrom]                              5.29177208590000E-01
 [a.u.] -> [s]                                              2.41888432650478E-17
 [a.u.] -> [fs]                                             2.41888432650478E-02
 [a.u.] -> [J]                                              4.35974393937059E-18
 [a.u.] -> [N]                                              8.23872205491840E-08
 [a.u.] -> [K]                                              3.15774647902944E+05
 [a.u.] -> [kJ/mol]                                         2.62549961709828E+03
 [a.u.] -> [kcal/mol]                                       6.27509468713739E+02
 [a.u.] -> [Pa]                                             2.94210107994716E+13
 [a.u.] -> [bar]                                            2.94210107994716E+08
 [a.u.] -> [atm]                                            2.90362800883016E+08
 [a.u.] -> [eV]                                             2.72113838565563E+01
 [a.u.] -> [Hz]                                             6.57968392072181E+15
 [a.u.] -> [1/cm] (wave numbers)                            2.19474631370540E+05
 [a.u./Bohr**2] -> [1/cm]                                   5.14048714338585E+03
 

 CELL_TOP| Volume [angstrom^3]:                                     12686.086737
 CELL_TOP| Vector a [angstrom    16.869     0.000     0.000   |a| =    16.869000
 CELL_TOP| Vector b [angstrom    -8.434    14.609     0.000   |b| =    16.868929
 CELL_TOP| Vector c [angstrom     0.000     0.000    51.478   |c| =    51.477900
 CELL_TOP| Angle (b,c), alpha [degree]:                                90.000000
 CELL_TOP| Angle (a,c), beta  [degree]:                                90.000000
 CELL_TOP| Angle (a,b), gamma [degree]:                               120.000140
 CELL_TOP| Numerically orthorhombic:                                          NO
 
 GENERATE|  Preliminary Number of Bonds generated:                             0
 GENERATE|  Achieved consistency in connectivity generation.

 CELL| Volume [angstrom^3]:                                         12686.086737
 CELL| Vector a [angstrom]:      16.869     0.000     0.000   |a| =    16.869000
 CELL| Vector b [angstrom]:      -8.434    14.609     0.000   |b| =    16.868929
 CELL| Vector c [angstrom]:       0.000     0.000    51.478   |c| =    51.477900
 CELL| Angle (b,c), alpha [degree]:                                    90.000000
 CELL| Angle (a,c), beta  [degree]:                                    90.000000
 CELL| Angle (a,b), gamma [degree]:                                   120.000140
 CELL| Numerically orthorhombic:                                              NO

 CELL_REF| Volume [angstrom^3]:                                     12686.086737
 CELL_REF| Vector a [angstrom    16.869     0.000     0.000   |a| =    16.869000
 CELL_REF| Vector b [angstrom    -8.434    14.609     0.000   |b| =    16.868929
 CELL_REF| Vector c [angstrom     0.000     0.000    51.478   |c| =    51.477900
 CELL_REF| Angle (b,c), alpha [degree]:                                90.000000
 CELL_REF| Angle (a,c), beta  [degree]:                                90.000000
 CELL_REF| Angle (a,b), gamma [degree]:                               120.000140
 CELL_REF| Numerically orthorhombic:                                          NO

 *******************************************************************************
 *******************************************************************************
 **                                                                           **
 **     #####                         ##              ##                      **
 **    ##   ##            ##          ##              ##                      **
 **   ##     ##                       ##            ######                    **
 **   ##     ##  ##   ##  ##   #####  ##  ##   ####   ##    #####    #####    **
 **   ##     ##  ##   ##  ##  ##      ## ##   ##      ##   ##   ##  ##   ##   **
 **   ##  ## ##  ##   ##  ##  ##      ####     ###    ##   ######   ######    **
 **    ##  ###   ##   ##  ##  ##      ## ##      ##   ##   ##       ##        **
 **     #######   #####   ##   #####  ##  ##  ####    ##    #####   ##        **
 **           ##                                                    ##        **
 **                                                                           **
 **                                                ... make the atoms dance   **
 **                                                                           **
 **            Copyright (C) by CP2K developers group (2000-2022)             **
 **                      J. Chem. Phys. 152, 194103 (2020)                    **
 **                                                                           **
 *******************************************************************************

 DFT| Spin restricted Kohn-Sham (RKS) calculation                            RKS
 DFT| Multiplicity                                                             1
 DFT| Number of spin states                                                    1
 DFT| Charge                                                                   0
 DFT| Self-interaction correction (SIC)                                       NO
 DFT| Cutoffs: density                                              1.000000E-10
 DFT|          gradient                                             1.000000E-10
 DFT|          tau                                                  1.000000E-10
 DFT|          cutoff_smoothing_range                               0.000000E+00
 DFT| XC density smoothing                                                  NONE
 DFT| XC derivatives                                                          PW

 FUNCTIONAL| PBE:
 FUNCTIONAL| J.P.Perdew, K.Burke, M.Ernzerhof, Phys. Rev. Letter, vol. 77, n 18,
 FUNCTIONAL|  pp. 3865-3868, (1996){spin unpolarized}                           

 vdW POTENTIAL|                                                   Pair Potential
 vdW POTENTIAL|          DFT-D3 (Version 3.1)
 vdW POTENTIAL|          Potential Form: S. Grimme et al, JCP 132: 154104 (2010)
 vdW POTENTIAL|          Zero Damping
 vdW POTENTIAL|          Cutoff Radius [Bohr]:                             20.00
 vdW POTENTIAL|          s6 Scaling Factor:                               1.0000
 vdW POTENTIAL|          sr6 Scaling Factor:                              1.2170
 vdW POTENTIAL|          s8 Scaling Factor:                               0.7220
 vdW POTENTIAL|          Cutoff for CN calculation:                   0.1000E-05

 QS| Method:                                                                 GPW
 QS| Density plane wave grid type                        NON-SPHERICAL FULLSPACE
 QS| Number of grid levels:                                                    4
 QS| Density cutoff [a.u.]:                                                200.0
 QS| Multi grid cutoff [a.u.]: 1) grid level                               200.0
 QS|                           2) grid level                                66.7
 QS|                           3) grid level                                22.2
 QS|                           4) grid level                                 7.4
 QS| Grid level progression factor:                                          3.0
 QS| Relative density cutoff [a.u.]:                                        20.0
 QS| Interaction thresholds: eps_pgf_orb:                                3.2E-07
 QS|                         eps_filter_matrix:                          0.0E+00
 QS|                         eps_core_charge:                            1.0E-15
 QS|                         eps_rho_gspace:                             1.0E-13
 QS|                         eps_rho_rspace:                             1.0E-13
 QS|                         eps_gvg_rspace:                             3.2E-07
 QS|                         eps_ppl:                                    1.0E-02
 QS|                         eps_ppnl:                                   3.2E-09


 ATOMIC KIND INFORMATION

  1. Atomic kind: Pt                                    Number of atoms:     216

     Orbital Basis Set                      DZVP-A5-Q10-323-MOL-T1-DERIVED_SET-1

       Number of orbital shell sets:                                           1
       Number of orbital shells:                                               6
       Number of primitive Cartesian functions:                                5
       Number of Cartesian basis functions:                                   23
       Number of spherical basis functions:                                   20
       Norm type:                                                              2

       Normalised Cartesian orbitals:

                        Set   Shell   Orbital            Exponent    Coefficient

                          1       1    2s                2.521825       0.177473
                                                         1.453920      -0.063399
                                                         0.614053      -0.407089
                                                         0.232656       0.262254
                                                         0.074788       0.047371

                          1       2    3s                2.521825      -0.049056
                                                         1.453920       0.044904
                                                         0.614053      -0.009756
                                                         0.232656      -0.144709
                                                         0.074788       0.144085

                          1       3    3px               2.521825      -0.317572
                                                         1.453920       0.534826
                                                         0.614053      -0.489458
                                                         0.232656       0.245631
                                                         0.074788       0.018221
                          1       3    3py               2.521825      -0.317572
                                                         1.453920       0.534826
                                                         0.614053      -0.489458
                                                         0.232656       0.245631
                                                         0.074788       0.018221
                          1       3    3pz               2.521825      -0.317572
                                                         1.453920       0.534826
                                                         0.614053      -0.489458
                                                         0.232656       0.245631
                                                         0.074788       0.018221

                          1       4    4dx2              2.521825       3.008522
                                                         1.453920      -1.224251
                                                         0.614053       0.225691
                                                         0.232656       0.125144
                                                         0.074788      -0.015348
                          1       4    4dxy              2.521825       5.210912
                                                         1.453920      -2.120465
                                                         0.614053       0.390909
                                                         0.232656       0.216756
                                                         0.074788      -0.026584
                          1       4    4dxz              2.521825       5.210912
                                                         1.453920      -2.120465
                                                         0.614053       0.390909
                                                         0.232656       0.216756
                                                         0.074788      -0.026584
                          1       4    4dy2              2.521825       3.008522
                                                         1.453920      -1.224251
                                                         0.614053       0.225691
                                                         0.232656       0.125144
                                                         0.074788      -0.015348
                          1       4    4dyz              2.521825       5.210912
                                                         1.453920      -2.120465
                                                         0.614053       0.390909
                                                         0.232656       0.216756
                                                         0.074788      -0.026584
                          1       4    4dz2              2.521825       3.008522
                                                         1.453920      -1.224251
                                                         0.614053       0.225691
                                                         0.232656       0.125144
                                                         0.074788      -0.015348

                          1       5    5dx2              2.521825       0.698026
                                                         1.453920      -1.511486
                                                         0.614053      -0.335394
                                                         0.232656      -0.025564
                                                         0.074788      -0.002699
                          1       5    5dxy              2.521825       1.209017
                                                         1.453920      -2.617970
                                                         0.614053      -0.580920
                                                         0.232656      -0.044277
                                                         0.074788      -0.004674
                          1       5    5dxz              2.521825       1.209017
                                                         1.453920      -2.617970
                                                         0.614053      -0.580920
                                                         0.232656      -0.044277
                                                         0.074788      -0.004674
                          1       5    5dy2              2.521825       0.698026
                                                         1.453920      -1.511486
                                                         0.614053      -0.335394
                                                         0.232656      -0.025564
                                                         0.074788      -0.002699
                          1       5    5dyz              2.521825       1.209017
                                                         1.453920      -2.617970
                                                         0.614053      -0.580920
                                                         0.232656      -0.044277
                                                         0.074788      -0.004674
                          1       5    5dz2              2.521825       0.698026
                                                         1.453920      -1.511486
                                                         0.614053      -0.335394
                                                         0.232656      -0.025564
                                                         0.074788      -0.002699

                          1       6    6dx2              2.521825       0.831079
                                                         1.453920      -0.709226
                                                         0.614053      -0.137351
                                                         0.232656       0.068642
                                                         0.074788       0.011745
                          1       6    6dxy              2.521825       1.439472
                                                         1.453920      -1.228415
                                                         0.614053      -0.237899
                                                         0.232656       0.118891
                                                         0.074788       0.020343
                          1       6    6dxz              2.521825       1.439472
                                                         1.453920      -1.228415
                                                         0.614053      -0.237899
                                                         0.232656       0.118891
                                                         0.074788       0.020343
                          1       6    6dy2              2.521825       0.831079
                                                         1.453920      -0.709226
                                                         0.614053      -0.137351
                                                         0.232656       0.068642
                                                         0.074788       0.011745
                          1       6    6dyz              2.521825       1.439472
                                                         1.453920      -1.228415
                                                         0.614053      -0.237899
                                                         0.232656       0.118891
                                                         0.074788       0.020343
                          1       6    6dz2              2.521825       0.831079
                                                         1.453920      -0.709226
                                                         0.614053      -0.137351
                                                         0.232656       0.068642
                                                         0.074788       0.011745

       Atomic covalent radius [Angstrom]:                                  1.300

       Atomic van der Waals radius [Angstrom]:                             1.750

     GTH Potential information for                                   GTH-PBE-q10

       Description:                       Goedecker-Teter-Hutter pseudopotential
                                           Goedecker et al., PRB 54, 1703 (1996)
                                          Hartwigsen et al., PRB 58, 3641 (1998)
                                                      Krack, TCA 114, 145 (2005)

       Gaussian exponent of the core charge distribution:               1.317676
       Electronic configuration (s p d ...):                           1   0   9

       Parameters of the local part of the GTH pseudopotential:

                          rloc        C1          C2          C3          C4
                        0.616000   11.313635

       Parameters of the non-local part of the GTH pseudopotential:

                   l      r(l)      h(i,j,l)

                   0    0.550904    4.733491   -1.784594
                                   -1.784594    2.303901
                   1    0.674138    2.534798   -1.778066
                                   -1.778066    2.103836
                   2    0.457392   -7.264011    2.558665
                                    2.558665   -2.901253


 MOLECULE KIND INFORMATION


 All atoms are their own molecule, skipping detailed information


 TOTAL NUMBERS AND MAXIMUM NUMBERS

  Total number of            - Atomic kinds:                                   1
                             - Atoms:                                        216
                             - Shell sets:                                   216
                             - Shells:                                      1296
                             - Primitive Cartesian functions:               1080
                             - Cartesian basis functions:                   4968
                             - Spherical basis functions:                   4320

  Maximum angular momentum of- Orbital basis functions:                        2
                             - Local part of the GTH pseudopotential:          0
                             - Non-local part of the GTH pseudopotential:      4


 MODULE QUICKSTEP:  ATOMIC COORDINATES IN angstrom

 Atom  Kind  Element       X           Y           Z          Z(eff)       Mass
    1   1 Pt  78       2.168370    0.714470   19.834935      10.0000    195.0840
    2   1 Pt  78       5.028370    0.794470   19.844937      10.0000    195.0840
    3   1 Pt  78       7.758370    0.664470   20.064934      10.0000    195.0840
    4   1 Pt  78      10.628370    0.604470   19.914937      10.0000    195.0840
    5   1 Pt  78      13.458370    0.584470   19.774937      10.0000    195.0840
    6   1 Pt  78      16.238372    0.614470   19.994935      10.0000    195.0840
    7   1 Pt  78       3.448370    3.024470   19.774937      10.0000    195.0840
    8   1 Pt  78       6.588370    3.014470   19.824933      10.0000    195.0840
    9   1 Pt  78       9.298370    3.034469   19.994935      10.0000    195.0840
   10   1 Pt  78      12.088370    2.964470   19.784936      10.0000    195.0840
   11   1 Pt  78      14.818371    3.124470   19.944935      10.0000    195.0840
   12   1 Pt  78       0.678370    3.074470   19.914937      10.0000    195.0840
   13   1 Pt  78       5.058371    5.364470   19.914937      10.0000    195.0840
   14   1 Pt  78       7.898370    5.474470   20.054936      10.0000    195.0840
   15   1 Pt  78      10.688371    5.504470   19.754933      10.0000    195.0840
   16   1 Pt  78      13.498371    5.474470   19.904935      10.0000    195.0840
   17   1 Pt  78      -0.641630    5.434470   19.984936      10.0000    195.0840
   18   1 Pt  78       2.148370    5.394470   19.914937      10.0000    195.0840
   19   1 Pt  78       6.358370    7.964470   19.804932      10.0000    195.0840
   20   1 Pt  78       9.138370    7.954470   19.894932      10.0000    195.0840
   21   1 Pt  78      11.958370    7.874470   19.984936      10.0000    195.0840
   22   1 Pt  78      -2.161630    7.984470   19.924935      10.0000    195.0840
   23   1 Pt  78       0.738370    8.004470   20.004937      10.0000    195.0840
   24   1 Pt  78       3.528370    7.794470   19.834935      10.0000    195.0840
   25   1 Pt  78       7.718371   10.334471   19.834935      10.0000    195.0840
   26   1 Pt  78      10.428370   10.364470   19.784936      10.0000    195.0840
   27   1 Pt  78      -3.471630   10.504470   19.814934      10.0000    195.0840
   28   1 Pt  78      -0.681630   10.314470   19.804932      10.0000    195.0840
   29   1 Pt  78       2.198370   10.334471   20.124936      10.0000    195.0840
   30   1 Pt  78       4.938371   10.414471   19.874936      10.0000    195.0840
   31   1 Pt  78       9.138370   12.814470   19.724934      10.0000    195.0840
   32   1 Pt  78      -4.851630   12.934470   19.804932      10.0000    195.0840
   33   1 Pt  78      -2.091630   12.814470   19.864934      10.0000    195.0840
   34   1 Pt  78       0.688370   12.814470   19.964932      10.0000    195.0840
   35   1 Pt  78       3.678370   12.854470   20.004937      10.0000    195.0840
   36   1 Pt  78       6.378370   12.754471   19.974934      10.0000    195.0840
   37   1 Pt  78       0.698370    1.334470   22.244935      10.0000    195.0840
   38   1 Pt  78       3.468370    1.334470   22.144936      10.0000    195.0840
   39   1 Pt  78       6.338371    1.294470   22.334935      10.0000    195.0840
   40   1 Pt  78       9.138370    1.204470   22.304932      10.0000    195.0840
   41   1 Pt  78      11.948371    1.284470   22.204934      10.0000    195.0840
   42   1 Pt  78      14.698371    1.324470   22.324933      10.0000    195.0840
   43   1 Pt  78       2.078370    3.684470   22.294934      10.0000    195.0840
   44   1 Pt  78       4.908370    3.774470   22.214936      10.0000    195.0840
   45   1 Pt  78       7.648371    3.674470   22.224934      10.0000    195.0840
   46   1 Pt  78      10.558371    3.664470   22.374936      10.0000    195.0840
   47   1 Pt  78      13.348371    3.804470   22.324933      10.0000    195.0840
   48   1 Pt  78      -0.681630    3.764470   22.344937      10.0000    195.0840
   49   1 Pt  78       3.538370    6.144470   22.354935      10.0000    195.0840
   50   1 Pt  78       6.308371    6.194470   22.264935      10.0000    195.0840
   51   1 Pt  78       9.118371    6.054470   22.304932      10.0000    195.0840
   52   1 Pt  78      12.118371    6.154470   22.294934      10.0000    195.0840
   53   1 Pt  78      -1.921630    6.294470   22.344937      10.0000    195.0840
   54   1 Pt  78       0.838370    6.144470   22.314934      10.0000    195.0840
   55   1 Pt  78       4.978370    8.604470   22.214936      10.0000    195.0840
   56   1 Pt  78       7.708370    8.574469   22.244935      10.0000    195.0840
   57   1 Pt  78      10.578370    8.644470   22.214936      10.0000    195.0840
   58   1 Pt  78      -3.461630    8.634470   22.234933      10.0000    195.0840
   59   1 Pt  78      -0.631630    8.624470   22.324933      10.0000    195.0840
   60   1 Pt  78       2.158370    8.524470   22.284936      10.0000    195.0840
   61   1 Pt  78       6.258370   11.004470   22.324933      10.0000    195.0840
   62   1 Pt  78       9.098371   11.024470   22.104935      10.0000    195.0840
   63   1 Pt  78      -4.981630   11.104471   22.034936      10.0000    195.0840
   64   1 Pt  78      -2.141630   10.964470   22.174935      10.0000    195.0840
   65   1 Pt  78       0.638370   11.044470   22.334935      10.0000    195.0840
   66   1 Pt  78       3.508370   11.064470   22.404935      10.0000    195.0840
   67   1 Pt  78       7.678370   13.444470   22.314934      10.0000    195.0840
   68   1 Pt  78      -6.331630   13.554471   22.094933      10.0000    195.0840
   69   1 Pt  78      -3.461630   13.534469   22.144936      10.0000    195.0840
   70   1 Pt  78      -0.761630   13.384470   22.294934      10.0000    195.0840
   71   1 Pt  78       2.108370   13.474470   22.294934      10.0000    195.0840
   72   1 Pt  78       4.828371   13.564470   22.374936      10.0000    195.0840
   73   1 Pt  78      -7.771630   14.264471   24.544934      10.0000    195.0840
   74   1 Pt  78      -4.961630   14.184470   24.404935      10.0000    195.0840
   75   1 Pt  78      -2.081630   14.134470   24.534936      10.0000    195.0840
   76   1 Pt  78       0.668370   14.074470   24.644932      10.0000    195.0840
   77   1 Pt  78       3.468370   14.194471   24.654935      10.0000    195.0840
   78   1 Pt  78       6.328370   14.204470   24.674935      10.0000    195.0840
   79   1 Pt  78       2.098370    2.164470   24.574933      10.0000    195.0840
   80   1 Pt  78       4.868370    2.084470   24.574933      10.0000    195.0840
   81   1 Pt  78       7.738370    2.064470   24.754933      10.0000    195.0840
   82   1 Pt  78      10.508370    1.874470   24.614934      10.0000    195.0840
   83   1 Pt  78      13.398371    2.034470   24.724938      10.0000    195.0840
   84   1 Pt  78      -0.681630    2.074470   24.584935      10.0000    195.0840
   85   1 Pt  78       3.578371    4.474470   24.544934      10.0000    195.0840
   86   1 Pt  78       6.298370    4.494470   24.604935      10.0000    195.0840
   87   1 Pt  78       9.168370    4.494470   24.644932      10.0000    195.0840
   88   1 Pt  78      11.888370    4.504470   24.644932      10.0000    195.0840
   89   1 Pt  78      -2.131630    4.474470   24.604935      10.0000    195.0840
   90   1 Pt  78       0.728370    4.484470   24.604935      10.0000    195.0840
   91   1 Pt  78       4.968370    6.974470   24.624936      10.0000    195.0840
   92   1 Pt  78       7.718371    6.864470   24.594937      10.0000    195.0840
   93   1 Pt  78      10.508370    7.024470   24.464936      10.0000    195.0840
   94   1 Pt  78      -3.621630    6.894470   24.644932      10.0000    195.0840
   95   1 Pt  78      -0.671630    6.894470   24.684933      10.0000    195.0840
   96   1 Pt  78       2.148370    6.794470   24.554936      10.0000    195.0840
   97   1 Pt  78       6.338371    9.414471   24.604935      10.0000    195.0840
   98   1 Pt  78       9.108371    9.364469   24.494935      10.0000    195.0840
   99   1 Pt  78      -4.901630    9.394470   24.444935      10.0000    195.0840
  100   1 Pt  78      -2.101630    9.294470   24.464936      10.0000    195.0840
  101   1 Pt  78       0.788370    9.314470   24.634934      10.0000    195.0840
  102   1 Pt  78       3.548370    9.344470   24.644932      10.0000    195.0840
  103   1 Pt  78       7.708370   11.824469   24.644932      10.0000    195.0840
  104   1 Pt  78      -6.391630   11.824469   24.454934      10.0000    195.0840
  105   1 Pt  78      -3.481630   11.774469   24.524937      10.0000    195.0840
  106   1 Pt  78      -0.711630   11.664471   24.524937      10.0000    195.0840
  107   1 Pt  78       2.068370   11.764471   24.744935      10.0000    195.0840
  108   1 Pt  78       4.878370   11.854470   24.614934      10.0000    195.0840
  109   1 Pt  78       2.068370    0.434470   26.742933      10.0000    195.0840
  110   1 Pt  78       4.948370    0.374470   26.742933      10.0000    195.0840
  111   1 Pt  78       7.718371    0.404470   26.892933      10.0000    195.0840
  112   1 Pt  78      10.398371    0.364470   26.992933      10.0000    195.0840
  113   1 Pt  78      13.278371    0.344470   26.962933      10.0000    195.0840
  114   1 Pt  78      16.078371    0.374470   26.912933      10.0000    195.0840
  115   1 Pt  78       3.508370    2.714470   26.852933      10.0000    195.0840
  116   1 Pt  78       6.248371    2.894470   26.942933      10.0000    195.0840
  117   1 Pt  78       9.038370    2.884470   26.972933      10.0000    195.0840
  118   1 Pt  78      11.818371    2.794470   26.992933      10.0000    195.0840
  119   1 Pt  78      14.708371    2.804469   27.012933      10.0000    195.0840
  120   1 Pt  78       0.698370    2.744470   26.982933      10.0000    195.0840
  121   1 Pt  78       4.898370    5.264470   26.912933      10.0000    195.0840
  122   1 Pt  78       7.648371    5.414470   26.932933      10.0000    195.0840
  123   1 Pt  78      10.428370    5.314470   26.892933      10.0000    195.0840
  124   1 Pt  78      13.208370    5.124470   26.862933      10.0000    195.0840
  125   1 Pt  78      -0.751630    5.174470   26.882933      10.0000    195.0840
  126   1 Pt  78       2.188370    5.184470   26.842933      10.0000    195.0840
  127   1 Pt  78       6.298370    7.744470   26.912933      10.0000    195.0840
  128   1 Pt  78       9.108371    7.774470   26.892933      10.0000    195.0840
  129   1 Pt  78      11.868371    7.664470   26.892933      10.0000    195.0840
  130   1 Pt  78      -2.201630    7.644470   26.922933      10.0000    195.0840
  131   1 Pt  78       0.648370    7.584470   26.952933      10.0000    195.0840
  132   1 Pt  78       3.538370    7.734470   26.892933      10.0000    195.0840
  133   1 Pt  78       7.698370   10.264469   26.852933      10.0000    195.0840
  134   1 Pt  78      10.448371   10.154470   26.752933      10.0000    195.0840
  135   1 Pt  78      -3.541630    9.994470   26.782933      10.0000    195.0840
  136   1 Pt  78      -0.741630   10.024470   26.932933      10.0000    195.0840
  137   1 Pt  78       1.988370   10.154470   27.002933      10.0000    195.0840
  138   1 Pt  78       4.808371   10.114469   26.862933      10.0000    195.0840
  139   1 Pt  78       9.088370   12.594470   26.872933      10.0000    195.0840
  140   1 Pt  78      -5.021630   12.514470   26.632933      10.0000    195.0840
  141   1 Pt  78      -2.161630   12.534470   26.872933      10.0000    195.0840
  142   1 Pt  78       0.568370   12.474470   26.952933      10.0000    195.0840
  143   1 Pt  78       3.378370   12.584471   27.032933      10.0000    195.0840
  144   1 Pt  78       6.138370   12.624470   26.962933      10.0000    195.0840
  145   1 Pt  78       0.568370    1.134470   29.242933      10.0000    195.0840
  146   1 Pt  78       3.388370    1.114470   29.092933      10.0000    195.0840
  147   1 Pt  78       6.178370    1.134470   29.132933      10.0000    195.0840
  148   1 Pt  78       8.998370    1.194470   29.302933      10.0000    195.0840
  149   1 Pt  78      11.768371    1.144470   29.402933      10.0000    195.0840
  150   1 Pt  78      14.578371    1.194470   29.312933      10.0000    195.0840
  151   1 Pt  78       2.058370    3.634470   29.232933      10.0000    195.0840
  152   1 Pt  78       4.818370    3.604470   29.222933      10.0000    195.0840
  153   1 Pt  78       7.598371    3.574470   29.232933      10.0000    195.0840
  154   1 Pt  78      10.348371    3.724470   29.212933      10.0000    195.0840
  155   1 Pt  78      13.168371    3.584470   29.212933      10.0000    195.0840
  156   1 Pt  78      -0.771630    3.514470   29.262933      10.0000    195.0840
  157   1 Pt  78       3.458370    6.014470   29.212933      10.0000    195.0840
  158   1 Pt  78       6.178370    5.904469   29.272933      10.0000    195.0840
  159   1 Pt  78       8.988371    6.124470   29.242933      10.0000    195.0840
  160   1 Pt  78      11.818371    6.024470   29.282933      10.0000    195.0840
  161   1 Pt  78      -2.211630    5.924470   29.132933      10.0000    195.0840
  162   1 Pt  78       0.638370    6.024470   29.242933      10.0000    195.0840
  163   1 Pt  78       4.808371    8.504470   29.192933      10.0000    195.0840
  164   1 Pt  78       7.638370    8.394470   29.182933      10.0000    195.0840
  165   1 Pt  78      10.518371    8.484470   29.192933      10.0000    195.0840
  166   1 Pt  78      -3.571630    8.324470   29.272933      10.0000    195.0840
  167   1 Pt  78      -0.901630    8.404470   29.192933      10.0000    195.0840
  168   1 Pt  78       1.918370    8.384470   29.242933      10.0000    195.0840
  169   1 Pt  78       6.228370   10.954470   29.232933      10.0000    195.0840
  170   1 Pt  78       9.058371   10.874471   29.172933      10.0000    195.0840
  171   1 Pt  78      -5.071631   10.834470   29.202933      10.0000    195.0840
  172   1 Pt  78      -2.251630   10.904469   29.182933      10.0000    195.0840
  173   1 Pt  78       0.508370   10.934470   29.312933      10.0000    195.0840
  174   1 Pt  78       3.378370   10.974470   29.252933      10.0000    195.0840
  175   1 Pt  78       7.728371   13.264470   29.202933      10.0000    195.0840
  176   1 Pt  78      -6.381630   13.244470   28.962933      10.0000    195.0840
  177   1 Pt  78      -3.541630   13.254470   29.082933      10.0000    195.0840
  178   1 Pt  78      -0.851630   13.344471   29.332933      10.0000    195.0840
  179   1 Pt  78       1.838370   13.374471   29.322933      10.0000    195.0840
  180   1 Pt  78       4.878370   13.314470   29.352933      10.0000    195.0840
  181   1 Pt  78      -7.701631   13.984470   31.522933      10.0000    195.0840
  182   1 Pt  78      -4.991630   14.094470   31.292933      10.0000    195.0840
  183   1 Pt  78      -2.301630   14.164471   31.592933      10.0000    195.0840
  184   1 Pt  78       0.498370   14.094470   31.632934      10.0000    195.0840
  185   1 Pt  78       3.358370   14.184470   31.652933      10.0000    195.0840
  186   1 Pt  78       6.308371   14.094470   31.522933      10.0000    195.0840
  187   1 Pt  78       1.928370    1.914470   31.562933      10.0000    195.0840
  188   1 Pt  78       4.718370    1.924470   31.402933      10.0000    195.0840
  189   1 Pt  78       7.588371    1.964470   31.662933      10.0000    195.0840
  190   1 Pt  78      10.328370    1.944470   31.532933      10.0000    195.0840
  191   1 Pt  78      13.298371    2.034470   31.552933      10.0000    195.0840
  192   1 Pt  78      -0.881630    2.014470   31.722933      10.0000    195.0840
  193   1 Pt  78       3.368370    4.334470   31.522933      10.0000    195.0840
  194   1 Pt  78       6.118371    4.264470   31.552933      10.0000    195.0840
  195   1 Pt  78       9.018371    4.394470   31.622933      10.0000    195.0840
  196   1 Pt  78      11.748370    4.354470   31.612933      10.0000    195.0840
  197   1 Pt  78      -2.241630    4.434470   31.602933      10.0000    195.0840
  198   1 Pt  78       0.518370    4.374470   31.532933      10.0000    195.0840
  199   1 Pt  78       4.588370    6.854470   31.582933      10.0000    195.0840
  200   1 Pt  78       7.388370    6.824469   31.502933      10.0000    195.0840
  201   1 Pt  78      10.258370    6.814470   31.582933      10.0000    195.0840
  202   1 Pt  78      -3.691630    6.874470   31.602933      10.0000    195.0840
  203   1 Pt  78      -0.901630    6.894470   31.502933      10.0000    195.0840
  204   1 Pt  78       1.868370    6.864470   31.592933      10.0000    195.0840
  205   1 Pt  78       6.118371    9.244470   31.662933      10.0000    195.0840
  206   1 Pt  78       8.908370    9.354470   31.662933      10.0000    195.0840
  207   1 Pt  78      -5.121630    9.234470   31.602933      10.0000    195.0840
  208   1 Pt  78      -2.351630    9.354470   31.612933      10.0000    195.0840
  209   1 Pt  78       0.358370    9.324470   31.592933      10.0000    195.0840
  210   1 Pt  78       3.248370    9.204470   31.412933      10.0000    195.0840
  211   1 Pt  78       7.548370   11.684470   31.552933      10.0000    195.0840
  212   1 Pt  78      -6.471630   11.624470   31.532933      10.0000    195.0840
  213   1 Pt  78      -3.811630   11.694469   31.752933      10.0000    195.0840
  214   1 Pt  78      -1.111630   11.684470   31.562933      10.0000    195.0840
  215   1 Pt  78       1.868370   11.684470   31.632934      10.0000    195.0840
  216   1 Pt  78       4.868370   11.644470   31.642933      10.0000    195.0840




 SCF PARAMETERS         Density guess:                                   RESTART
                        --------------------------------------------------------
                        max_scf:                                             500
                        max_scf_history:                                       0
                        max_diis:                                              4
                        --------------------------------------------------------
                        eps_scf:                                        1.00E-06
                        eps_scf_history:                                0.00E+00
                        eps_diis:                                       1.00E-01
                        eps_eigval:                                     1.00E-05
                        --------------------------------------------------------
                        level_shift [a.u.]:                             0.000000
                        added MOs                                       500    0
                        --------------------------------------------------------
                        Mixing method:                            BROYDEN_MIXING
                                                charge density mixing in g-space
                        --------------------------------------------------------
                        Smear method:                                FERMI_DIRAC
                        Electronic temperature [K]:                        300.0
                        Electronic temperature [a.u.]:                  9.50E-04
                        Accuracy threshold:                             1.00E-10
                        --------------------------------------------------------
                        No outer SCF

 PW_GRID| Information for grid number                                          1
 PW_GRID| Grid distributed over                                    32 processors
 PW_GRID| Real space group dimensions                                    32    1
 PW_GRID| the grid is blocked:                                                NO
 PW_GRID| Cutoff [a.u.]                                                    200.0
 PW_GRID| spherical cutoff:                                                   NO
 PW_GRID|   Bounds   1           -105     104                Points:         210
 PW_GRID|   Bounds   2           -105     104                Points:         210
 PW_GRID|   Bounds   3           -315     314                Points:         630
 PW_GRID| Volume element (a.u.^3)  0.3081E-02     Volume (a.u.^3)     85609.9578
 PW_GRID| Grid span                                                    FULLSPACE
 PW_GRID|   Distribution                         Average         Max         Min
 PW_GRID|   G-Vectors                           868218.8      868350      868140
 PW_GRID|   G-Rays                                4134.4        4135        4134
 PW_GRID|   Real Space Points                   868218.8      926100      793800

 PW_GRID| Information for grid number                                          2
 PW_GRID| Number of the reference grid                                         1
 PW_GRID| Grid distributed over                                    32 processors
 PW_GRID| Real space group dimensions                                    32    1
 PW_GRID| the grid is blocked:                                                NO
 PW_GRID| Cutoff [a.u.]                                                     66.7
 PW_GRID| spherical cutoff:                                                   NO
 PW_GRID|   Bounds   1            -60      59                Points:         120
 PW_GRID|   Bounds   2            -60      59                Points:         120
 PW_GRID|   Bounds   3           -180     179                Points:         360
 PW_GRID| Volume element (a.u.^3)  0.1651E-01     Volume (a.u.^3)     85609.9578
 PW_GRID| Grid span                                                    FULLSPACE
 PW_GRID|   Distribution                         Average         Max         Min
 PW_GRID|   G-Vectors                           162000.0      162840      161280
 PW_GRID|   G-Rays                                1350.0        1357        1344
 PW_GRID|   Real Space Points                   162000.0      172800      129600

 PW_GRID| Information for grid number                                          3
 PW_GRID| Number of the reference grid                                         1
 PW_GRID| Grid distributed over                                    32 processors
 PW_GRID| Real space group dimensions                                    32    1
 PW_GRID| the grid is blocked:                                                NO
 PW_GRID| Cutoff [a.u.]                                                     22.2
 PW_GRID| spherical cutoff:                                                   NO
 PW_GRID|   Bounds   1            -35      34                Points:          70
 PW_GRID|   Bounds   2            -35      34                Points:          70
 PW_GRID|   Bounds   3           -105     104                Points:         210
 PW_GRID| Volume element (a.u.^3)  0.8320E-01     Volume (a.u.^3)     85609.9578
 PW_GRID| Grid span                                                    FULLSPACE
 PW_GRID|   Distribution                         Average         Max         Min
 PW_GRID|   G-Vectors                            32156.2       32340       31990
 PW_GRID|   G-Rays                                 459.4         462         457
 PW_GRID|   Real Space Points                    32156.2       44100       29400

 PW_GRID| Information for grid number                                          4
 PW_GRID| Number of the reference grid                                         1
 PW_GRID| Grid distributed over                                    32 processors
 PW_GRID| Real space group dimensions                                    32    1
 PW_GRID| the grid is blocked:                                                NO
 PW_GRID| Cutoff [a.u.]                                                      7.4
 PW_GRID| spherical cutoff:                                                   NO
 PW_GRID|   Bounds   1            -20      19                Points:          40
 PW_GRID|   Bounds   2            -20      19                Points:          40
 PW_GRID|   Bounds   3            -60      59                Points:         120
 PW_GRID| Volume element (a.u.^3)  0.4459         Volume (a.u.^3)     85609.9578
 PW_GRID| Grid span                                                    FULLSPACE
 PW_GRID|   Distribution                         Average         Max         Min
 PW_GRID|   G-Vectors                             6000.0        6120        5920
 PW_GRID|   G-Rays                                 150.0         153         148
 PW_GRID|   Real Space Points                     6000.0        9600        4800

 POISSON| Solver                                          IMPLICIT (GENERALIZED)
 POISSON| Boundary Condition                                PERIODIC & DIRICHLET
 POISSON| Maximum number of iterations                                        30
 POISSON| Convergence threshold                                         1.00E-08
 POISSON| Dielectric Constant                                              80.00
 POISSON| Relaxation parameter                                          1.00E+00

 RS_GRID| Information for grid number                                          1
 RS_GRID|   Bounds   1           -105     104                Points:         210
 RS_GRID|   Bounds   2           -105     104                Points:         210
 RS_GRID|   Bounds   3           -315     314                Points:         630
 RS_GRID| Real space distribution over                                 32 groups
 RS_GRID| Real space distribution along direction                              3
 RS_GRID| Border size                                                         54
 RS_GRID|   Distribution                         Average         Max         Min
 RS_GRID|   Planes                                 127.7         128         127

 RS_GRID| Information for grid number                                          2
 RS_GRID|   Bounds   1            -60      59                Points:         120
 RS_GRID|   Bounds   2            -60      59                Points:         120
 RS_GRID|   Bounds   3           -180     179                Points:         360
 RS_GRID| Real space distribution over                                 32 groups
 RS_GRID| Real space distribution along direction                              3
 RS_GRID| Border size                                                         36
 RS_GRID|   Distribution                         Average         Max         Min
 RS_GRID|   Planes                                  83.2          84          83

 RS_GRID| Information for grid number                                          3
 RS_GRID|   Bounds   1            -35      34                Points:          70
 RS_GRID|   Bounds   2            -35      34                Points:          70
 RS_GRID|   Bounds   3           -105     104                Points:         210
 RS_GRID| Real space fully replicated
 RS_GRID| Group size                                                           1

 RS_GRID| Information for grid number                                          4
 RS_GRID|   Bounds   1            -20      19                Points:          40
 RS_GRID|   Bounds   2            -20      19                Points:          40
 RS_GRID|   Bounds   3            -60      59                Points:         120
 RS_GRID| Real space fully replicated
 RS_GRID| Group size                                                           1

 Number of electrons:                                                       2160
 Number of occupied orbitals:                                               1080
 Number of molecular orbitals:                                              1580

 Number of orbital functions:                                               4320
 Number of independent orbital functions:                                   4320

 Extrapolation method: initial_guess


 SCF WAVEFUNCTION OPTIMIZATION

  Step     Update method      Time    Convergence         Total energy    Change
  ------------------------------------------------------------------------------

  POISSON| IMPLICIT (GENERALIZED) SOLVER ---------------------------------------
  POISSON| Preparing Dirichlet regions ...
  POISSON| Dirichlet region    1
  POISSON|     type : axis-aligned planar
  POISSON|     applied potential :   0.0000E+00  [Eh/e]
  POISSON| Dirichlet region    2
  POISSON|     type : axis-aligned planar
  POISSON|     applied potential :  -0.3675E-01  [Eh/e]
  POISSON| ... Done. 
  ------------------------------------------------------------------------------

  POISSON|   iter        pres error      nabs error        E_hartree    delta E
  POISSON|      1        0.7356E-03      0.3273E-01    1992.6815763838  0.20E+04
  POISSON|      2        0.6291E-15      0.7356E-03    1992.6850757326  0.35E-02
  POISSON| Poisson solver converged in 2 iterations.
     1 NoMix/Diag. 0.30E+00   11.0     0.24498457     -5670.7146883709 -5.67E+03
  POISSON|   iter        pres error      nabs error        E_hartree    delta E
  POISSON|      1        0.8082E-03      0.3248E-01    1992.4861594793 -0.20E+00
  POISSON|      2        0.2570E-15      0.8082E-03    1992.4900039957  0.38E-02
  POISSON| Poisson solver converged in 2 iterations.
     2 Broy./Diag. 0.30E+00   13.3     0.30206588     -5670.1984904899  5.16E-01
  POISSON|   iter        pres error      nabs error        E_hartree    delta E
  POISSON|      1        0.1487E-03      0.6565E-03    1992.6431671854  0.15E+00
  POISSON|      2        0.1642E-16      0.1487E-03    1992.6424598050 -0.71E-03
  POISSON| Poisson solver converged in 2 iterations.
     3 Broy./Diag. 0.30E+00   13.2     0.20630697     -5675.6774757152 -5.48E+00
  POISSON|   iter        pres error      nabs error        E_hartree    delta E
  POISSON|      1        0.1159E-03      0.4729E-03    1992.7015625504  0.59E-01
  POISSON|      2        0.3882E-16      0.1159E-03    1992.7021138441  0.55E-03
  POISSON| Poisson solver converged in 2 iterations.
     4 Broy./Diag. 0.30E+00   13.3     0.17556713     -5672.7237761789  2.95E+00
  POISSON|   iter        pres error      nabs error        E_hartree    delta E
  POISSON|      1        0.4336E-04      0.1673E-03    1992.7874689457  0.85E-01
  POISSON|      2        0.3220E-16      0.4336E-04    1992.7872626721 -0.21E-03
  POISSON| Poisson solver converged in 2 iterations.
     5 Broy./Diag. 0.30E+00   13.3     0.09140216     -5672.6265587996  9.72E-02
  POISSON|   iter        pres error      nabs error        E_hartree    delta E
  POISSON|      1        0.5594E-05      0.4583E-04    1992.8830326517  0.96E-01
  POISSON|      2        0.2586E-17      0.5594E-05    1992.8830592641  0.27E-04
  POISSON| Poisson solver converged in 2 iterations.
     6 Broy./Diag. 0.30E+00   13.3     0.03906554     -5672.8749321154 -2.48E-01
  POISSON|   iter        pres error      nabs error        E_hartree    delta E
  POISSON|      1        0.4052E-05      0.4014E-04    1992.9881299242  0.11E+00
  POISSON|      2        0.1163E-16      0.4052E-05    1992.9881491981  0.19E-04
  POISSON| Poisson solver converged in 2 iterations.
     7 Broy./Diag. 0.30E+00   13.3     0.03006749     -5672.3003664216  5.75E-01
  POISSON|   iter        pres error      nabs error        E_hartree    delta E
  POISSON|      1        0.4028E-05      0.4433E-04    1993.0846492865  0.97E-01
  POISSON|      2        0.2696E-17      0.4028E-05    1993.0846301244 -0.19E-04
  POISSON| Poisson solver converged in 2 iterations.
     8 Broy./Diag. 0.30E+00   13.4     0.02547199     -5672.1580421529  1.42E-01
  POISSON|   iter        pres error      nabs error        E_hartree    delta E
  POISSON|      1        0.5630E-06      0.1350E-04    1993.1204830135  0.36E-01
  POISSON|      2        0.2353E-17      0.5630E-06    1993.1204803355 -0.27E-05
  POISSON| Poisson solver converged in 2 iterations.
     9 Broy./Diag. 0.30E+00   13.5     0.01100230     -5672.4258786381 -2.68E-01
  POISSON|   iter        pres error      nabs error        E_hartree    delta E
  POISSON|      1        0.2496E-06      0.6049E-05    1993.1405675297  0.20E-01
  POISSON|      2        0.1092E-17      0.2496E-06    1993.1405663422 -0.12E-05
  POISSON| Poisson solver converged in 2 iterations.
    10 Broy./Diag. 0.30E+00   13.5     0.00526801     -5672.2724756029  1.53E-01
  POISSON|   iter        pres error      nabs error        E_hartree    delta E
  POISSON|      1        0.1398E-06      0.6611E-05    1993.1516829576  0.11E-01
  POISSON|      2        0.5760E-17      0.1398E-06    1993.1516822928 -0.66E-06
  POISSON| Poisson solver converged in 2 iterations.
    11 Broy./Diag. 0.30E+00   13.5     0.00322757     -5672.2262059307  4.63E-02
  POISSON|   iter        pres error      nabs error        E_hartree    delta E
  POISSON|      1        0.1047E-06      0.4751E-05    1993.1622340540  0.11E-01
  POISSON|      2        0.1604E-17      0.1047E-06    1993.1622345518  0.50E-06
  POISSON| Poisson solver converged in 2 iterations.
    12 Broy./Diag. 0.30E+00   13.5     0.00240988     -5672.2573064970 -3.11E-02
  POISSON|   iter        pres error      nabs error        E_hartree    delta E
  POISSON|      1        0.3709E-06      0.4199E-05    1993.1722293228  0.10E-01
  POISSON|      2        0.5394E-18      0.3709E-06    1993.1722275587 -0.18E-05
  POISSON| Poisson solver converged in 2 iterations.
    13 Broy./Diag. 0.30E+00   13.7     0.00186357     -5672.2461843258  1.11E-02
  POISSON|   iter        pres error      nabs error        E_hartree    delta E
  POISSON|      1        0.1810E-06      0.2128E-05    1993.1737682148  0.15E-02
  POISSON|      2        0.1350E-17      0.1810E-06    1993.1737690757  0.86E-06
  POISSON| Poisson solver converged in 2 iterations.
    14 Broy./Diag. 0.30E+00   13.4     0.00083032     -5672.2291567193  1.70E-02
  POISSON|   iter        pres error      nabs error        E_hartree    delta E
  POISSON|      1        0.1599E-06      0.1920E-05    1993.1746000056  0.83E-03
  POISSON|      2        0.1036E-18      0.1599E-06    1993.1745992448 -0.76E-06
  POISSON| Poisson solver converged in 2 iterations.
    15 Broy./Diag. 0.30E+00   13.5     0.00062395     -5672.2305181612 -1.36E-03
  POISSON|   iter        pres error      nabs error        E_hartree    delta E
  POISSON|      1        0.3597E-06      0.2468E-05    1993.1753673197  0.77E-03
  POISSON|      2        0.6489E-18      0.3597E-06    1993.1753656087 -0.17E-05
  POISSON| Poisson solver converged in 2 iterations.
    16 Broy./Diag. 0.30E+00   13.6     0.00111751     -5672.2376894088 -7.17E-03
  POISSON|   iter        pres error      nabs error        E_hartree    delta E
  POISSON|      1        0.3509E-06      0.2141E-05    1993.1756089258  0.24E-03
  POISSON|      2        0.1064E-18      0.3509E-06    1993.1756105948  0.17E-05
  POISSON| Poisson solver converged in 2 iterations.
    17 Broy./Diag. 0.30E+00   13.5     0.00114027     -5672.2402546576 -2.57E-03
  POISSON|   iter        pres error      nabs error        E_hartree    delta E
  POISSON|      1        0.2232E-06      0.1430E-05    1993.1758010167  0.19E-03
  POISSON|      2        0.2633E-17      0.2232E-06    1993.1757999548 -0.11E-05
  POISSON| Poisson solver converged in 2 iterations.
    18 Broy./Diag. 0.30E+00   13.5     0.00062862     -5672.2398921176  3.63E-04
  POISSON|   iter        pres error      nabs error        E_hartree    delta E
  POISSON|      1        0.4013E-07      0.1325E-05    1993.1761102246  0.31E-03
  POISSON|      2        0.8631E-18      0.4013E-07    1993.1761100337 -0.19E-06
  POISSON| Poisson solver converged in 2 iterations.
    19 Broy./Diag. 0.30E+00   13.5     0.00024000     -5672.2410901251 -1.20E-03
  POISSON|   iter        pres error      nabs error        E_hartree    delta E
  POISSON|      1        0.5974E-07      0.8632E-06    1993.1765083559  0.40E-03
  POISSON|      2        0.1400E-17      0.5974E-07    1993.1765080717 -0.28E-06
  POISSON| Poisson solver converged in 2 iterations.
    20 Broy./Diag. 0.30E+00   13.5     0.00019293     -5672.2454250898 -4.33E-03
  POISSON|   iter        pres error      nabs error        E_hartree    delta E
  POISSON|      1        0.6534E-07      0.1128E-05    1993.1770733932  0.57E-03
  POISSON|      2        0.2912E-17      0.6534E-07    1993.1770730824 -0.31E-06
  POISSON| Poisson solver converged in 2 iterations.
    21 Broy./Diag. 0.30E+00   13.5     0.00021797     -5672.2452271110  1.98E-04
  POISSON|   iter        pres error      nabs error        E_hartree    delta E
  POISSON|      1        0.6836E-07      0.1247E-05    1993.1775345328  0.46E-03
  POISSON|      2        0.2817E-17      0.6836E-07    1993.1775342076 -0.33E-06
  POISSON| Poisson solver converged in 2 iterations.
    22 Broy./Diag. 0.30E+00   13.5     0.00019739     -5672.2434540439  1.77E-03
  POISSON|   iter        pres error      nabs error        E_hartree    delta E
  POISSON|      1        0.7430E-07      0.1335E-05    1993.1781427464  0.61E-03
  POISSON|      2        0.5384E-17      0.7430E-07    1993.1781423929 -0.35E-06
  POISSON| Poisson solver converged in 2 iterations.
    23 Broy./Diag. 0.30E+00   13.5     0.00011712     -5672.2459955613 -2.54E-03
  POISSON|   iter        pres error      nabs error        E_hartree    delta E
  POISSON|      1        0.9424E-07      0.1087E-05    1993.1787338512  0.59E-03
  POISSON|      2        0.4621E-17      0.9424E-07    1993.1787334029 -0.45E-06
  POISSON| Poisson solver converged in 2 iterations.
    24 Broy./Diag. 0.30E+00   13.6     0.00011225     -5672.2472218691 -1.23E-03
  POISSON|   iter        pres error      nabs error        E_hartree    delta E
  POISSON|      1        0.2172E-08      0.6508E-06    1993.1790429232  0.31E-03
  POISSON| Poisson solver converged in 1 iteration. 
    25 Broy./Diag. 0.30E+00   12.2     0.00013187     -5672.2464563139  7.66E-04
  POISSON|   iter        pres error      nabs error        E_hartree    delta E
  POISSON|      1        0.4829E-07      0.8298E-06    1993.1793803015  0.34E-03
  POISSON|      2        0.1388E-17      0.4829E-07    1993.1793800718 -0.23E-06
  POISSON| Poisson solver converged in 2 iterations.
    26 Broy./Diag. 0.30E+00   13.6     0.00011368     -5672.2461909372  2.65E-04
  POISSON|   iter        pres error      nabs error        E_hartree    delta E
  POISSON|      1        0.8107E-07      0.5410E-06    1993.1795492360  0.17E-03
  POISSON|      2        0.1487E-17      0.8107E-07    1993.1795488503 -0.39E-06
  POISSON| Poisson solver converged in 2 iterations.
    27 Broy./Diag. 0.30E+00   13.5     0.00015339     -5672.2467915713 -6.01E-04
  POISSON|   iter        pres error      nabs error        E_hartree    delta E
  POISSON|      1        0.1078E-07      0.5854E-06    1993.1797231573  0.17E-03
  POISSON|      2        0.1065E-18      0.1078E-07    1993.1797232086  0.51E-07
  POISSON| Poisson solver converged in 2 iterations.
    28 Broy./Diag. 0.30E+00   13.5     0.00011412     -5672.2472988980 -5.07E-04
  POISSON|   iter        pres error      nabs error        E_hartree    delta E
  POISSON|      1        0.4074E-07      0.4461E-06    1993.1798381520  0.11E-03
  POISSON|      2        0.3181E-18      0.4074E-07    1993.1798379582 -0.19E-06
  POISSON| Poisson solver converged in 2 iterations.
    29 Broy./Diag. 0.30E+00   13.5     0.00008277     -5672.2473932942 -9.44E-05
  POISSON|   iter        pres error      nabs error        E_hartree    delta E
  POISSON|      1        0.2383E-07      0.4648E-06    1993.1798632448  0.25E-04
  POISSON|      2        0.3949E-18      0.2383E-07    1993.1798631314 -0.11E-06
  POISSON| Poisson solver converged in 2 iterations.
    30 Broy./Diag. 0.30E+00   13.5     0.00003968     -5672.2470706789  3.23E-04
  POISSON|   iter        pres error      nabs error        E_hartree    delta E
  POISSON|      1        0.3458E-07      0.5588E-06    1993.1798713454  0.82E-05
  POISSON|      2        0.2743E-18      0.3458E-07    1993.1798711809 -0.16E-06
  POISSON| Poisson solver converged in 2 iterations.
    31 Broy./Diag. 0.30E+00   13.5     0.00005331     -5672.2476169301 -5.46E-04
  POISSON|   iter        pres error      nabs error        E_hartree    delta E
  POISSON|      1        0.1836E-07      0.2820E-06    1993.1798816465  0.10E-04
  POISSON|      2        0.4353E-18      0.1836E-07    1993.1798815592 -0.87E-07
  POISSON| Poisson solver converged in 2 iterations.
    32 Broy./Diag. 0.30E+00   13.5     0.00005762     -5672.2486171381 -1.00E-03
  POISSON|   iter        pres error      nabs error        E_hartree    delta E
  POISSON|      1        0.1803E-07      0.2790E-06    1993.1798761996 -0.54E-05
  POISSON|      2        0.4912E-18      0.1803E-07    1993.1798761138 -0.86E-07
  POISSON| Poisson solver converged in 2 iterations.
    33 Broy./Diag. 0.30E+00   13.5     0.00003993     -5672.2479927395  6.24E-04
  POISSON|   iter        pres error      nabs error        E_hartree    delta E
  POISSON|      1        0.1143E-07      0.2608E-06    1993.1798791497  0.30E-05
  POISSON|      2        0.2098E-17      0.1143E-07    1993.1798790953 -0.54E-07
  POISSON| Poisson solver converged in 2 iterations.
    34 Broy./Diag. 0.30E+00   13.4     0.00002233     -5672.2481089071 -1.16E-04
  POISSON|   iter        pres error      nabs error        E_hartree    delta E
  POISSON|      1        0.2175E-07      0.1950E-06    1993.1799007198  0.22E-04
  POISSON|      2        0.1177E-17      0.2175E-07    1993.1799006164 -0.10E-06
  POISSON| Poisson solver converged in 2 iterations.
    35 Broy./Diag. 0.30E+00   13.5     0.00002744     -5672.2484920508 -3.83E-04
  POISSON|   iter        pres error      nabs error        E_hartree    delta E
  POISSON|      1        0.8797E-08      0.1898E-06    1993.1799321724  0.32E-04
  POISSON| Poisson solver converged in 1 iteration. 
    36 Broy./Diag. 0.30E+00   12.1     0.00002583     -5672.2484647476  2.73E-05
  POISSON|   iter        pres error      nabs error        E_hartree    delta E
  POISSON|      1        0.9316E-08      0.8469E-07    1993.1799474852  0.15E-04
  POISSON| Poisson solver converged in 1 iteration. 
    37 Broy./Diag. 0.30E+00   12.1     0.00004644     -5672.2483348158  1.30E-04
  POISSON|   iter        pres error      nabs error        E_hartree    delta E
  POISSON|      1        0.2614E-07      0.1968E-06    1993.1799913282  0.44E-04
  POISSON|      2        0.6980E-18      0.2614E-07    1993.1799912039 -0.12E-06
  POISSON| Poisson solver converged in 2 iterations.
    38 Broy./Diag. 0.30E+00   13.5     0.00003762     -5672.2481919501  1.43E-04
  POISSON|   iter        pres error      nabs error        E_hartree    delta E
  POISSON|      1        0.2842E-08      0.1190E-06    1993.1800220823  0.31E-04
  POISSON| Poisson solver converged in 1 iteration. 
    39 Broy./Diag. 0.30E+00   12.1     0.00001851     -5672.2482518869 -5.99E-05
  POISSON|   iter        pres error      nabs error        E_hartree    delta E
  POISSON|      1        0.7598E-08      0.9301E-07    1993.1800643481  0.42E-04
  POISSON| Poisson solver converged in 1 iteration. 
    40 Broy./Diag. 0.30E+00   12.2     0.00001365     -5672.2483440106 -9.21E-05
  POISSON|   iter        pres error      nabs error        E_hartree    delta E
  POISSON|      1        0.8640E-08      0.1471E-06    1993.1801090367  0.45E-04
  POISSON| Poisson solver converged in 1 iteration. 
    41 Broy./Diag. 0.30E+00   12.2     0.00001217     -5672.2481670873  1.77E-04
  POISSON|   iter        pres error      nabs error        E_hartree    delta E
  POISSON|      1        0.7780E-08      0.1298E-06    1993.1801340989  0.25E-04
  POISSON| Poisson solver converged in 1 iteration. 
    42 Broy./Diag. 0.30E+00   12.1     0.00001432     -5672.2480782370  8.89E-05
  POISSON|   iter        pres error      nabs error        E_hartree    delta E
  POISSON|      1        0.6657E-08      0.1072E-06    1993.1801570915  0.23E-04
  POISSON| Poisson solver converged in 1 iteration. 
    43 Broy./Diag. 0.30E+00   12.1     0.00001475     -5672.2482796581 -2.01E-04
  POISSON|   iter        pres error      nabs error        E_hartree    delta E
  POISSON|      1        0.8137E-08      0.9473E-07    1993.1801723239  0.15E-04
  POISSON| Poisson solver converged in 1 iteration. 
    44 Broy./Diag. 0.30E+00   12.2     0.00000979     -5672.2482528075  2.69E-05
  POISSON|   iter        pres error      nabs error        E_hartree    delta E
  POISSON|      1        0.3966E-08      0.1089E-06    1993.1801745356  0.22E-05
  POISSON| Poisson solver converged in 1 iteration. 
    45 Broy./Diag. 0.30E+00   12.1     0.00000918     -5672.2481765875  7.62E-05
  POISSON|   iter        pres error      nabs error        E_hartree    delta E
  POISSON|      1        0.8235E-08      0.1060E-06    1993.1801738751 -0.66E-06
  POISSON| Poisson solver converged in 1 iteration. 
    46 Broy./Diag. 0.30E+00   12.1     0.00000847     -5672.2482809406 -1.04E-04
  POISSON|   iter        pres error      nabs error        E_hartree    delta E
  POISSON|      1        0.8939E-08      0.6815E-07    1993.1801706391 -0.32E-05
  POISSON| Poisson solver converged in 1 iteration. 
    47 Broy./Diag. 0.30E+00   12.0     0.00001614     -5672.2483693348 -8.84E-05
  POISSON|   iter        pres error      nabs error        E_hartree    delta E
  POISSON|      1        0.3532E-08      0.5324E-07    1993.1801738864  0.32E-05
  POISSON| Poisson solver converged in 1 iteration. 
    48 Broy./Diag. 0.30E+00   12.1     0.00001837     -5672.2484282032 -5.89E-05
  POISSON|   iter        pres error      nabs error        E_hartree    delta E
  POISSON|      1        0.8187E-08      0.8338E-07    1993.1801724198 -0.15E-05
  POISSON| Poisson solver converged in 1 iteration. 
    49 Broy./Diag. 0.30E+00   12.1     0.00000882     -5672.2483710534  5.71E-05
  POISSON|   iter        pres error      nabs error        E_hartree    delta E
  POISSON|      1        0.2926E-08      0.6646E-07    1993.1801710404 -0.14E-05
  POISSON| Poisson solver converged in 1 iteration. 
    50 Broy./Diag. 0.30E+00   12.1     0.00000781     -5672.2483825782 -1.15E-05
  POISSON|   iter        pres error      nabs error        E_hartree    delta E
  POISSON|      1        0.4364E-08      0.6386E-07    1993.1801760445  0.50E-05
  POISSON| Poisson solver converged in 1 iteration. 
    51 Broy./Diag. 0.30E+00   12.1     0.00000489     -5672.2484556232 -7.30E-05
  POISSON|   iter        pres error      nabs error        E_hartree    delta E
  POISSON|      1        0.3500E-08      0.5579E-07    1993.1801848505  0.88E-05
  POISSON| Poisson solver converged in 1 iteration. 
    52 Broy./Diag. 0.30E+00   12.1     0.00000565     -5672.2484550932  5.30E-07
  POISSON|   iter        pres error      nabs error        E_hartree    delta E
  POISSON|      1        0.3180E-08      0.4730E-07    1993.1801917370  0.69E-05
  POISSON| Poisson solver converged in 1 iteration. 
    53 Broy./Diag. 0.30E+00   12.1     0.00000482     -5672.2483851729  6.99E-05
  POISSON|   iter        pres error      nabs error        E_hartree    delta E
  POISSON|      1        0.2164E-08      0.4242E-07    1993.1802018451  0.10E-04
  POISSON| Poisson solver converged in 1 iteration. 
    54 Broy./Diag. 0.30E+00   12.1     0.00000375     -5672.2484193843 -3.42E-05
  POISSON|   iter        pres error      nabs error        E_hartree    delta E
  POISSON|      1        0.3219E-08      0.3172E-07    1993.1802135651  0.12E-04
  POISSON| Poisson solver converged in 1 iteration. 
    55 Broy./Diag. 0.30E+00   12.1     0.00000465     -5672.2484354021 -1.60E-05
  POISSON|   iter        pres error      nabs error        E_hartree    delta E
  POISSON|      1        0.1163E-08      0.3207E-07    1993.1802236364  0.10E-04
  POISSON| Poisson solver converged in 1 iteration. 
    56 Broy./Diag. 0.30E+00   12.1     0.00000361     -5672.2483882877  4.71E-05
  POISSON|   iter        pres error      nabs error        E_hartree    delta E
  POISSON|      1        0.3950E-09      0.1755E-07    1993.1802278321  0.42E-05
  POISSON| Poisson solver converged in 1 iteration. 
    57 Broy./Diag. 0.30E+00   12.1     0.00000352     -5672.2483851666  3.12E-06
  POISSON|   iter        pres error      nabs error        E_hartree    delta E
  POISSON|      1        0.2546E-08      0.2178E-07    1993.1802318982  0.41E-05
  POISSON| Poisson solver converged in 1 iteration. 
    58 Broy./Diag. 0.30E+00   12.5     0.00000373     -5672.2483843022  8.64E-07
  POISSON|   iter        pres error      nabs error        E_hartree    delta E
  POISSON|      1        0.1872E-09      0.1739E-07    1993.1802342039  0.23E-05
  POISSON| Poisson solver converged in 1 iteration. 
    59 Broy./Diag. 0.30E+00   12.1     0.00000310     -5672.2484040341 -1.97E-05
  POISSON|   iter        pres error      nabs error        E_hartree    delta E
  POISSON|      1        0.1793E-08      0.1913E-07    1993.1802363756  0.22E-05
  POISSON| Poisson solver converged in 1 iteration. 
    60 Broy./Diag. 0.30E+00   12.1     0.00000287     -5672.2484095102 -5.48E-06
  POISSON|   iter        pres error      nabs error        E_hartree    delta E
  POISSON|      1        0.5756E-09      0.1440E-07    1993.1802357457 -0.63E-06
  POISSON| Poisson solver converged in 1 iteration. 
    61 Broy./Diag. 0.30E+00   12.1     0.00000272     -5672.2483954099  1.41E-05
  POISSON|   iter        pres error      nabs error        E_hartree    delta E
  POISSON|      1        0.1279E-08      0.2066E-07    1993.1802348712 -0.87E-06
  POISSON| Poisson solver converged in 1 iteration. 
    62 Broy./Diag. 0.30E+00   12.1     0.00000161     -5672.2484146244 -1.92E-05
  POISSON|   iter        pres error      nabs error        E_hartree    delta E
  POISSON|      1        0.3822E-09      0.7853E-08    1993.1802344236 -0.45E-06
  POISSON| Poisson solver converged in 1 iteration. 
    63 Broy./Diag. 0.30E+00   12.1     0.00000129     -5672.2484368066 -2.22E-05
  POISSON|   iter        pres error      nabs error        E_hartree    delta E
  POISSON|      1        0.9410E-09      0.1317E-07    1993.1802328055 -0.16E-05
  POISSON| Poisson solver converged in 1 iteration. 
    64 Broy./Diag. 0.30E+00   12.0     0.00000121     -5672.2484230931  1.37E-05
  POISSON|   iter        pres error      nabs error        E_hartree    delta E
  POISSON|      1        0.5938E-09      0.1523E-07    1993.1802314679 -0.13E-05
  POISSON| Poisson solver converged in 1 iteration. 
    65 Broy./Diag. 0.30E+00   12.1     0.00000138     -5672.2484244001 -1.31E-06
  POISSON|   iter        pres error      nabs error        E_hartree    delta E
  POISSON|      1        0.9985E-09      0.1169E-07    1993.1802303420 -0.11E-05
  POISSON| Poisson solver converged in 1 iteration. 
    66 Broy./Diag. 0.30E+00   12.1     0.00000126     -5672.2484385805 -1.42E-05
  POISSON|   iter        pres error      nabs error        E_hartree    delta E
  POISSON|      1        0.5801E-09      0.7459E-08    1993.1802300895 -0.25E-06
  POISSON| Poisson solver converged in 1 iteration. 
    67 Broy./Diag. 0.30E+00   12.1     0.00000118     -5672.2484341767  4.40E-06
  POISSON|   iter        pres error      nabs error        E_hartree    delta E
  POISSON|      1        0.6279E-10      0.8218E-08    1993.1802303744  0.28E-06
  POISSON| Poisson solver converged in 1 iteration. 
    68 Broy./Diag. 0.30E+00   12.1     0.00000138     -5672.2484324554  1.72E-06
  POISSON|   iter        pres error      nabs error        E_hartree    delta E
  POISSON|      1        0.9723E-09      0.8547E-08    1993.1802310232  0.65E-06
  POISSON| Poisson solver converged in 1 iteration. 
    69 Broy./Diag. 0.30E+00   12.1     0.00000134     -5672.2484258071  6.65E-06
  POISSON|   iter        pres error      nabs error        E_hartree    delta E
  POISSON|      1        0.1719E-09      0.8246E-08    1993.1802319594  0.94E-06
  POISSON| Poisson solver converged in 1 iteration. 
    70 Broy./Diag. 0.30E+00   12.2     0.00000104     -5672.2484263284 -5.21E-07
  POISSON|   iter        pres error      nabs error        E_hartree    delta E
  POISSON|      1        0.5578E-09      0.6872E-08    1993.1802334832  0.15E-05
  POISSON| Poisson solver converged in 1 iteration. 
    71 Broy./Diag. 0.30E+00   12.1     0.00000120     -5672.2484306141 -4.29E-06
  POISSON|   iter        pres error      nabs error        E_hartree    delta E
[...]
    191      1      Pt         -0.01185705    -0.00581159     0.01112965
    192      1      Pt          0.01042091    -0.00909179    -0.01071374
    193      1      Pt         -0.01082462     0.00704688     0.00808921
    194      1      Pt          0.00850109     0.01280197     0.00941927
    195      1      Pt         -0.01427161    -0.00271448    -0.00624125
    196      1      Pt          0.00641745     0.00600629    -0.00571132
    197      1      Pt         -0.00708762     0.00476958    -0.00898690
    198      1      Pt          0.00571355     0.00454442     0.00750778
    199      1      Pt          0.01463608    -0.00542633    -0.00244064
    200      1      Pt          0.01245212    -0.00221033     0.00869430
    201      1      Pt          0.00680487     0.00713728    -0.00164661
    202      1      Pt         -0.00107025    -0.00871302    -0.00154133
    203      1      Pt         -0.00467513    -0.00748716     0.00153238
    204      1      Pt         -0.00299901    -0.00713510    -0.00268721
    205      1      Pt         -0.00206165    -0.00185285    -0.01331275
    206      1      Pt          0.00155109    -0.02037611    -0.01329565
    207      1      Pt         -0.00832334    -0.00277264    -0.00145165
    208      1      Pt         -0.00802237    -0.01166321    -0.00114323
    209      1      Pt          0.01162787    -0.00080934    -0.00457540
    210      1      Pt          0.00529586     0.01973679     0.01443003
    211      1      Pt          0.00974588    -0.00374268     0.00394308
    212      1      Pt         -0.00100533     0.00032671    -0.00234563
    213      1      Pt          0.00991524    -0.00249355    -0.01505344
    214      1      Pt          0.01816510     0.00876131     0.01019394
    215      1      Pt          0.00796217     0.00064482    -0.00572604
    216      1      Pt         -0.02239938     0.00708111    -0.00574705
 SUM OF ATOMIC FORCES          -0.00004040    -0.00005723    -0.00015156     0.00016697

 -------------------------------------------------------------------------------
 -                                                                             -
 -                                DBCSR STATISTICS                             -
 -                                                                             -
 -------------------------------------------------------------------------------
 COUNTER                                    TOTAL       BLAS       SMM       ACC
 flops    20 x    12 x    20            447897600       0.0%    100.0%      0.0%
 flops    20 x    32 x    20          58525286400       0.0%    100.0%      0.0%
 flops    20 x    20 x   204         283031884800       0.0%    100.0%      0.0%
 flops    20 x    20 x   224         310780108800       0.0%    100.0%      0.0%
 flops    20 x    20 x   192        1598297702400       0.0%    100.0%      0.0%
 flops inhomo. stacks                           0       0.0%      0.0%      0.0%
 flops total                         2.251083E+12       0.0%    100.0%      0.0%
 flops max/rank                     72.242637E+09       0.0%    100.0%      0.0%
 matmuls inhomo. stacks                         0       0.0%      0.0%      0.0%
 matmuls total                           16206912       0.0%    100.0%      0.0%
 number of processed stacks                 21376       0.0%    100.0%      0.0%
 average stack size                                     0.0     758.2       0.0
 marketing flops                     3.208028E+12
 -------------------------------------------------------------------------------
 # multiplications                             75
 max memory usage/rank               1.838141E+09
 # max total images/rank                        2
 # max 3D layers                                1
 # MPI messages exchanged                   31200
 MPI messages size (bytes):
  total size                        41.616458E+09
  min size                         829.440000E+03
  max size                           4.665600E+06
  average size                       1.333861E+06
 MPI breakdown and total messages size (bytes):
             size <=      128                   0                        0
       128 < size <=     8192                   0                        0
      8192 < size <=    32768                   0                        0
     32768 < size <=   131072                   0                        0
    131072 < size <=  4194304               30976              40571366400
   4194304 < size <= 16777216                 224               1045094400
  16777216 < size                               0                        0
 -------------------------------------------------------------------------------

 *** WARNING in dbcsr_mm.F:290 :: Using a non-square number of MPI ranks ***
 *** might lead to poor performance. Used ranks: 32 Suggested: 36 64     ***

 -------------------------------------------------------------------------------
 -                                                                             -
 -                      DBCSR MESSAGE PASSING PERFORMANCE                      -
 -                                                                             -
 -------------------------------------------------------------------------------
 ROUTINE             CALLS      AVE VOLUME [Bytes]
 MP_Bcast                6                     12.
 MP_Allreduce          548                      9.
 MP_Alltoall          2081                1276670.
 MP_ISend             2400                 577181.
 MP_IRecv             2400                 560157.
 -------------------------------------------------------------------------------

 -------------------------------------------------------------------------------
 -                                                                             -
 -                                DBM STATISTICS                               -
 -                                                                             -
 -------------------------------------------------------------------------------
    M  x    N  x    K                                          COUNT     PERCENT
 -------------------------------------------------------------------------------

 -------------------------------------------------------------------------------
 -                                                                             -
 -                                GRID STATISTICS                              -
 -                                                                             -
 -------------------------------------------------------------------------------
 LP    KERNEL             BACKEND                              COUNT     PERCENT
 4     collocate general  REF                               24832045      49.97%
 4     integrate general  REF                               24491880      49.29%
 5     integrate general  REF                                 340165       0.68%
 0     collocate general  REF                                  13824       0.03%
 0     integrate general  REF                                   6912       0.01%
 1     integrate general  REF                                   6912       0.01%
 -------------------------------------------------------------------------------

 MEMORY| Estimated peak process memory [MiB]                                2190

 -------------------------------------------------------------------------------
 ----                             MULTIGRID INFO                            ----
 -------------------------------------------------------------------------------
 count for grid        1:          17563          cutoff [a.u.]          200.00
 count for grid        2:         177532          cutoff [a.u.]           66.67
 count for grid        3:         109899          cutoff [a.u.]           22.22
 count for grid        4:         154800          cutoff [a.u.]            7.41
 total gridlevel count  :         459794

 -------------------------------------------------------------------------------
 -                                                                             -
 -                         MESSAGE PASSING PERFORMANCE                         -
 -                                                                             -
 -------------------------------------------------------------------------------

 ROUTINE             CALLS      AVE VOLUME [Bytes]
 MP_Group                4
 MP_Bcast             1788                 162872.
 MP_Allreduce         1796                   1412.
 MP_Sync                78
 MP_Alltoall          3581               49425536.
 MP_SendRecv           124                  14922.
 MP_ISendRecv         9052                 214800.
 MP_Wait             21922
 MP_comm_split           1
 MP_ISend            11540                 714101.
 MP_IRecv            11540                 714101.
 MP_Recv               192                1105920.
 MP_Write_All            3                4213860.
 -------------------------------------------------------------------------------


 -------------------------------------------------------------------------------
 -                                                                             -
 -                           R E F E R E N C E S                               -
 -                                                                             -
 -------------------------------------------------------------------------------
 
 CP2K version 2022.1, the CP2K developers group (2022).
 CP2K is freely available from https://www.cp2k.org/ .

 Kuehne,Thomas D.; Iannuzzi,Marcella; Del Ben,Mauro;
 Rybkin,Vladimir V.; Seewald,Patrick; Stein,Frederick; Laino,Teodoro;
 Khaliullin,Rustam Z.; Schuett,Ole; Schiffmann,Florian; Golze,Dorothea;
 Wilhelm,Jan; Chulkov,Sergey; Bani-Hashemian,Mohammad Hossein;
 Weber,Valery; Borstnik,Urban; Taillefumier,Mathieu;
 Jakobovits,Alice Shoshana; Lazzaro,Alfio; Pabst,Hans; Mueller,Tiziano;
 Schade,Robert; Guidon,Manuel; Andermatt,Samuel; Holmberg,Nico;
 Schenter,Gregory K.; Hehn,Anna; Bussy,Augustin; Belleflamme,Fabian;
 Tabacchi,Gloria; Gloess,Andreas; Lass,Michael; Bethune,Iain;
 Mundy,Christopher J.; Plessl,Christian; Watkins,Matt;
 VandeVondele,Joost; Krack,Matthias; Hutter,Juerg. 
 The Journal of Chemical Physics, 152 (19), (2020). 
 CP2K: An electronic structure and molecular dynamics software package -
 Quickstep: Efficient and accurate electronic structure calculations.
 https://doi.org/10.1063/5.0007045

 Goerigk, Lars; Hansen, Andreas; Bauer, Christoph; Ehrlich, Stephan;
 Najibi, Asim; Grimme, Stefan. , 19 (48), (2017). 
 A look at the density functional theory zoo with the advanced GMTKN55 database
 for general main group thermochemistry, kinetics and noncovalent interactions.
 https://doi.org/10.1039/C7CP04913G

 Bani-Hashemian, MH; Bruck, S; Luisier, M; VandeVondele, J. 
 JOURNAL OF CHEMICAL PHYSICS, 144 (4), 044113 (2016). 
 A generalized Poisson solver for first-principles device simulations.
 https://doi.org/10.1063/1.4940796

 Schuett, Ole; Messmer, Peter; Hutter, Juerg; VandeVondele, Joost. 
 Electronic Structure Calculations on Graphics Processing Units, John
 Wiley & Sons, Ltd, 173-190 (2016). 
 GPU-Accelerated Sparse Matrix-Matrix Multiplication for
 Linear Scaling Density Functional Theory.
 https://doi.org/10.1002/9781118670712.ch8

 Heinecke, A; Henry, G; Hutchinson, M; Pabst, H. 
 Proceedings of Intl. Supercomputing Conference, 981-991 (2016). 
 LIBXSMM: Accelerating Small Matrix Multiplications
 by Runtime Code Generation.
 https://doi.org/10.1109/SC.2016.83

 Borstnik, U; VandeVondele, J; Weber, V; Hutter, J. 
 PARALLEL COMPUTING, 40 (5-6), 47-58 (2014). 
 Sparse matrix multiplication: The distributed block-compressed sparse
 row library.
 https://doi.org/10.1016/j.parco.2014.03.012

 Hutter, J; Iannuzzi, M; Schiffmann, F; VandeVondele, J. 
 WIREs Comput Mol Sci., 4 (1), 15-25 (2014). 
 CP2K: atomistic simulations of condensed matter systems.
 https://doi.org/10.1002/wcms.1159

 Marek, A; Blum, V; Johanni, R; Havu, V; Lang, B; Auckenthaler, T;
 Heinecke, A; Bungartz, H; Lederer, H. 
 Journal of Physics: Condensed Matter, 26 (21), (2014). 
 The ELPA library: scalable parallel eigenvalue solutions for
 electronic structure
 theory and computational science.
 https://doi.org/10.1088/0953-8984/26/21/213201

 Grimme, S; Ehrlich, S; Goerigk, L. 
 JOURNAL OF COMPUTATIONAL CHEMISTRY, 32, 1456 (2011). 
 Effect of the damping function in dispersion corrected density functional theory.
 https://doi.org/10.1002/jcc.21759

 Grimme, S; Antony, J; Ehrlich, S; Krieg, H. 
 JOURNAL OF CHEMICAL PHYSICS, 132 (15), 154104 (2010). 
 A consistent and accurate ab initio parametrization of density
 functional dispersion correction (DFT-D) for the 94 elements H-Pu.
 https://doi.org/10.1063/1.3382344

 VandeVondele, J; Hutter, J. 
 JOURNAL OF CHEMICAL PHYSICS, 127 (11), 114105 (2007). 
 Gaussian basis sets for accurate calculations on molecular systems in
 gas and condensed phases.
 https://doi.org/10.1063/1.2770708

 Krack, M. 
 THEORETICAL CHEMISTRY ACCOUNTS, 114 (1-3), 145-152 (2005). 
 Pseudopotentials for H to Kr optimized for gradient-corrected
 exchange-correlation functionals.
 https://doi.org/10.1007/s00214-005-0655-y

 VandeVondele, J; Krack, M; Mohamed, F; Parrinello, M; Chassaing, T;
 Hutter, J. COMPUTER PHYSICS COMMUNICATIONS, 167 (2), 103-128 (2005). 
 QUICKSTEP: Fast and accurate density functional calculations using a
 mixed Gaussian and plane waves approach.
 https://doi.org/10.1016/j.cpc.2004.12.014

 Frigo, M; Johnson, SG. 
 PROCEEDINGS OF THE IEEE, 93 (2), 216-231 (2005). 
 The design and implementation of FFTW3.
 https://doi.org/10.1109/JPROC.2004.840301

 Hartwigsen, C; Goedecker, S; Hutter, J. 
 PHYSICAL REVIEW B, 58 (7), 3641-3662 (1998). 
 Relativistic separable dual-space Gaussian pseudopotentials from H to Rn.
 https://doi.org/10.1103/PhysRevB.58.3641

 Lippert, G; Hutter, J; Parrinello, M. 
 MOLECULAR PHYSICS, 92 (3), 477-487 (1997). 
 A hybrid Gaussian and plane wave density functional scheme.
 https://doi.org/10.1080/002689797170220

 Perdew, JP; Burke, K; Ernzerhof, M. 
 PHYSICAL REVIEW LETTERS, 77 (18), 3865-3868 (1996). 
 Generalized gradient approximation made simple.
 https://doi.org/10.1103/PhysRevLett.77.3865

 Goedecker, S; Teter, M; Hutter, J. 
 PHYSICAL REVIEW B, 54 (3), 1703-1710 (1996). 
 Separable dual-space Gaussian pseudopotentials.
 https://doi.org/10.1103/PhysRevB.54.1703


 -------------------------------------------------------------------------------
 -                                                                             -
 -                                T I M I N G                                  -
 -                                                                             -
 -------------------------------------------------------------------------------
 SUBROUTINE                       CALLS  ASD         SELF TIME        TOTAL TIME
                                MAXIMUM       AVERAGE  MAXIMUM  AVERAGE  MAXIMUM
 CP2K                                 1  1.0    0.024    0.037  945.462  945.465
 qs_forces                            1  2.0    0.001    0.001  945.037  945.039
 qs_energies                          1  3.0    0.000    0.000  932.258  932.260
 scf_env_do_scf                       1  4.0    0.000    0.000  920.367  920.457
 scf_env_do_scf_inner_loop           72  5.0    0.003    0.006  920.364  920.454
 rebuild_ks_matrix                   73  7.0    0.000    0.000  586.523  586.555
 qs_ks_build_kohn_sham_matrix        73  8.0    0.011    0.012  586.523  586.555
 qs_ks_update_qs_env                 72  6.0    0.001    0.001  578.225  578.259
 pw_transfer                       3420 12.1    0.260    0.331  329.702  332.524
 fft_wrap_pw1pw2                   3420 13.1    0.037    0.043  329.442  332.264
 fft_wrap_pw1pw2_200               2982 14.4   27.914   31.593  326.208  328.982
 pw_poisson_solve                    73  9.0    0.022    0.031  282.990  283.078
 implicit_poisson_solver_mixed_      73 10.0    7.608    8.188  266.418  266.596
 fft3d_ps                          3420 15.1  140.250  151.219  245.717  249.497
 qs_rho_update_rho_low               73  6.0    0.001    0.001  220.428  220.441
 calculate_rho_elec                  73  7.0    0.400    0.429  220.427  220.440
 sum_up_and_integrate                73  9.0    1.138    1.229  207.641  207.679
 integrate_v_rspace                  73 10.0    0.002    0.002  206.503  206.637
 grid_collocate_task_list            73  8.0   97.811  191.014   97.811  191.014
 derive_fft                         362 12.2    0.026    0.030  187.354  188.745
 grid_integrate_task_list            73 11.0   90.325  177.536   90.325  177.536
 apply_P_operator                   289 11.2    2.698    3.088  152.436  153.467
 rs_pw_transfer                     588 10.5    0.007    0.007  121.657  152.308
 density_rs2pw                       73  8.0    0.005    0.005  120.662  151.424
 mp_waitany                       11540 12.4  101.430  131.851  101.430  131.851
 rs_pw_transfer_RS2PW_200            75 10.0    4.172    4.980   99.607  130.264
 mp_alltoall_d11v                  1038 10.3   89.360  117.741   89.360  117.741
 rs_gather_matrices                  73 11.0    0.274    0.322   88.041  116.432
 qs_scf_new_mos                      72  6.0    0.001    0.002   89.478   89.551
 qs_vxc_create                       73  9.0    0.002    0.003   86.301   87.306
 xc_vxc_pw_create                    73 10.0    1.954    2.452   86.298   87.304
 eigensolver                         72  7.0    0.006    0.010   80.755   80.893
 x_to_yz                           2144 16.3   46.746   54.120   72.277   75.377
 mp_alltoall_z22v                  3420 17.1   45.355   68.329   45.355   68.329
 xc_pw_derive                       438 12.0    0.008    0.009   58.369   61.588
 apply_poisson_operator_fft          73 11.0    0.001    0.001   55.295   55.581
 cp_fm_diag_elpa                     73  8.0    0.001    0.001   51.225   51.345
 cp_fm_diag_elpa_base                73  9.0   50.159   50.278   51.119   51.185
 yz_to_x                           1276 15.8   13.287   13.974   33.110   46.078
 xc_rho_set_and_dset_create          73 11.0    0.833    1.030   45.001   45.936
 apply_inv_laplace_operator_fft     183 11.6    1.524    1.640   40.522   41.722
 xc_pw_divergence                    73 11.0    0.004    0.005   38.207   40.271
 pw_scatter_p                      2144 15.3   36.258   40.047   36.258   40.047
 ps_implicit_compute_veps            73 11.0    0.881    1.055   38.504   39.301
 gspace_mixing                       71  6.0    0.389    0.417   34.689   34.697
 pw_derive                         1524 13.1   29.069   30.546   29.069   30.546
 cp_fm_triangular_multiply          216  8.0   28.649   29.065   28.649   29.065
 ps_implicit_compute_error_fft      108 11.0    2.002    2.144   26.601   28.451
 potential_pw2rs                     73 11.0    0.059    0.066   28.124   28.244
 broyden_mixing                      71  7.0   25.472   25.797   26.063   26.111
 pw_gather_p                       1276 14.8   19.189   20.200   19.189   20.200
 -------------------------------------------------------------------------------

 The number of warnings for this run is : 1
 
 -------------------------------------------------------------------------------
  **** **** ******  **  PROGRAM ENDED AT                 2023-12-03 06:41:36.469
 ***** ** ***  *** **   PROGRAM RAN ON                                     cu042
 **    ****   ******    PROGRAM RAN BY                                     jxzhu
 ***** **    ** ** **   PROGRAM PROCESS ID                                 49946
  **** **  *******  **  PROGRAM STOPPED IN /public/home/jxzhu/tmp_calc/04c0855f9
                                           8753fac23fde4df51ba20f3741a9e9a/calc/
                                           task.000.000025
