 DBCSR| CPU Multiplication driver                                           XSMM
 DBCSR| Multrec recursion limit                                              512
 DBCSR| Multiplication stack size                                           1000
 DBCSR| Maximum elements for images                                    UNLIMITED
 DBCSR| Multiplicative factor virtual images                                   1
 DBCSR| Use multiplication densification                                       T
 DBCSR| Multiplication size stacks                                             3
 DBCSR| Use memory pool for CPU allocation                                     F
 DBCSR| Number of 3D layers                                               SINGLE
 DBCSR| Use MPI memory allocation                                              F
 DBCSR| Use RMA algorithm                                                      F
 DBCSR| Use Communication thread                                               T
 DBCSR| Communication thread load                                             87
 DBCSR| MPI: My node id                                                        0
 DBCSR| MPI: Number of nodes                                                  64
 DBCSR| OMP: Current number of threads                                         1
 DBCSR| OMP: Max number of threads                                             1
 DBCSR| Split modifier for TAS multiplication algorithm                  1.0E+00


  **** **** ******  **  PROGRAM STARTED AT               2023-11-26 19:42:38.438
 ***** ** ***  *** **   PROGRAM STARTED ON                                 cu054
 **    ****   ******    PROGRAM STARTED BY                                 jxzhu
 ***** **    ** ** **   PROGRAM PROCESS ID                                  3966
  **** **  *******  **  PROGRAM STARTED IN /public/home/jxzhu/tmp_calc/af2075565
                                           805657d94fa4669dad6f4b174b0a4fb/calc/
                                           000400.000/pbc

 CP2K| version string:                                       CP2K version 2022.1
 CP2K| source code revision number:                                  git:2caeb6f
 CP2K| cp2kflags: omp libint fftw3 libxc elpa parallel mpi3 scalapack cosma xsmm
 CP2K|             plumed2 spglib mkl sirius libvori libbqb
 CP2K| is freely available from                            https://www.cp2k.org/
 CP2K| Program compiled at                           Mon Jul 3 17:37:06 CST 2023
 CP2K| Program compiled on                                                 mu003
 CP2K| Program compiled for                                                local
 CP2K| Data directory path                             /public/home/jxzhu/basis/
 CP2K| Input file name                                                 input.inp
 
 GLOBAL| Force Environment number                                              1
 GLOBAL| Basis set file name                                        BASIS_MOLOPT
 GLOBAL| Potential file name                                      GTH_POTENTIALS
 GLOBAL| MM Potential file name                                     MM_POTENTIAL
 GLOBAL| Coordinate file name                                          coord.xyz
 GLOBAL| Method name                                                        CP2K
 GLOBAL| Project name                                                       cp2k
 GLOBAL| Run type                                                   ENERGY_FORCE
 GLOBAL| FFT library                                                       FFTW3
 GLOBAL| Diagonalization library                                            ELPA
 GLOBAL| Minimum number of eigenvectors for ELPA usage                        16
 GLOBAL| Orthonormality check for eigenvectors                          DISABLED
 GLOBAL| Matrix multiplication library                                     COSMA
 GLOBAL| All-to-all communication in single precision                          F
 GLOBAL| FFTs using library dependent lengths                                  F
 GLOBAL| Grid backend                                                       AUTO
 GLOBAL| Global print level                                               MEDIUM
 GLOBAL| MPI I/O enabled                                                       T
 GLOBAL| Total number of message passing processes                            64
 GLOBAL| Number of threads for this process                                    1
 GLOBAL| This output is from process                                           0
 GLOBAL| Stack size for threads created by OpenMP (OMP_STACKSIZE)        default
 GLOBAL| CPU model name                 Intel(R) Xeon(R) Gold 6338 CPU @ 2.00GHz
 GLOBAL| CPUID                                                              1003

 MEMORY| system memory details [Kb]
 MEMORY|                        rank 0           min           max       average
 MEMORY| MemTotal            263619172     263619172     263619172     263619172
 MEMORY| MemFree             211047200     211047200     211048440     211047277
 MEMORY| Buffers                  3320          3320          3320          3320
 MEMORY| Cached                3762868       3762868       3762868       3762868
 MEMORY| Slab                  1746940       1746940       1746940       1746940
 MEMORY| SReclaimable           241084        241084        241084        241084
 MEMORY| MemLikelyFree       215054472     215054472     215055712     215054549


 *** Fundamental physical constants (SI units) ***

 *** Literature: B. J. Mohr and B. N. Taylor,
 ***             CODATA recommended values of the fundamental physical
 ***             constants: 2006, Web Version 5.1
 ***             http://physics.nist.gov/constants

 Speed of light in vacuum [m/s]                             2.99792458000000E+08
 Magnetic constant or permeability of vacuum [N/A**2]       1.25663706143592E-06
 Electric constant or permittivity of vacuum [F/m]          8.85418781762039E-12
 Planck constant (h) [J*s]                                  6.62606896000000E-34
 Planck constant (h-bar) [J*s]                              1.05457162825177E-34
 Elementary charge [C]                                      1.60217648700000E-19
 Electron mass [kg]                                         9.10938215000000E-31
 Electron g factor [ ]                                     -2.00231930436220E+00
 Proton mass [kg]                                           1.67262163700000E-27
 Fine-structure constant                                    7.29735253760000E-03
 Rydberg constant [1/m]                                     1.09737315685270E+07
 Avogadro constant [1/mol]                                  6.02214179000000E+23
 Boltzmann constant [J/K]                                   1.38065040000000E-23
 Atomic mass unit [kg]                                      1.66053878200000E-27
 Bohr radius [m]                                            5.29177208590000E-11

 *** Conversion factors ***

 [u] -> [a.u.]                                              1.82288848426455E+03
 [Angstrom] -> [Bohr] = [a.u.]                              1.88972613288564E+00
 [a.u.] = [Bohr] -> [Angstrom]                              5.29177208590000E-01
 [a.u.] -> [s]                                              2.41888432650478E-17
 [a.u.] -> [fs]                                             2.41888432650478E-02
 [a.u.] -> [J]                                              4.35974393937059E-18
 [a.u.] -> [N]                                              8.23872205491840E-08
 [a.u.] -> [K]                                              3.15774647902944E+05
 [a.u.] -> [kJ/mol]                                         2.62549961709828E+03
 [a.u.] -> [kcal/mol]                                       6.27509468713739E+02
 [a.u.] -> [Pa]                                             2.94210107994716E+13
 [a.u.] -> [bar]                                            2.94210107994716E+08
 [a.u.] -> [atm]                                            2.90362800883016E+08
 [a.u.] -> [eV]                                             2.72113838565563E+01
 [a.u.] -> [Hz]                                             6.57968392072181E+15
 [a.u.] -> [1/cm] (wave numbers)                            2.19474631370540E+05
 [a.u./Bohr**2] -> [1/cm]                                   5.14048714338585E+03
 

 CELL_TOP| Volume [angstrom^3]:                                     10221.806009
 CELL_TOP| Vector a [angstrom    16.869     0.000     0.000   |a| =    16.869000
 CELL_TOP| Vector b [angstrom    -8.434    14.609     0.000   |b| =    16.869015
 CELL_TOP| Vector c [angstrom     0.000     0.000    41.478   |c| =    41.478000
 CELL_TOP| Angle (b,c), alpha [degree]:                                90.000000
 CELL_TOP| Angle (a,c), beta  [degree]:                                90.000000
 CELL_TOP| Angle (a,b), gamma [degree]:                               119.999970
 CELL_TOP| Numerically orthorhombic:                                          NO
 
 GENERATE|  Preliminary Number of Bonds generated:                             0
 GENERATE|  Achieved consistency in connectivity generation.

 CELL| Volume [angstrom^3]:                                         10221.806009
 CELL| Vector a [angstrom]:      16.869     0.000     0.000   |a| =    16.869000
 CELL| Vector b [angstrom]:      -8.434    14.609     0.000   |b| =    16.869015
 CELL| Vector c [angstrom]:       0.000     0.000    41.478   |c| =    41.478000
 CELL| Angle (b,c), alpha [degree]:                                    90.000000
 CELL| Angle (a,c), beta  [degree]:                                    90.000000
 CELL| Angle (a,b), gamma [degree]:                                   119.999970
 CELL| Numerically orthorhombic:                                              NO

 CELL_REF| Volume [angstrom^3]:                                     10221.806009
 CELL_REF| Vector a [angstrom    16.869     0.000     0.000   |a| =    16.869000
 CELL_REF| Vector b [angstrom    -8.434    14.609     0.000   |b| =    16.869015
 CELL_REF| Vector c [angstrom     0.000     0.000    41.478   |c| =    41.478000
 CELL_REF| Angle (b,c), alpha [degree]:                                90.000000
 CELL_REF| Angle (a,c), beta  [degree]:                                90.000000
 CELL_REF| Angle (a,b), gamma [degree]:                               119.999970
 CELL_REF| Numerically orthorhombic:                                          NO

 *******************************************************************************
 *******************************************************************************
 **                                                                           **
 **     #####                         ##              ##                      **
 **    ##   ##            ##          ##              ##                      **
 **   ##     ##                       ##            ######                    **
 **   ##     ##  ##   ##  ##   #####  ##  ##   ####   ##    #####    #####    **
 **   ##     ##  ##   ##  ##  ##      ## ##   ##      ##   ##   ##  ##   ##   **
 **   ##  ## ##  ##   ##  ##  ##      ####     ###    ##   ######   ######    **
 **    ##  ###   ##   ##  ##  ##      ## ##      ##   ##   ##       ##        **
 **     #######   #####   ##   #####  ##  ##  ####    ##    #####   ##        **
 **           ##                                                    ##        **
 **                                                                           **
 **                                                ... make the atoms dance   **
 **                                                                           **
 **            Copyright (C) by CP2K developers group (2000-2022)             **
 **                      J. Chem. Phys. 152, 194103 (2020)                    **
 **                                                                           **
 *******************************************************************************

 DFT| Spin restricted Kohn-Sham (RKS) calculation                            RKS
 DFT| Multiplicity                                                             1
 DFT| Number of spin states                                                    1
 DFT| Charge                                                                   0
 DFT| Self-interaction correction (SIC)                                       NO
 DFT| Cutoffs: density                                              1.000000E-10
 DFT|          gradient                                             1.000000E-10
 DFT|          tau                                                  1.000000E-10
 DFT|          cutoff_smoothing_range                               0.000000E+00
 DFT| XC density smoothing                                                  NONE
 DFT| XC derivatives                                                          PW

 FUNCTIONAL| PBE:
 FUNCTIONAL| J.P.Perdew, K.Burke, M.Ernzerhof, Phys. Rev. Letter, vol. 77, n 18,
 FUNCTIONAL|  pp. 3865-3868, (1996){spin unpolarized}                           

 vdW POTENTIAL|                                                   Pair Potential
 vdW POTENTIAL|          DFT-D3 (Version 3.1)
 vdW POTENTIAL|          Potential Form: S. Grimme et al, JCP 132: 154104 (2010)
 vdW POTENTIAL|          Zero Damping
 vdW POTENTIAL|          Cutoff Radius [Bohr]:                             20.00
 vdW POTENTIAL|          s6 Scaling Factor:                               1.0000
 vdW POTENTIAL|          sr6 Scaling Factor:                              1.2170
 vdW POTENTIAL|          s8 Scaling Factor:                               0.7220
 vdW POTENTIAL|          Cutoff for CN calculation:                   0.1000E-05

 QS| Method:                                                                 GPW
 QS| Density plane wave grid type                        NON-SPHERICAL FULLSPACE
 QS| Number of grid levels:                                                    4
 QS| Density cutoff [a.u.]:                                                200.0
 QS| Multi grid cutoff [a.u.]: 1) grid level                               200.0
 QS|                           2) grid level                                66.7
 QS|                           3) grid level                                22.2
 QS|                           4) grid level                                 7.4
 QS| Grid level progression factor:                                          3.0
 QS| Relative density cutoff [a.u.]:                                        20.0
 QS| Interaction thresholds: eps_pgf_orb:                                3.2E-07
 QS|                         eps_filter_matrix:                          0.0E+00
 QS|                         eps_core_charge:                            1.0E-15
 QS|                         eps_rho_gspace:                             1.0E-13
 QS|                         eps_rho_rspace:                             1.0E-13
 QS|                         eps_gvg_rspace:                             3.2E-07
 QS|                         eps_ppl:                                    1.0E-02
 QS|                         eps_ppnl:                                   3.2E-09


 ATOMIC KIND INFORMATION

  1. Atomic kind: O                                     Number of atoms:     230

     Orbital Basis Set                                        DZVP-MOLOPT-SR-GTH

       Number of orbital shell sets:                                           1
       Number of orbital shells:                                               5
       Number of primitive Cartesian functions:                                5
       Number of Cartesian basis functions:                                   14
       Number of spherical basis functions:                                   13
       Norm type:                                                              2

       Normalised Cartesian orbitals:

                        Set   Shell   Orbital            Exponent    Coefficient

                          1       1    2s               10.389228       0.396646
                                                         3.849621       0.208811
                                                         1.388401      -0.301641
                                                         0.496955      -0.274061
                                                         0.162492      -0.033677

                          1       2    3s               10.389228       0.303673
                                                         3.849621       0.240943
                                                         1.388401      -0.313066
                                                         0.496955      -0.043055
                                                         0.162492       0.213991

                          1       3    3px              10.389228      -1.530415
                                                         3.849621      -1.371928
                                                         1.388401      -0.761951
                                                         0.496955      -0.253695
                                                         0.162492      -0.035541
                          1       3    3py              10.389228      -1.530415
                                                         3.849621      -1.371928
                                                         1.388401      -0.761951
                                                         0.496955      -0.253695
                                                         0.162492      -0.035541
                          1       3    3pz              10.389228      -1.530415
                                                         3.849621      -1.371928
                                                         1.388401      -0.761951
                                                         0.496955      -0.253695
                                                         0.162492      -0.035541

                          1       4    4px              10.389228      -0.565392
                                                         3.849621      -0.038231
                                                         1.388401      -0.382373
                                                         0.496955       0.179070
                                                         0.162492       0.122714
                          1       4    4py              10.389228      -0.565392
                                                         3.849621      -0.038231
                                                         1.388401      -0.382373
                                                         0.496955       0.179070
                                                         0.162492       0.122714
                          1       4    4pz              10.389228      -0.565392
                                                         3.849621      -0.038231
                                                         1.388401      -0.382373
                                                         0.496955       0.179070
                                                         0.162492       0.122714

                          1       5    4dx2             10.389228       1.867377
                                                         3.849621       0.670994
                                                         1.388401       1.353441
                                                         0.496955       0.273538
                                                         0.162492       0.006620
                          1       5    4dxy             10.389228       3.234392
                                                         3.849621       1.162195
                                                         1.388401       2.344229
                                                         0.496955       0.473781
                                                         0.162492       0.011466
                          1       5    4dxz             10.389228       3.234392
                                                         3.849621       1.162195
                                                         1.388401       2.344229
                                                         0.496955       0.473781
                                                         0.162492       0.011466
                          1       5    4dy2             10.389228       1.867377
                                                         3.849621       0.670994
                                                         1.388401       1.353441
                                                         0.496955       0.273538
                                                         0.162492       0.006620
                          1       5    4dyz             10.389228       3.234392
                                                         3.849621       1.162195
                                                         1.388401       2.344229
                                                         0.496955       0.473781
                                                         0.162492       0.011466
                          1       5    4dz2             10.389228       1.867377
                                                         3.849621       0.670994
                                                         1.388401       1.353441
                                                         0.496955       0.273538
                                                         0.162492       0.006620

       Atomic covalent radius [Angstrom]:                                  0.730

       Atomic van der Waals radius [Angstrom]:                             1.520

     GTH Potential information for                                    GTH-PBE-q6

       Description:                       Goedecker-Teter-Hutter pseudopotential
                                           Goedecker et al., PRB 54, 1703 (1996)
                                          Hartwigsen et al., PRB 58, 3641 (1998)
                                                      Krack, TCA 114, 145 (2005)

       Gaussian exponent of the core charge distribution:               8.360253
       Electronic configuration (s p d ...):                               2   4

       Parameters of the local part of the GTH pseudopotential:

                          rloc        C1          C2          C3          C4
                        0.244554  -16.667215    2.487311

       Parameters of the non-local part of the GTH pseudopotential:

                   l      r(l)      h(i,j,l)

                   0    0.220956   18.337458
                   1    0.211332

  2. Atomic kind: H                                     Number of atoms:     460

     Orbital Basis Set                                        DZVP-MOLOPT-SR-GTH

       Number of orbital shell sets:                                           1
       Number of orbital shells:                                               3
       Number of primitive Cartesian functions:                                5
       Number of Cartesian basis functions:                                    5
       Number of spherical basis functions:                                    5
       Norm type:                                                              2

       Normalised Cartesian orbitals:

                        Set   Shell   Orbital            Exponent    Coefficient

                          1       1    2s               10.068468      -0.133023
                                                         2.680223      -0.177618
                                                         0.791502      -0.258419
                                                         0.239116      -0.107525
                                                         0.082193      -0.014019

                          1       2    3s               10.068468       0.344673
                                                         2.680223       1.819821
                                                         0.791502      -0.999069
                                                         0.239116       0.017430
                                                         0.082193       0.082660

                          1       3    3px              10.068468       0.155326
                                                         2.680223       0.367157
                                                         0.791502       0.311480
                                                         0.239116       0.080105
                                                         0.082193       0.033440
                          1       3    3py              10.068468       0.155326
                                                         2.680223       0.367157
                                                         0.791502       0.311480
                                                         0.239116       0.080105
                                                         0.082193       0.033440
                          1       3    3pz              10.068468       0.155326
                                                         2.680223       0.367157
                                                         0.791502       0.311480
                                                         0.239116       0.080105
                                                         0.082193       0.033440

       Atomic covalent radius [Angstrom]:                                  0.320

       Atomic van der Waals radius [Angstrom]:                             1.090

     GTH Potential information for                                    GTH-PBE-q1

       Description:                       Goedecker-Teter-Hutter pseudopotential
                                           Goedecker et al., PRB 54, 1703 (1996)
                                          Hartwigsen et al., PRB 58, 3641 (1998)
                                                      Krack, TCA 114, 145 (2005)

       Gaussian exponent of the core charge distribution:              12.500000
       Electronic configuration (s p d ...):                                   1

       Parameters of the local part of the GTH pseudopotential:

                          rloc        C1          C2          C3          C4
                        0.200000   -4.178900    0.724463

  3. Atomic kind: Pt                                    Number of atoms:     216

     Orbital Basis Set                      DZVP-A5-Q10-323-MOL-T1-DERIVED_SET-1

       Number of orbital shell sets:                                           1
       Number of orbital shells:                                               6
       Number of primitive Cartesian functions:                                5
       Number of Cartesian basis functions:                                   23
       Number of spherical basis functions:                                   20
       Norm type:                                                              2

       Normalised Cartesian orbitals:

                        Set   Shell   Orbital            Exponent    Coefficient

                          1       1    2s                2.521825       0.177473
                                                         1.453920      -0.063399
                                                         0.614053      -0.407089
                                                         0.232656       0.262254
                                                         0.074788       0.047371

                          1       2    3s                2.521825      -0.049056
                                                         1.453920       0.044904
                                                         0.614053      -0.009756
                                                         0.232656      -0.144709
                                                         0.074788       0.144085

                          1       3    3px               2.521825      -0.317572
                                                         1.453920       0.534826
                                                         0.614053      -0.489458
                                                         0.232656       0.245631
                                                         0.074788       0.018221
                          1       3    3py               2.521825      -0.317572
                                                         1.453920       0.534826
                                                         0.614053      -0.489458
                                                         0.232656       0.245631
                                                         0.074788       0.018221
                          1       3    3pz               2.521825      -0.317572
                                                         1.453920       0.534826
                                                         0.614053      -0.489458
                                                         0.232656       0.245631
                                                         0.074788       0.018221

                          1       4    4dx2              2.521825       3.008522
                                                         1.453920      -1.224251
                                                         0.614053       0.225691
                                                         0.232656       0.125144
                                                         0.074788      -0.015348
                          1       4    4dxy              2.521825       5.210912
                                                         1.453920      -2.120465
                                                         0.614053       0.390909
                                                         0.232656       0.216756
                                                         0.074788      -0.026584
                          1       4    4dxz              2.521825       5.210912
                                                         1.453920      -2.120465
                                                         0.614053       0.390909
                                                         0.232656       0.216756
                                                         0.074788      -0.026584
                          1       4    4dy2              2.521825       3.008522
                                                         1.453920      -1.224251
                                                         0.614053       0.225691
                                                         0.232656       0.125144
                                                         0.074788      -0.015348
                          1       4    4dyz              2.521825       5.210912
                                                         1.453920      -2.120465
                                                         0.614053       0.390909
                                                         0.232656       0.216756
                                                         0.074788      -0.026584
                          1       4    4dz2              2.521825       3.008522
                                                         1.453920      -1.224251
                                                         0.614053       0.225691
                                                         0.232656       0.125144
                                                         0.074788      -0.015348

                          1       5    5dx2              2.521825       0.698026
                                                         1.453920      -1.511486
                                                         0.614053      -0.335394
                                                         0.232656      -0.025564
                                                         0.074788      -0.002699
                          1       5    5dxy              2.521825       1.209017
                                                         1.453920      -2.617970
                                                         0.614053      -0.580920
                                                         0.232656      -0.044277
                                                         0.074788      -0.004674
                          1       5    5dxz              2.521825       1.209017
                                                         1.453920      -2.617970
                                                         0.614053      -0.580920
                                                         0.232656      -0.044277
                                                         0.074788      -0.004674
                          1       5    5dy2              2.521825       0.698026
                                                         1.453920      -1.511486
                                                         0.614053      -0.335394
                                                         0.232656      -0.025564
                                                         0.074788      -0.002699
                          1       5    5dyz              2.521825       1.209017
                                                         1.453920      -2.617970
                                                         0.614053      -0.580920
                                                         0.232656      -0.044277
                                                         0.074788      -0.004674
                          1       5    5dz2              2.521825       0.698026
                                                         1.453920      -1.511486
                                                         0.614053      -0.335394
                                                         0.232656      -0.025564
                                                         0.074788      -0.002699

                          1       6    6dx2              2.521825       0.831079
                                                         1.453920      -0.709226
                                                         0.614053      -0.137351
                                                         0.232656       0.068642
                                                         0.074788       0.011745
                          1       6    6dxy              2.521825       1.439472
                                                         1.453920      -1.228415
                                                         0.614053      -0.237899
                                                         0.232656       0.118891
                                                         0.074788       0.020343
                          1       6    6dxz              2.521825       1.439472
                                                         1.453920      -1.228415
                                                         0.614053      -0.237899
                                                         0.232656       0.118891
                                                         0.074788       0.020343
                          1       6    6dy2              2.521825       0.831079
                                                         1.453920      -0.709226
                                                         0.614053      -0.137351
                                                         0.232656       0.068642
                                                         0.074788       0.011745
                          1       6    6dyz              2.521825       1.439472
                                                         1.453920      -1.228415
                                                         0.614053      -0.237899
                                                         0.232656       0.118891
                                                         0.074788       0.020343
                          1       6    6dz2              2.521825       0.831079
                                                         1.453920      -0.709226
                                                         0.614053      -0.137351
                                                         0.232656       0.068642
                                                         0.074788       0.011745

       Atomic covalent radius [Angstrom]:                                  1.300

       Atomic van der Waals radius [Angstrom]:                             1.750

     GTH Potential information for                                   GTH-PBE-q10

       Description:                       Goedecker-Teter-Hutter pseudopotential
                                           Goedecker et al., PRB 54, 1703 (1996)
                                          Hartwigsen et al., PRB 58, 3641 (1998)
                                                      Krack, TCA 114, 145 (2005)

       Gaussian exponent of the core charge distribution:               1.317676
       Electronic configuration (s p d ...):                           1   0   9

       Parameters of the local part of the GTH pseudopotential:

                          rloc        C1          C2          C3          C4
                        0.616000   11.313635

       Parameters of the non-local part of the GTH pseudopotential:

                   l      r(l)      h(i,j,l)

                   0    0.550904    4.733491   -1.784594
                                   -1.784594    2.303901
                   1    0.674138    2.534798   -1.778066
                                   -1.778066    2.103836
                   2    0.457392   -7.264011    2.558665
                                    2.558665   -2.901253


 MOLECULE KIND INFORMATION


 All atoms are their own molecule, skipping detailed information


 TOTAL NUMBERS AND MAXIMUM NUMBERS

  Total number of            - Atomic kinds:                                   3
                             - Atoms:                                        906
                             - Shell sets:                                   906
                             - Shells:                                      3826
                             - Primitive Cartesian functions:               4530
                             - Cartesian basis functions:                  10488
                             - Spherical basis functions:                   9610

  Maximum angular momentum of- Orbital basis functions:                        2
                             - Local part of the GTH pseudopotential:          2
                             - Non-local part of the GTH pseudopotential:      4


 MODULE QUICKSTEP:  ATOMIC COORDINATES IN angstrom

 Atom  Kind  Element       X           Y           Z          Z(eff)       Mass
    1   1 O    8       3.410000   -0.340000   15.860001       6.0000     15.9994
    2   2 H    1       2.490000   -0.180000   16.160000       1.0000      1.0079
    3   2 H    1       3.260000   -0.880000   15.020000       1.0000      1.0079
    4   1 O    8       8.240001   -1.150000   10.810001       6.0000     15.9994
    5   2 H    1       9.220000   -1.060000   10.650001       1.0000      1.0079
    6   2 H    1       8.120001   -2.130000   10.990001       1.0000      1.0079
    7   1 O    8      -1.760000   -1.620000   23.120001       6.0000     15.9994
    8   2 H    1      -1.530000   -0.630000   23.110001       1.0000      1.0079
    9   2 H    1      -2.540000   -1.710000   23.720001       1.0000      1.0079
   10   1 O    8      -3.560000    2.910000   31.240002       6.0000     15.9994
   11   2 H    1      -3.350000    3.860000   31.570000       1.0000      1.0079
   12   2 H    1      -4.510000    3.030000   30.850000       1.0000      1.0079
   13   1 O    8       1.900000    0.440000   33.500000       6.0000     15.9994
   14   2 H    1       1.130000    0.910000   33.010002       1.0000      1.0079
   15   2 H    1       2.640000    1.010000   33.250000       1.0000      1.0079
   16   1 O    8       4.010000   14.250001   12.960000       6.0000     15.9994
   17   2 H    1       4.170000   13.460001   13.530001       1.0000      1.0079
   18   2 H    1       3.250000   14.780001   13.360001       1.0000      1.0079
   19   1 O    8      -0.530000   19.790001   17.830002       6.0000     15.9994
   20   2 H    1      -1.430000   20.160000   17.810001       1.0000      1.0079
   21   2 H    1       0.040000   20.530003   18.290001       1.0000      1.0079
   22   1 O    8      -2.520000   18.000000   13.230000       6.0000     15.9994
   23   2 H    1      -2.830000   17.490002   12.480001       1.0000      1.0079
   24   2 H    1       6.730001    3.910000   12.850000       1.0000      1.0079
   25   1 O    8      -5.020000    0.230000   21.809999       6.0000     15.9994
   26   2 H    1      -4.900000   -0.620000   22.270000       1.0000      1.0079
   27   2 H    1      -6.000000    0.270000   21.680002       1.0000      1.0079
   28   1 O    8       3.590000   14.910001   29.900002       6.0000     15.9994
   29   2 H    1       3.100000   15.800000   29.870003       1.0000      1.0079
   30   2 H    1       3.490000   14.620000   30.890003       1.0000      1.0079
   31   1 O    8       1.500000   -1.370000   19.520000       6.0000     15.9994
   32   2 H    1       2.440000   -1.750000   19.650002       1.0000      1.0079
   33   2 H    1       1.480000   -0.890000   18.700001       1.0000      1.0079
   34   1 O    8      -3.550000    0.480000   26.210001       6.0000     15.9994
   35   2 H    1      -3.200000    0.320000   27.140003       1.0000      1.0079
   36   2 H    1      -2.840000    0.970000   25.620001       1.0000      1.0079
   37   1 O    8       3.570000   -8.120001   23.549999       6.0000     15.9994
   38   2 H    1       4.050000   -7.900000   22.740002       1.0000      1.0079
   39   2 H    1       3.240000   -7.210000   23.940001       1.0000      1.0079
   40   1 O    8      18.170000   26.090002   12.230001       6.0000     15.9994
   41   2 H    1      17.770000   25.230000   12.640000       1.0000      1.0079
   42   2 H    1      17.420002   26.750002   12.430000       1.0000      1.0079
   43   1 O    8      11.170001   -3.960000   32.380001       6.0000     15.9994
   44   2 H    1      11.160001   -4.020000   31.380003       1.0000      1.0079
   45   2 H    1      12.190001   -3.980000   32.450001       1.0000      1.0079
   46   1 O    8      -6.370000   -3.930000   29.460001       6.0000     15.9994
   47   2 H    1      -7.190001   -3.480000   29.110003       1.0000      1.0079
   48   2 H    1      -5.820000   -3.460000   28.830002       1.0000      1.0079
   49   1 O    8     -11.890000   17.620001   12.890000       6.0000     15.9994
   50   2 H    1     -11.610001   16.950001   12.200001       1.0000      1.0079
   51   2 H    1     -11.290001   18.430000   12.720001       1.0000      1.0079
   52   1 O    8       0.840000    2.500000   20.459999       6.0000     15.9994
   53   2 H    1       1.440000    2.410000   19.700001       1.0000      1.0079
   54   2 H    1       1.420000    3.120000   21.140001       1.0000      1.0079
   55   1 O    8     -16.140001    0.840000   24.300001       6.0000     15.9994
   56   2 H    1     -15.740002    0.420000   23.430002       1.0000      1.0079
   57   2 H    1     -15.540000    1.560000   24.540003       1.0000      1.0079
   58   1 O    8       8.790001    2.700000   32.360001       6.0000     15.9994
   59   2 H    1       8.610001    3.660000   32.340004       1.0000      1.0079
   60   2 H    1       7.940001    2.250000   32.600002       1.0000      1.0079
   61   1 O    8     -17.889999   22.090000   28.160002       6.0000     15.9994
   62   2 H    1     -17.230000   22.139999   27.460001       1.0000      1.0079
   63   2 H    1      -1.280000   23.010002   28.570002       1.0000      1.0079
   64   1 O    8       1.190000   -9.650001   15.520000       6.0000     15.9994
   65   2 H    1       0.580000   -9.780001   14.770001       1.0000      1.0079
   66   2 H    1      17.410000   -9.480001   16.300001       1.0000      1.0079
   67   1 O    8      14.230001   -2.520000   10.770000       6.0000     15.9994
   68   2 H    1       6.550000   11.730001   10.240001       1.0000      1.0079
   69   2 H    1      14.680000   -1.710000   11.130000       1.0000      1.0079
   70   1 O    8     -13.800001   12.910000   28.080002       6.0000     15.9994
   71   2 H    1     -13.790001   13.640001   28.800001       1.0000      1.0079
   72   2 H    1     -13.970001   13.370000   27.260000       1.0000      1.0079
   73   1 O    8       2.550000    4.370000   21.590002       6.0000     15.9994
   74   2 H    1       3.140000    4.250000   22.299999       1.0000      1.0079
   75   2 H    1       2.200000    5.290000   21.740000       1.0000      1.0079
   76   1 O    8      -3.310000    7.090001   28.040001       6.0000     15.9994
   77   2 H    1      -2.430000    7.100000   28.620003       1.0000      1.0079
   78   2 H    1      -3.000000    6.910000   27.110003       1.0000      1.0079
   79   1 O    8     -14.180001   -1.320000   26.780003       6.0000     15.9994
   80   2 H    1     -15.170001   -1.090000   26.800001       1.0000      1.0079
   81   2 H    1     -13.840000   -1.530000   27.660000       1.0000      1.0079
   82   1 O    8      10.020000    0.570000    8.730000       6.0000     15.9994
   83   2 H    1      10.230000   -0.310000    9.140000       1.0000      1.0079
   84   2 H    1      10.050000    0.340000    7.770000       1.0000      1.0079
   85   1 O    8      -3.400000   11.190001   12.610001       6.0000     15.9994
   86   2 H    1      -3.580000   10.220001   12.750001       1.0000      1.0079
   87   2 H    1      -3.550000   11.460000   11.660000       1.0000      1.0079
   88   1 O    8       8.500000   -0.050000   18.940001       6.0000     15.9994
   89   2 H    1      -8.720000    0.750000   18.390001       1.0000      1.0079
   90   2 H    1       9.200000   -0.440000   18.230001       1.0000      1.0079
   91   1 O    8       3.850000    6.540000   29.550001       6.0000     15.9994
   92   2 H    1       4.410000    6.520000   28.720001       1.0000      1.0079
   93   2 H    1       3.170000    5.800000   29.430000       1.0000      1.0079
   94   1 O    8       7.080000    7.170000   12.110001       6.0000     15.9994
   95   2 H    1       7.070000    7.430000   11.130000       1.0000      1.0079
   96   2 H    1       7.210000    7.930000   12.690001       1.0000      1.0079
   97   1 O    8      -2.750000   -5.640000    8.770000       6.0000     15.9994
   98   2 H    1      -3.520000   -6.240000    8.880001       1.0000      1.0079
   99   2 H    1      -2.610000   -5.620000    7.760000       1.0000      1.0079
  100   1 O    8       1.520000   -4.380000   33.160004       6.0000     15.9994
  101   2 H    1       2.380000   -4.340000   32.790001       1.0000      1.0079
  102   2 H    1       1.230000   -5.300000   32.940002       1.0000      1.0079
  103   1 O    8       7.170000    5.240001   22.190001       6.0000     15.9994
  104   2 H    1       7.380000    4.680000   21.430000       1.0000      1.0079
  105   2 H    1      -8.820001    5.300000   22.690001       1.0000      1.0079
  106   1 O    8      -4.120000    8.490001   13.240002       6.0000     15.9994
  107   2 H    1      -4.350000    7.800000   12.580000       1.0000      1.0079
  108   2 H    1      -4.640000    8.580000   14.060000       1.0000      1.0079
  109   1 O    8      11.780001    8.550000    9.370001       6.0000     15.9994
  110   2 H    1      11.190001    9.310000    9.470000       1.0000      1.0079
  111   2 H    1      12.510000    8.970000    8.800000       1.0000      1.0079
  112   1 O    8     -15.980000    5.560000   16.680000       6.0000     15.9994
  113   2 H    1     -16.260000    5.390000   15.700001       1.0000      1.0079
  114   2 H    1     -15.070001    5.880000   16.510000       1.0000      1.0079
  115   1 O    8      -2.400000   13.990001    9.200000       6.0000     15.9994
  116   2 H    1      -2.190000   14.190001    8.240001       1.0000      1.0079
  117   2 H    1      -1.500000   13.920001    9.670001       1.0000      1.0079
  118   1 O    8      -7.390000    7.440000   18.700001       6.0000     15.9994
  119   2 H    1      -8.080000    7.970000   19.120001       1.0000      1.0079
  120   2 H    1      -6.780000    7.060000   19.360001       1.0000      1.0079
  121   1 O    8      -3.990000    9.730001   27.230000       6.0000     15.9994
  122   2 H    1      -3.190000   10.270000   26.850002       1.0000      1.0079
  123   2 H    1      -3.710000    8.890000   27.710001       1.0000      1.0079
  124   1 O    8     -16.400002    9.180000   17.450001       6.0000     15.9994
  125   2 H    1     -24.330002   24.240000   18.230001       1.0000      1.0079
  126   2 H    1     -17.120001    9.830000   17.270000       1.0000      1.0079
  127   1 O    8      12.850000   -7.850000   12.760000       6.0000     15.9994
  128   2 H    1      12.620001   -7.990000   11.840000       1.0000      1.0079
  129   2 H    1       5.400000    6.980000   12.410001       1.0000      1.0079
  130   1 O    8       0.520000   -1.810000   32.420002       6.0000     15.9994
  131   2 H    1       0.760000   -2.750000   32.640003       1.0000      1.0079
  132   2 H    1       0.970000   -1.290000   33.100002       1.0000      1.0079
  133   1 O    8     -13.440001   25.820000   20.150002       6.0000     15.9994
  134   2 H    1     -12.920000   25.570002   19.370001       1.0000      1.0079
  135   2 H    1     -13.690001   24.940002   20.500002       1.0000      1.0079
  136   1 O    8      -3.610000    0.260000   19.540001       6.0000     15.9994
  137   2 H    1      -2.980000   -0.420000   19.780001       1.0000      1.0079
  138   2 H    1      -4.150000    0.220000   20.389999       1.0000      1.0079
  139   1 O    8      -8.110001   -1.160000   26.080000       6.0000     15.9994
  140   2 H    1      -7.870001   -0.190000   26.210001       1.0000      1.0079
  141   2 H    1      -8.680000   -1.260000   25.310001       1.0000      1.0079
  142   1 O    8       7.810000    7.280001    9.370001       6.0000     15.9994
  143   2 H    1       7.280001    6.470000    9.170000       1.0000      1.0079
  144   2 H    1       7.240000    8.060000    9.140000       1.0000      1.0079
  145   1 O    8      -9.840000   19.750002   11.470001       6.0000     15.9994
  146   2 H    1       7.100000   20.510002   12.130001       1.0000      1.0079
  147   2 H    1      -8.940001   19.430000   11.470001       1.0000      1.0079
  148   1 O    8      -8.170000    8.200001   21.680002       6.0000     15.9994
  149   2 H    1      -8.510000    7.330000   21.930000       1.0000      1.0079
  150   2 H    1      -8.720000    8.890000   22.139999       1.0000      1.0079
  151   1 O    8       1.550000    8.130000   29.890001       6.0000     15.9994
  152   2 H    1       1.650000    9.070001   29.600000       1.0000      1.0079
  153   2 H    1       2.420000    7.660000   29.740002       1.0000      1.0079
  154   1 O    8      14.140000    1.080000   32.690002       6.0000     15.9994
  155   2 H    1      13.770000    1.300000   33.550003       1.0000      1.0079
  156   2 H    1      13.790001    1.830000   32.140003       1.0000      1.0079
  157   1 O    8      -7.790000   -0.020000   21.530001       6.0000     15.9994
  158   2 H    1      -8.190001    0.070000   20.630001       1.0000      1.0079
  159   2 H    1      -8.310000    0.670000   22.030001       1.0000      1.0079
  160   1 O    8       5.450000    1.690000   11.160001       6.0000     15.9994
  161   2 H    1       4.850000    0.970000   11.420001       1.0000      1.0079
  162   2 H    1       6.390000    1.410000   11.270000       1.0000      1.0079
  163   1 O    8      11.370001    2.440000   27.100000       6.0000     15.9994
  164   2 H    1      11.860001    2.980000   27.730003       1.0000      1.0079
  165   2 H    1      11.960001    1.730000   26.760002       1.0000      1.0079
  166   1 O    8      -0.140000   16.470001   11.600000       6.0000     15.9994
  167   2 H    1       0.160000   16.110001   10.760001       1.0000      1.0079
  168   2 H    1      -0.370000   17.360001   11.350001       1.0000      1.0079
  169   1 O    8     -25.140001   15.400001   29.860001       6.0000     15.9994
  170   2 H    1      -8.370000   15.720000   30.780001       1.0000      1.0079
  171   2 H    1      -9.150001   15.380001   29.480001       1.0000      1.0079
  172   1 O    8       0.610000    0.510000   12.360001       6.0000     15.9994
  173   2 H    1       1.580000    0.550000   12.360001       1.0000      1.0079
  174   2 H    1       0.260000    1.160000   13.070001       1.0000      1.0079
  175   1 O    8       2.060000   16.890001   30.140001       6.0000     15.9994
  176   2 H    1       1.610000   17.120001   31.080000       1.0000      1.0079
  177   2 H    1       1.690000   17.620001   29.610003       1.0000      1.0079
  178   1 O    8      -0.170000    4.130000   32.700001       6.0000     15.9994
  179   2 H    1      -1.130000    4.480000   32.520000       1.0000      1.0079
  180   2 H    1       0.030000    4.160000   33.700001       1.0000      1.0079
  181   1 O    8      15.060000    4.040000   25.900002       6.0000     15.9994
  182   2 H    1      16.010000    4.320000   26.060001       1.0000      1.0079
  183   2 H    1      14.610001    4.920000   25.560001       1.0000      1.0079
  184   1 O    8       6.070001    8.150001   33.080002       6.0000     15.9994
  185   2 H    1       5.450000    7.350000   32.880001       1.0000      1.0079
  186   2 H    1       5.720000    9.010000   32.760002       1.0000      1.0079
  187   1 O    8      -6.070001   23.549999   15.620001       6.0000     15.9994
  188   2 H    1      -5.380001   24.120003   15.980000       1.0000      1.0079
  189   2 H    1      -6.920000   23.570002   16.170002       1.0000      1.0079
  190   1 O    8      -0.300000   11.630001   28.350000       6.0000     15.9994
  191   2 H    1      -0.140000   12.500000   27.910002       1.0000      1.0079
  192   2 H    1      -1.100000   11.820001   28.920002       1.0000      1.0079
  193   1 O    8      -5.370000    8.960000   24.910002       6.0000     15.9994
  194   2 H    1      -6.210001    8.740000   25.490000       1.0000      1.0079
  195   2 H    1      -4.740000    9.100000   25.670002       1.0000      1.0079
  196   1 O    8      -9.940001    1.000000   33.400002       6.0000     15.9994
  197   2 H    1      -9.470000    0.260000   32.880001       1.0000      1.0079
  198   2 H    1     -10.890001    1.030000   33.080002       1.0000      1.0079
  199   1 O    8      -4.640000    6.620001   11.390000       6.0000     15.9994
  200   2 H    1      -5.500000    6.570000   10.970000       1.0000      1.0079
  201   2 H    1      -4.130000    6.980000   10.640000       1.0000      1.0079
  202   1 O    8      -4.570000   18.370001   19.120001       6.0000     15.9994
  203   2 H    1      -5.320000   18.170000   18.450001       1.0000      1.0079
  204   2 H    1      -4.950000   18.770000   19.990002       1.0000      1.0079
  205   1 O    8      16.400002   -3.050000    9.040001       6.0000     15.9994
  206   2 H    1       7.800000   12.360001    8.580000       1.0000      1.0079
  207   2 H    1      16.200001   -3.770000    8.390000       1.0000      1.0079
  208   1 O    8      -7.490000   -9.880000   26.680002       6.0000     15.9994
  209   2 H    1      -7.770000   -9.910001   27.600002       1.0000      1.0079
  210   2 H    1      -7.410001   -8.860001   26.510000       1.0000      1.0079
  211   1 O    8      -2.510000    0.710000   28.730001       6.0000     15.9994
  212   2 H    1      -2.780000    1.660000   28.610001       1.0000      1.0079
  213   2 H    1      -3.190000    0.450000   29.430000       1.0000      1.0079
  214   1 O    8       1.050000    0.150000   17.110001       6.0000     15.9994
  215   2 H    1       0.370000   -0.410000   16.720001       1.0000      1.0079
  216   2 H    1       0.930000    1.070000   16.830002       1.0000      1.0079
  217   1 O    8      -8.700001    5.310000   32.470001       6.0000     15.9994
  218   2 H    1      -9.150001    5.410000   31.630001       1.0000      1.0079
  219   2 H    1      -9.340000    5.240001   33.240002       1.0000      1.0079
  220   1 O    8       7.960001   10.420000   15.800000       6.0000     15.9994
  221   2 H    1       7.470000    9.550000   15.920001       1.0000      1.0079
  222   2 H    1       8.920000   10.290001   16.190001       1.0000      1.0079
  223   1 O    8      -9.560000    8.910000   19.020000       6.0000     15.9994
  224   2 H    1       7.730001    9.730001   19.520000       1.0000      1.0079
  225   2 H    1     -10.080000    8.450001   19.700001       1.0000      1.0079
  226   1 O    8      -5.430000   19.080002    8.400001       6.0000     15.9994
  227   2 H    1      -4.800000   18.310001    8.490001       1.0000      1.0079
  228   2 H    1      10.520000   18.710001    8.540000       1.0000      1.0079
  229   1 O    8      -0.760000    8.450001   24.820002       6.0000     15.9994
  230   2 H    1      -0.790000    8.750001   23.830002       1.0000      1.0079
  231   2 H    1      -1.170000    9.180000   25.360001       1.0000      1.0079
  232   1 O    8      -5.050000    9.400001   31.160002       6.0000     15.9994
  233   2 H    1      -4.340000    9.980000   30.790003       1.0000      1.0079
  234   2 H    1      -5.830000    9.140000   30.550001       1.0000      1.0079
  235   1 O    8     -12.720001   10.520000   19.800001       6.0000     15.9994
  236   2 H    1     -12.220000   11.310000   20.160000       1.0000      1.0079
  237   2 H    1     -12.820001    9.910001   20.570002       1.0000      1.0079
  238   1 O    8       7.230001   -7.140000   29.630001       6.0000     15.9994
  239   2 H    1      -1.420000    7.900000   30.530003       1.0000      1.0079
  240   2 H    1       8.180000   -6.730001   29.490002       1.0000      1.0079
  241   1 O    8      -0.940000   -1.600000   15.950001       6.0000     15.9994
  242   2 H    1      -0.750000   -2.550000   15.980000       1.0000      1.0079
  243   2 H    1      -1.860000   -1.530000   15.710001       1.0000      1.0079
  244   1 O    8       0.640000   -0.460000    8.300000       6.0000     15.9994
  245   2 H    1       1.620000   -0.100000    8.390000       1.0000      1.0079
  246   2 H    1       0.220000    0.180000    8.880001       1.0000      1.0079
  247   1 O    8       6.660000   -1.980000   18.900002       6.0000     15.9994
  248   2 H    1       5.770000   -1.680000   18.500002       1.0000      1.0079
  249   2 H    1       7.210000   -1.160000   18.920000       1.0000      1.0079
  250   1 O    8       2.840000   21.350000   29.430000       6.0000     15.9994
  251   2 H    1       3.660000   21.470001   28.910000       1.0000      1.0079
  252   2 H    1       3.010000   21.040001   30.360003       1.0000      1.0079
  253   1 O    8      -5.360000   14.710001    8.990001       6.0000     15.9994
  254   2 H    1      -4.750000   14.040001    8.600000       1.0000      1.0079
  255   2 H    1      -4.830000   15.590000    8.810000       1.0000      1.0079
  256   1 O    8       4.330000    0.470000   21.610001       6.0000     15.9994
  257   2 H    1       3.280000    0.480000   21.639999       1.0000      1.0079
  258   2 H    1       4.530000   -0.470000   21.650002       1.0000      1.0079
  259   1 O    8     -11.580001    5.940001   18.140001       6.0000     15.9994
  260   2 H    1     -12.050000    5.090000   18.370001       1.0000      1.0079
  261   2 H    1     -11.430000    6.430000   18.910000       1.0000      1.0079
  262   1 O    8       1.220000    6.900001   21.110001       6.0000     15.9994
  263   2 H    1       0.590000    7.250000   21.830002       1.0000      1.0079
  264   2 H    1       0.590000    6.980000   20.270002       1.0000      1.0079
  265   1 O    8      -9.230001   -9.930000   14.610001       6.0000     15.9994
  266   2 H    1      -9.680000   -9.270000   14.050001       1.0000      1.0079
  267   2 H    1      -1.310000    4.620000   15.450001       1.0000      1.0079
  268   1 O    8      -8.270000    8.140000   32.400002       6.0000     15.9994
  269   2 H    1      -9.240000    8.160001   32.600002       1.0000      1.0079
  270   2 H    1      -8.110001    7.230001   32.910000       1.0000      1.0079
  271   1 O    8       4.540000   10.170001   16.750000       6.0000     15.9994
  272   2 H    1       4.840000   10.330000   17.680000       1.0000      1.0079
  273   2 H    1       5.330000    9.630001   16.440001       1.0000      1.0079
  274   1 O    8      -3.260000    7.100000   21.300001       6.0000     15.9994
  275   2 H    1      -3.750000    7.480001   20.490000       1.0000      1.0079
  276   2 H    1      -3.210000    6.150000   21.200001       1.0000      1.0079
  277   1 O    8      -6.680000   -1.430000   17.360001       6.0000     15.9994
  278   2 H    1     -22.670002   -1.060000   17.040001       1.0000      1.0079
  279   2 H    1      -7.150001   -1.500000   16.490000       1.0000      1.0079
  280   1 O    8      14.810000   -4.560000   29.710003       6.0000     15.9994
  281   2 H    1      15.610001   -4.170000   29.330002       1.0000      1.0079
  282   2 H    1      14.040001   -4.350000   29.010000       1.0000      1.0079
  283   1 O    8       4.190001  -15.160000   17.060001       6.0000     15.9994
  284   2 H    1      -4.140000    0.140000   16.410000       1.0000      1.0079
  285   2 H    1       4.470000  -14.660001   17.830002       1.0000      1.0079
  286   1 O    8     -21.100002   23.340000   23.780001       6.0000     15.9994
  287   2 H    1      -4.510000   22.410002   23.970001       1.0000      1.0079
  288   2 H    1     -21.560001   23.760002   24.570000       1.0000      1.0079
  289   1 O    8      -3.790000   12.330000   22.310001       6.0000     15.9994
  290   2 H    1      -4.630000   12.330000   22.810001       1.0000      1.0079
  291   2 H    1      -4.110000   11.940001   21.460001       1.0000      1.0079
  292   1 O    8      -1.830000   -6.300001   16.480001       6.0000     15.9994
  293   2 H    1      -1.650000   -6.300001   17.450001       1.0000      1.0079
  294   2 H    1      -1.920000   -7.220001   16.160000       1.0000      1.0079
  295   1 O    8       1.800000    6.000000   33.100002       6.0000     15.9994
  296   2 H    1       1.590000    7.040000   32.920002       1.0000      1.0079
  297   2 H    1       0.990000    5.520000   32.830002       1.0000      1.0079
  298   1 O    8      -0.570000   10.590000   20.770000       6.0000     15.9994
  299   2 H    1       0.200000   10.760001   20.120001       1.0000      1.0079
  300   2 H    1      -1.320000   10.840001   20.240002       1.0000      1.0079
  301   1 O    8       2.130000    4.280000   29.810001       6.0000     15.9994
  302   2 H    1       2.440000    3.850000   30.620001       1.0000      1.0079
  303   2 H    1       2.200000    3.620000   29.090002       1.0000      1.0079
  304   1 O    8       6.320000    5.210000    9.010000       6.0000     15.9994
  305   2 H    1       7.060000    4.610000    8.960000       1.0000      1.0079
  306   2 H    1       5.930000    5.160000    8.040000       1.0000      1.0079
  307   1 O    8      -6.380000   11.000000    9.790000       6.0000     15.9994
  308   2 H    1      -7.010000   11.260000    9.060000       1.0000      1.0079
  309   2 H    1      -6.620001   11.340000   10.680000       1.0000      1.0079
  310   1 O    8      -3.510000   21.490002   26.790001       6.0000     15.9994
  311   2 H    1      -2.700000   22.090000   26.790001       1.0000      1.0079
  312   2 H    1      -4.110000   21.950001   26.180000       1.0000      1.0079
  313   1 O    8       2.650000   13.470001   32.200005       6.0000     15.9994
  314   2 H    1       2.790000   12.520000   32.459999       1.0000      1.0079
  315   2 H    1       2.600000   14.000001   33.020000       1.0000      1.0079
  316   1 O    8      10.060000   -2.490000    8.260000       6.0000     15.9994
  317   2 H    1      10.970000   -2.480000    8.700001       1.0000      1.0079
  318   2 H    1       9.370001   -2.980000    8.850000       1.0000      1.0079
  319   1 O    8      -2.960000    9.690001    8.190001       6.0000     15.9994
  320   2 H    1      -2.500000    8.920000    8.760000       1.0000      1.0079
  321   2 H    1      -3.110000   10.640000    8.590000       1.0000      1.0079
  322   1 O    8      -2.540000    3.950000   16.940001       6.0000     15.9994
  323   2 H    1      -2.270000    3.660000   17.870001       1.0000      1.0079
  324   2 H    1      -3.340000    4.560000   16.970001       1.0000      1.0079
  325   1 O    8       5.590000    3.180000   28.750002       6.0000     15.9994
  326   2 H    1       6.200000    3.960000   28.910000       1.0000      1.0079
  327   2 H    1       5.260000    3.270000   27.860001       1.0000      1.0079
  328   1 O    8      -2.920000   16.130001   19.240002       6.0000     15.9994
  329   2 H    1      -3.490000   16.970001   19.100000       1.0000      1.0079
  330   2 H    1      -3.270000   15.770000   20.050001       1.0000      1.0079
  331   1 O    8      -5.850000    5.580000   32.099998       6.0000     15.9994
  332   2 H    1      -5.340000    6.130000   32.710003       1.0000      1.0079
  333   2 H    1      -6.800000    5.680000   32.230000       1.0000      1.0079
  334   1 O    8      -5.540000    3.140000   33.570000       6.0000     15.9994
  335   2 H    1      -6.390000    2.750000   33.450005       1.0000      1.0079
  336   2 H    1      -5.560000    4.000000   33.090004       1.0000      1.0079
  337   1 O    8       5.920000   12.670001   20.660000       6.0000     15.9994
  338   2 H    1      14.620000   -2.030000   21.610001       1.0000      1.0079
  339   2 H    1     -10.160000   12.190001   20.230000       1.0000      1.0079
  340   1 O    8      11.720000   18.820002   14.420000       6.0000     15.9994
  341   2 H    1      11.770000   19.710001   14.650001       1.0000      1.0079
  342   2 H    1      12.490001   18.810001   13.750001       1.0000      1.0079
  343   1 O    8      10.490000    7.580000   15.000001       6.0000     15.9994
  344   2 H    1       9.890000    6.910000   15.430001       1.0000      1.0079
  345   2 H    1      10.490000    8.330001   15.690001       1.0000      1.0079
  346   1 O    8       6.720000   -3.980000   26.310001       6.0000     15.9994
  347   2 H    1       6.590000   -3.420000   25.510002       1.0000      1.0079
  348   2 H    1       7.430000   -3.560000   26.890001       1.0000      1.0079
  349   1 O    8      15.420000    7.100000   13.240002       6.0000     15.9994
  350   2 H    1      15.950001    7.810000   12.790001       1.0000      1.0079
  351   2 H    1      14.570000    7.610001   13.210001       1.0000      1.0079
  352   1 O    8       3.510000    6.530001   16.120001       6.0000     15.9994
  353   2 H    1       4.290000    6.680000   16.660002       1.0000      1.0079
  354   2 H    1       3.150000    7.490000   15.870001       1.0000      1.0079
  355   1 O    8      -0.560000    2.010000   14.160000       6.0000     15.9994
  356   2 H    1      -0.580000    3.020000   14.200001       1.0000      1.0079
  357   2 H    1      -1.410000    1.670000   14.370001       1.0000      1.0079
  358   1 O    8      11.670000   14.550000   11.750001       6.0000     15.9994
  359   2 H    1      11.370001   14.190001   10.850000       1.0000      1.0079
  360   2 H    1      11.580001   13.790001   12.510000       1.0000      1.0079
  361   1 O    8      -3.110000   18.340000   32.200005       6.0000     15.9994
  362   2 H    1      -3.360000   19.310001   32.190002       1.0000      1.0079
  363   2 H    1      -2.990000   18.220001   33.209999       1.0000      1.0079
  364   1 O    8       1.080000    8.420001   32.370003       6.0000     15.9994
  365   2 H    1       1.700000    9.130000   32.630001       1.0000      1.0079
  366   2 H    1       1.260000    8.380001   31.350002       1.0000      1.0079
  367   1 O    8      -4.500000   16.670000   15.980000       6.0000     15.9994
  368   2 H    1      -4.860000   17.120001   15.150002       1.0000      1.0079
  369   2 H    1      -4.510000   15.680000   15.930000       1.0000      1.0079
  370   1 O    8     -10.260000   -2.970000   32.600002       6.0000     15.9994
  371   2 H    1     -10.150002   -2.770000   33.570000       1.0000      1.0079
  372   2 H    1     -10.040001   -3.920000   32.430004       1.0000      1.0079
  373   1 O    8      -4.270000   13.070001   29.440002       6.0000     15.9994
  374   2 H    1      -3.900000   13.990001   29.520000       1.0000      1.0079
  375   2 H    1      -5.030000   13.120001   30.050001       1.0000      1.0079
  376   1 O    8      -4.930000    5.860000   17.110001       6.0000     15.9994
  377   2 H    1      -5.650000    6.160001   16.520000       1.0000      1.0079
  378   2 H    1      -5.450000    5.460000   17.910002       1.0000      1.0079
  379   1 O    8       0.120000   -3.660000   28.330002       6.0000     15.9994
  380   2 H    1       0.600000   -4.510000   28.540001       1.0000      1.0079
  381   2 H    1       0.550000   -2.980000   28.890001       1.0000      1.0079
  382   1 O    8      -8.540000    2.170000   17.610001       6.0000     15.9994
  383   2 H    1      -9.190001    2.600000   16.990002       1.0000      1.0079
  384   2 H    1      -7.670000    2.450000   17.210001       1.0000      1.0079
  385   1 O    8      -0.280000   10.790000    9.360001       6.0000     15.9994
  386   2 H    1       0.330000   10.010000    9.440001       1.0000      1.0079
  387   2 H    1      -0.930000   10.590000    8.630000       1.0000      1.0079
  388   1 O    8      -1.950000    8.080000    9.820001       6.0000     15.9994
  389   2 H    1      -1.720000    8.370000   10.740000       1.0000      1.0079
  390   2 H    1      -1.340000    7.300000    9.650001       1.0000      1.0079
  391   1 O    8       8.140000   15.960001   10.100000       6.0000     15.9994
  392   2 H    1       8.610001   15.840001   10.990001       1.0000      1.0079
  393   2 H    1       7.200000   15.890001   10.440001       1.0000      1.0079
  394   1 O    8       1.170000   19.030001   28.650002       6.0000     15.9994
  395   2 H    1       9.470000    4.190001   27.680000       1.0000      1.0079
  396   2 H    1       1.670000   19.860001   28.630001       1.0000      1.0079
  397   1 O    8      -1.860000   12.470001   24.190002       6.0000     15.9994
  398   2 H    1      -1.080000   12.210001   23.630001       1.0000      1.0079
  399   2 H    1      -2.530000   12.560000   23.470001       1.0000      1.0079
  400   1 O    8      -8.210000    7.510000   25.750000       6.0000     15.9994
  401   2 H    1      -8.760000    8.210000   25.350000       1.0000      1.0079
  402   2 H    1      -8.140000    6.740000   25.100002       1.0000      1.0079
  403   1 O    8      13.120001   11.830001    9.420000       6.0000     15.9994
  404   2 H    1      12.160001   11.650001    9.450001       1.0000      1.0079
  405   2 H    1      13.370000   12.830001    9.350000       1.0000      1.0079
  406   1 O    8       4.380000    6.300001   32.190002       6.0000     15.9994
  407   2 H    1       3.460000    6.050000   32.600002       1.0000      1.0079
  408   2 H    1       4.310000    6.400001   31.170002       1.0000      1.0079
  409   1 O    8      16.870001    6.530001    8.940001       6.0000     15.9994
  410   2 H    1      16.800001    5.600000    9.260000       1.0000      1.0079
  411   2 H    1      16.660002    6.460000    7.980001       1.0000      1.0079
  412   1 O    8      -8.750001   -7.570000   18.680000       6.0000     15.9994
  413   2 H    1      -8.530001   -8.300000   18.020000       1.0000      1.0079
  414   2 H    1      -8.310000   -6.750000   18.320002       1.0000      1.0079
  415   1 O    8     -11.250000   14.190001    8.240001       6.0000     15.9994
  416   2 H    1     -11.860001   14.910001    8.510000       1.0000      1.0079
  417   2 H    1     -11.800001   13.320000    8.420001       1.0000      1.0079
  418   1 O    8      17.100000   23.700001   13.400001       6.0000     15.9994
  419   2 H    1      17.810001   23.200001   13.850001       1.0000      1.0079
  420   2 H    1      16.750000   24.310001   14.100000       1.0000      1.0079
  421   1 O    8      10.870000    4.320000    9.180000       6.0000     15.9994
  422   2 H    1      10.500001    5.150001    8.730000       1.0000      1.0079
  423   2 H    1      11.830001    4.280000    9.010000       1.0000      1.0079
  424   1 O    8       0.710000   15.880001   27.070000       6.0000     15.9994
  425   2 H    1       1.630000   16.210001   27.280003       1.0000      1.0079
  426   2 H    1       8.820001    1.010000   27.950001       1.0000      1.0079
  427   1 O    8       5.660000   19.750002   32.650002       6.0000     15.9994
  428   2 H    1       5.280000   20.690001   32.490002       1.0000      1.0079
  429   2 H    1       5.370000   19.720001   33.670002       1.0000      1.0079
  430   1 O    8     -11.570001   18.120001   28.290003       6.0000     15.9994
  431   2 H    1     -11.090001   18.380001   29.100000       1.0000      1.0079
  432   2 H    1     -10.900001   18.190001   27.530001       1.0000      1.0079
  433   1 O    8      -0.320000   -3.340000   20.030001       6.0000     15.9994
  434   2 H    1      -0.070000   -3.460000   20.930002       1.0000      1.0079
  435   2 H    1       0.240000   -2.620000   19.550001       1.0000      1.0079
  436   1 O    8     -14.700001    8.700001   12.940001       6.0000     15.9994
  437   2 H    1     -14.630001    8.870000   13.890000       1.0000      1.0079
  438   2 H    1      -5.570001   -6.540000   12.670001       1.0000      1.0079
  439   1 O    8       1.960000   -4.920000   17.030001       6.0000     15.9994
  440   2 H    1       1.820000   -5.660000   17.660000       1.0000      1.0079
  441   2 H    1       2.940000   -4.690000   17.060001       1.0000      1.0079
  442   1 O    8      -2.910000   -4.830000   12.910000       6.0000     15.9994
  443   2 H    1      -3.720000   -5.290000   12.580000       1.0000      1.0079
  444   2 H    1      -2.710000   -4.270000   12.070000       1.0000      1.0079
  445   1 O    8     -17.470001   -1.510000   13.030001       6.0000     15.9994
  446   2 H    1     -17.740000   -1.350000   13.910000       1.0000      1.0079
  447   2 H    1     -17.010000   -0.630000   12.730000       1.0000      1.0079
  448   1 O    8       1.510000    8.750001    9.130000       6.0000     15.9994
  449   2 H    1       0.870000    8.020000    9.090000       1.0000      1.0079
  450   2 H    1      18.770000    8.700001    8.190001       1.0000      1.0079
  451   1 O    8      -0.220000   13.590001   32.000000       6.0000     15.9994
  452   2 H    1       0.830000   13.410001   32.130001       1.0000      1.0079
  453   2 H    1      -0.690000   12.730000   32.220001       1.0000      1.0079
  454   1 O    8       2.710000    2.890000   32.459999       6.0000     15.9994
  455   2 H    1       2.200000    3.480000   32.990002       1.0000      1.0079
  456   2 H    1       3.660000    3.010000   32.690002       1.0000      1.0079
  457   1 O    8      -3.230000    7.550001   18.500002       6.0000     15.9994
  458   2 H    1      -3.700000    6.970000   17.850000       1.0000      1.0079
  459   2 H    1      -2.350000    7.200000   18.630001       1.0000      1.0079
  460   1 O    8      16.210001    4.580000   29.560001       6.0000     15.9994
  461   2 H    1      16.060001    5.580000   29.600000       1.0000      1.0079
  462   2 H    1       0.310000    4.490000   29.790001       1.0000      1.0079
  463   1 O    8      -6.950001  -14.370001   21.780003       6.0000     15.9994
  464   2 H    1      -7.080000  -15.070001   21.049999       1.0000      1.0079
  465   2 H    1      -7.340000  -13.480000   21.330002       1.0000      1.0079
  466   1 O    8       4.620000    2.210000    8.770000       6.0000     15.9994
  467   2 H    1       5.420001    2.090000    8.240001       1.0000      1.0079
  468   2 H    1       5.000000    2.210000    9.780001       1.0000      1.0079
  469   1 O    8     -13.880000    6.390000   23.950003       6.0000     15.9994
  470   2 H    1     -13.370000    5.580000   24.050003       1.0000      1.0079
  471   2 H    1     -14.550000    6.540000   24.770002       1.0000      1.0079
  472   1 O    8       4.370000    1.130000   29.940002       6.0000     15.9994
  473   2 H    1       3.550000    1.190000   29.490002       1.0000      1.0079
  474   2 H    1       4.940000    1.880000   29.700001       1.0000      1.0079
  475   1 O    8      12.600001   -2.600000   14.590001       6.0000     15.9994
  476   2 H    1      12.970000   -3.310000   14.080001       1.0000      1.0079
  477   2 H    1      12.710000   -2.950000   15.500001       1.0000      1.0079
  478   1 O    8     -16.090000   20.200001   23.950003       6.0000     15.9994
  479   2 H    1     -16.020000   19.430000   24.620001       1.0000      1.0079
  480   2 H    1     -15.210000   20.350000   23.549999       1.0000      1.0079
  481   1 O    8      10.410000   16.600000   28.180000       6.0000     15.9994
  482   2 H    1      10.170001   16.300001   27.290001       1.0000      1.0079
  483   2 H    1       9.650001   16.240002   28.780001       1.0000      1.0079
  484   1 O    8      -0.920000    8.160001   22.280003       6.0000     15.9994
  485   2 H    1      -0.700000    8.930000   21.650002       1.0000      1.0079
  486   2 H    1      -1.830000    7.860000   21.950001       1.0000      1.0079
  487   1 O    8      10.410000   26.390001   24.799999       6.0000     15.9994
  488   2 H    1       9.880000   27.020000   25.360001       1.0000      1.0079
  489   2 H    1      10.040001   26.480003   23.900002       1.0000      1.0079
  490   1 O    8      11.520000   12.810000   13.730000       6.0000     15.9994
  491   2 H    1      12.260000   12.290001   13.310001       1.0000      1.0079
  492   2 H    1      10.690001   12.260000   13.420000       1.0000      1.0079
  493   1 O    8      -0.040000    1.400000   32.290001       6.0000     15.9994
  494   2 H    1      -9.460000   15.690001   32.430004       1.0000      1.0079
  495   2 H    1      -0.100000    2.410000   32.440002       1.0000      1.0079
  496   1 O    8      -1.970000    1.800000   24.610003       6.0000     15.9994
  497   2 H    1     -10.540000   17.260000   25.030001       1.0000      1.0079
  498   2 H    1      -9.400001   16.320002   24.360001       1.0000      1.0079
  499   1 O    8       4.440001   12.840000   24.660000       6.0000     15.9994
  500   2 H    1       4.250000   13.610001   25.260000       1.0000      1.0079
  501   2 H    1       3.640000   12.270001   24.600000       1.0000      1.0079
  502   1 O    8      13.990001    1.110000   11.310000       6.0000     15.9994
  503   2 H    1      13.600000    0.530000   12.100000       1.0000      1.0079
  504   2 H    1      13.300000    1.110000   10.670000       1.0000      1.0079
  505   1 O    8      11.050000   -1.340000   10.860001       6.0000     15.9994
[...]
    899      3      Pt         -0.01508674     0.00297350     0.00358852
    900      3      Pt          0.00572433     0.00647201     0.00763939
    901      3      Pt          0.00140622    -0.01361889     0.00576134
    902      3      Pt          0.00964372    -0.02009086    -0.01261373
    903      3      Pt         -0.00090808    -0.01236024    -0.01511504
    904      3      Pt         -0.00616607    -0.00729959     0.00425377
    905      3      Pt          0.00180830    -0.01146423    -0.00582455
    906      3      Pt         -0.00447059    -0.00399152    -0.00986582
 SUM OF ATOMIC FORCES           0.01879626     0.01086566    -0.00464863     0.02220297

 STRESS| Analytical stress tensor [GPa]
 STRESS|                        x                   y                   z
 STRESS|      x       -2.66805478316E+00   3.22530388457E-02   2.01650263003E-01
 STRESS|      y        3.22530388457E-02  -2.53171415307E+00   1.91525077255E-01
 STRESS|      z        2.01650263003E-01   1.91525077255E-01  -7.10659777481E-01
 STRESS| 1/3 Trace                                            -1.97014290457E+00
 STRESS| Determinant                                          -4.59628417057E+00

 STRESS| Eigenvectors and eigenvalues of the analytical stress tensor [GPa]
 STRESS|                        1                   2                   3
 STRESS| Eigenvalues  -2.68976397570E+00  -2.55073897267E+00  -6.69925765344E-01
 STRESS|      x           0.991608905996      0.080028871213      0.101524171120
 STRESS|      y          -0.090540082715      0.990495504673      0.103542979700
 STRESS|      z          -0.092272807322     -0.111866147674      0.989429984402

 -------------------------------------------------------------------------------
 -                                                                             -
 -                                DBCSR STATISTICS                             -
 -                                                                             -
 -------------------------------------------------------------------------------
 COUNTER                                    TOTAL       BLAS       SMM       ACC
 flops     5 x     5 x   288          78769569600       0.0%    100.0%      0.0%
 flops     5 x     5 x   292          79863591400       0.0%    100.0%      0.0%
 flops    13 x     5 x   288          88760805120       0.0%    100.0%      0.0%
 flops     5 x    13 x   288          88807268160       0.0%    100.0%      0.0%
 flops    13 x     5 x   292          89993594080       0.0%    100.0%      0.0%
 flops     5 x    13 x   292          90040702440       0.0%    100.0%      0.0%
 flops    13 x    20 x   288          91264343040       0.0%    100.0%      0.0%
 flops    20 x    13 x   288          91450195200       0.0%    100.0%      0.0%
 flops    13 x    20 x   292          92531903360       0.0%    100.0%      0.0%
 flops    20 x    13 x   292          92720336800       0.0%    100.0%      0.0%
 flops    13 x    13 x   288          95229006912       0.0%    100.0%      0.0%
 flops    13 x    13 x   292          96551632008       0.0%    100.0%      0.0%
 flops    20 x     5 x   288          99683193600       0.0%    100.0%      0.0%
 flops     5 x    20 x   288          99721036800       0.0%    100.0%      0.0%
 flops    20 x     5 x   292         101067682400       0.0%    100.0%      0.0%
 flops     5 x    20 x   292         101106051200       0.0%    100.0%      0.0%
 flops    20 x    20 x   288         394174771200       0.0%    100.0%      0.0%
 flops    20 x    20 x   292         399649420800       0.0%    100.0%      0.0%
 flops     5 x     5 x   320         525130464000       0.0%    100.0%      0.0%
 flops    13 x     5 x   320         591738700800       0.0%    100.0%      0.0%
 flops     5 x    13 x   320         592048454400       0.0%    100.0%      0.0%
 flops    13 x    20 x   320         608428953600       0.0%    100.0%      0.0%
 flops    20 x    13 x   320         609667968000       0.0%    100.0%      0.0%
 flops    13 x    13 x   320         634860046080       0.0%    100.0%      0.0%
 flops    20 x     5 x   320         664554624000       0.0%    100.0%      0.0%
 flops     5 x    20 x   320         664806912000       0.0%    100.0%      0.0%
 flops    20 x    20 x   320        2627831808000       0.0%    100.0%      0.0%
 flops inhomo. stacks                           0       0.0%      0.0%      0.0%
 flops total                         9.790453E+12       0.0%    100.0%      0.0%
 flops max/rank                    158.856395E+09       0.0%    100.0%      0.0%
 matmuls inhomo. stacks                         0       0.0%      0.0%      0.0%
 matmuls total                          140671000       0.0%    100.0%      0.0%
 number of processed stacks                373760       0.0%    100.0%      0.0%
 average stack size                                     0.0     376.4       0.0
 marketing flops                    27.783380E+12
 -------------------------------------------------------------------------------
 # multiplications                             73
 max memory usage/rank               1.864823E+09
 # max total images/rank                        1
 # max 3D layers                                1
 # MPI messages exchanged                   65408
 MPI messages size (bytes):
  total size                       196.428333E+09
  min size                           2.762496E+06
  max size                           3.077120E+06
  average size                       3.003124E+06
 MPI breakdown and total messages size (bytes):
             size <=      128                   0                        0
       128 < size <=     8192                   0                        0
      8192 < size <=    32768                   0                        0
     32768 < size <=   131072                   0                        0
    131072 < size <=  4194304               65408             196428400000
   4194304 < size <= 16777216                   0                        0
  16777216 < size                               0                        0
 -------------------------------------------------------------------------------
 -                                                                             -
 -                      DBCSR MESSAGE PASSING PERFORMANCE                      -
 -                                                                             -
 -------------------------------------------------------------------------------
 ROUTINE             CALLS      AVE VOLUME [Bytes]
 MP_Bcast               28                     12.
 MP_Allreduce          585                     10.
 MP_Alltoall          2044                1991301.
 MP_ISend             2336                1329597.
 MP_IRecv             2336                1310413.
 -------------------------------------------------------------------------------

 -------------------------------------------------------------------------------
 -                                                                             -
 -                                DBM STATISTICS                               -
 -                                                                             -
 -------------------------------------------------------------------------------
    M  x    N  x    K                                          COUNT     PERCENT
 -------------------------------------------------------------------------------

 -------------------------------------------------------------------------------
 -                                                                             -
 -                                GRID STATISTICS                              -
 -                                                                             -
 -------------------------------------------------------------------------------
 LP    KERNEL             BACKEND                              COUNT     PERCENT
 3     collocate general  REF                               50873481      18.95%
 3     integrate general  REF                               50234568      18.71%
 2     collocate general  REF                               47489274      17.69%
 2     integrate general  REF                               46838736      17.45%
 4     collocate general  REF                               35738756      13.31%
 4     integrate general  REF                               35249184      13.13%
 6     integrate general  REF                                 696897       0.26%
 5     integrate general  REF                                 650538       0.24%
 7     integrate general  REF                                 489572       0.18%
 0     collocate general  REF                                 115968       0.04%
 0     integrate general  REF                                  57984       0.02%
 -------------------------------------------------------------------------------

 MEMORY| Estimated peak process memory [MiB]                                2101

 -------------------------------------------------------------------------------
 ----                             MULTIGRID INFO                            ----
 -------------------------------------------------------------------------------
 count for grid        1:         731150          cutoff [a.u.]          200.00
 count for grid        2:         807201          cutoff [a.u.]           66.67
 count for grid        3:         740840          cutoff [a.u.]           22.22
 count for grid        4:         830957          cutoff [a.u.]            7.41
 total gridlevel count  :        3110148

 -------------------------------------------------------------------------------
 -                                                                             -
 -                         MESSAGE PASSING PERFORMANCE                         -
 -                                                                             -
 -------------------------------------------------------------------------------

 ROUTINE             CALLS      AVE VOLUME [Bytes]
 MP_Group                4
 MP_Bcast              246                2399859.
 MP_Allreduce         1277                   1958.
 MP_Sync                76
 MP_Alltoall          1622               13392275.
 MP_SendRecv           252                  13722.
 MP_ISendRecv        18396                 113680.
 MP_Wait             41188
 MP_ISend            21312                 340325.
 MP_IRecv            21312                 340325.
 MP_Recv               308                2460160.
 MP_Write_All            3                1540656.
 -------------------------------------------------------------------------------


 -------------------------------------------------------------------------------
 -                                                                             -
 -                           R E F E R E N C E S                               -
 -                                                                             -
 -------------------------------------------------------------------------------
 
 CP2K version 2022.1, the CP2K developers group (2022).
 CP2K is freely available from https://www.cp2k.org/ .

 Kuehne,Thomas D.; Iannuzzi,Marcella; Del Ben,Mauro;
 Rybkin,Vladimir V.; Seewald,Patrick; Stein,Frederick; Laino,Teodoro;
 Khaliullin,Rustam Z.; Schuett,Ole; Schiffmann,Florian; Golze,Dorothea;
 Wilhelm,Jan; Chulkov,Sergey; Bani-Hashemian,Mohammad Hossein;
 Weber,Valery; Borstnik,Urban; Taillefumier,Mathieu;
 Jakobovits,Alice Shoshana; Lazzaro,Alfio; Pabst,Hans; Mueller,Tiziano;
 Schade,Robert; Guidon,Manuel; Andermatt,Samuel; Holmberg,Nico;
 Schenter,Gregory K.; Hehn,Anna; Bussy,Augustin; Belleflamme,Fabian;
 Tabacchi,Gloria; Gloess,Andreas; Lass,Michael; Bethune,Iain;
 Mundy,Christopher J.; Plessl,Christian; Watkins,Matt;
 VandeVondele,Joost; Krack,Matthias; Hutter,Juerg. 
 The Journal of Chemical Physics, 152 (19), (2020). 
 CP2K: An electronic structure and molecular dynamics software package -
 Quickstep: Efficient and accurate electronic structure calculations.
 https://doi.org/10.1063/5.0007045

 Goerigk, Lars; Hansen, Andreas; Bauer, Christoph; Ehrlich, Stephan;
 Najibi, Asim; Grimme, Stefan. , 19 (48), (2017). 
 A look at the density functional theory zoo with the advanced GMTKN55 database
 for general main group thermochemistry, kinetics and noncovalent interactions.
 https://doi.org/10.1039/C7CP04913G

 Schuett, Ole; Messmer, Peter; Hutter, Juerg; VandeVondele, Joost. 
 Electronic Structure Calculations on Graphics Processing Units, John
 Wiley & Sons, Ltd, 173-190 (2016). 
 GPU-Accelerated Sparse Matrix-Matrix Multiplication for
 Linear Scaling Density Functional Theory.
 https://doi.org/10.1002/9781118670712.ch8

 Heinecke, A; Henry, G; Hutchinson, M; Pabst, H. 
 Proceedings of Intl. Supercomputing Conference, 981-991 (2016). 
 LIBXSMM: Accelerating Small Matrix Multiplications
 by Runtime Code Generation.
 https://doi.org/10.1109/SC.2016.83

 Borstnik, U; VandeVondele, J; Weber, V; Hutter, J. 
 PARALLEL COMPUTING, 40 (5-6), 47-58 (2014). 
 Sparse matrix multiplication: The distributed block-compressed sparse
 row library.
 https://doi.org/10.1016/j.parco.2014.03.012

 Hutter, J; Iannuzzi, M; Schiffmann, F; VandeVondele, J. 
 WIREs Comput Mol Sci., 4 (1), 15-25 (2014). 
 CP2K: atomistic simulations of condensed matter systems.
 https://doi.org/10.1002/wcms.1159

 Marek, A; Blum, V; Johanni, R; Havu, V; Lang, B; Auckenthaler, T;
 Heinecke, A; Bungartz, H; Lederer, H. 
 Journal of Physics: Condensed Matter, 26 (21), (2014). 
 The ELPA library: scalable parallel eigenvalue solutions for
 electronic structure
 theory and computational science.
 https://doi.org/10.1088/0953-8984/26/21/213201

 Grimme, S; Ehrlich, S; Goerigk, L. 
 JOURNAL OF COMPUTATIONAL CHEMISTRY, 32, 1456 (2011). 
 Effect of the damping function in dispersion corrected density functional theory.
 https://doi.org/10.1002/jcc.21759

 Grimme, S; Antony, J; Ehrlich, S; Krieg, H. 
 JOURNAL OF CHEMICAL PHYSICS, 132 (15), 154104 (2010). 
 A consistent and accurate ab initio parametrization of density
 functional dispersion correction (DFT-D) for the 94 elements H-Pu.
 https://doi.org/10.1063/1.3382344

 VandeVondele, J; Hutter, J. 
 JOURNAL OF CHEMICAL PHYSICS, 127 (11), 114105 (2007). 
 Gaussian basis sets for accurate calculations on molecular systems in
 gas and condensed phases.
 https://doi.org/10.1063/1.2770708

 Krack, M. 
 THEORETICAL CHEMISTRY ACCOUNTS, 114 (1-3), 145-152 (2005). 
 Pseudopotentials for H to Kr optimized for gradient-corrected
 exchange-correlation functionals.
 https://doi.org/10.1007/s00214-005-0655-y

 VandeVondele, J; Krack, M; Mohamed, F; Parrinello, M; Chassaing, T;
 Hutter, J. COMPUTER PHYSICS COMMUNICATIONS, 167 (2), 103-128 (2005). 
 QUICKSTEP: Fast and accurate density functional calculations using a
 mixed Gaussian and plane waves approach.
 https://doi.org/10.1016/j.cpc.2004.12.014

 Frigo, M; Johnson, SG. 
 PROCEEDINGS OF THE IEEE, 93 (2), 216-231 (2005). 
 The design and implementation of FFTW3.
 https://doi.org/10.1109/JPROC.2004.840301

 Hartwigsen, C; Goedecker, S; Hutter, J. 
 PHYSICAL REVIEW B, 58 (7), 3641-3662 (1998). 
 Relativistic separable dual-space Gaussian pseudopotentials from H to Rn.
 https://doi.org/10.1103/PhysRevB.58.3641

 Lippert, G; Hutter, J; Parrinello, M. 
 MOLECULAR PHYSICS, 92 (3), 477-487 (1997). 
 A hybrid Gaussian and plane wave density functional scheme.
 https://doi.org/10.1080/002689797170220

 Perdew, JP; Burke, K; Ernzerhof, M. 
 PHYSICAL REVIEW LETTERS, 77 (18), 3865-3868 (1996). 
 Generalized gradient approximation made simple.
 https://doi.org/10.1103/PhysRevLett.77.3865

 Goedecker, S; Teter, M; Hutter, J. 
 PHYSICAL REVIEW B, 54 (3), 1703-1710 (1996). 
 Separable dual-space Gaussian pseudopotentials.
 https://doi.org/10.1103/PhysRevB.54.1703


 -------------------------------------------------------------------------------
 -                                                                             -
 -                                T I M I N G                                  -
 -                                                                             -
 -------------------------------------------------------------------------------
 SUBROUTINE                       CALLS  ASD         SELF TIME        TOTAL TIME
                                MAXIMUM       AVERAGE  MAXIMUM  AVERAGE  MAXIMUM
 CP2K                                 1  1.0    0.026    0.044  864.516  864.519
 qs_forces                            1  2.0    0.002    0.003  864.123  864.125
 qs_energies                          1  3.0    0.000    0.000  851.708  851.717
 scf_env_do_scf                       1  4.0    0.000    0.000  843.413  843.653
 scf_env_do_scf_inner_loop           72  5.0    0.004    0.012  843.413  843.653
 qs_scf_new_mos                      72  6.0    0.006    0.013  343.697  344.130
 eigensolver                         72  7.0    0.006    0.011  319.471  319.805
 rebuild_ks_matrix                   73  7.0    0.000    0.000  267.211  267.253
 qs_ks_build_kohn_sham_matrix        73  8.0    0.011    0.013  267.211  267.253
 qs_ks_update_qs_env                 72  6.0    0.001    0.001  259.236  259.279
 qs_rho_update_rho_low               73  6.0    0.001    0.001  227.902  227.928
 calculate_rho_elec                  73  7.0    0.171    0.200  227.902  227.927
 sum_up_and_integrate                73  9.0    0.309    0.398  224.361  224.407
 integrate_v_rspace                  73 10.0    0.003    0.003  224.051  224.142
 grid_collocate_task_list            73  8.0  200.410  205.332  200.410  205.332
 grid_integrate_task_list            73 11.0  195.640  200.663  195.640  200.663
 cp_fm_diag_elpa                     72  8.0    0.001    0.001  187.729  188.198
 cp_fm_diag_elpa_base                72  9.0  184.870  185.554  187.433  187.500
 cp_fm_triangular_multiply          216  8.0  129.084  130.693  129.084  130.693
 pw_transfer                       1460 10.9    0.104    0.141   40.480   41.399
 fft_wrap_pw1pw2                   1314 12.0    0.013    0.016   40.019   40.899
 rs_pw_transfer                     588 10.5    0.007    0.007   35.339   40.477
 fft_wrap_pw1pw2_200                876 13.3    3.589    3.921   38.558   39.343
 qs_vxc_create                       73  9.0    0.002    0.003   37.771   38.003
 xc_vxc_pw_create                    73 10.0    0.672    0.705   37.769   38.001
 fft3d_ps                          1314 14.0   14.515   16.312   29.525   30.669
 density_rs2pw                       73  8.0    0.005    0.005   25.187   30.207
 xc_pw_derive                       438 12.0    0.007    0.008   24.055   25.255
 xc_rho_set_and_dset_create          73 11.0    0.354    0.380   20.324   21.669
 potential_pw2rs                     73 11.0    0.027    0.032   21.031   21.105
 mp_waitany                       21312 12.4   15.106   20.773   15.106   20.773
 rs_pw_transfer_RS2PW_200            75 10.0    4.747    5.195   14.076   19.149
 calculate_dm_sparse                 72  7.0    0.023    0.029   17.663   18.320
 cp_dbcsr_plus_fm_fm_t_native        73  8.0    0.003    0.007   17.624   18.298
 -------------------------------------------------------------------------------

 The number of warnings for this run is : 1
 
 -------------------------------------------------------------------------------
  **** **** ******  **  PROGRAM ENDED AT                 2023-11-26 19:57:06.195
 ***** ** ***  *** **   PROGRAM RAN ON                                     cu054
 **    ****   ******    PROGRAM RAN BY                                     jxzhu
 ***** **    ** ** **   PROGRAM PROCESS ID                                  3966
  **** **  *******  **  PROGRAM STOPPED IN /public/home/jxzhu/tmp_calc/af2075565
                                           805657d94fa4669dad6f4b174b0a4fb/calc/
                                           000400.000/pbc
