 DBCSR| CPU Multiplication driver                                           XSMM
 DBCSR| Multrec recursion limit                                              512
 DBCSR| Multiplication stack size                                           1000
 DBCSR| Maximum elements for images                                    UNLIMITED
 DBCSR| Multiplicative factor virtual images                                   1
 DBCSR| Use multiplication densification                                       T
 DBCSR| Multiplication size stacks                                             3
 DBCSR| Use memory pool for CPU allocation                                     F
 DBCSR| Number of 3D layers                                               SINGLE
 DBCSR| Use MPI memory allocation                                              F
 DBCSR| Use RMA algorithm                                                      F
 DBCSR| Use Communication thread                                               T
 DBCSR| Communication thread load                                             87
 DBCSR| MPI: My node id                                                        0
 DBCSR| MPI: Number of nodes                                                 128
 DBCSR| OMP: Current number of threads                                         1
 DBCSR| OMP: Max number of threads                                             1
 DBCSR| Split modifier for TAS multiplication algorithm                  1.0E+00


  **** **** ******  **  PROGRAM STARTED AT               2023-12-02 23:13:00.317
 ***** ** ***  *** **   PROGRAM STARTED ON                                 cu104
 **    ****   ******    PROGRAM STARTED BY                                 jxzhu
 ***** **    ** ** **   PROGRAM PROCESS ID                                 39834
  **** **  *******  **  PROGRAM STARTED IN /public/home/jxzhu/tmp_calc/0dbf3bba2
                                           e3ebccde1816fef6b44fcfa8de8ef46/calc/
                                           002200.000/search_hi.000000

 CP2K| version string:                                       CP2K version 2022.1
 CP2K| source code revision number:                                  git:2caeb6f
 CP2K| cp2kflags: omp libint fftw3 libxc elpa parallel mpi3 scalapack cosma xsmm
 CP2K|             plumed2 spglib mkl sirius libvori libbqb
 CP2K| is freely available from                            https://www.cp2k.org/
 CP2K| Program compiled at                           Mon Jul 3 17:37:06 CST 2023
 CP2K| Program compiled on                                                 mu003
 CP2K| Program compiled for                                                local
 CP2K| Data directory path                             /public/home/jxzhu/basis/
 CP2K| Input file name                                                 input.inp
 
 GLOBAL| Force Environment number                                              1
 GLOBAL| Basis set file name                                        BASIS_MOLOPT
 GLOBAL| Potential file name                                      GTH_POTENTIALS
 GLOBAL| MM Potential file name                                     MM_POTENTIAL
 GLOBAL| Coordinate file name                                          coord.xyz
 GLOBAL| Method name                                                        CP2K
 GLOBAL| Project name                                                       cp2k
 GLOBAL| Run type                                                   ENERGY_FORCE
 GLOBAL| FFT library                                                       FFTW3
 GLOBAL| Diagonalization library                                            ELPA
 GLOBAL| Minimum number of eigenvectors for ELPA usage                        16
 GLOBAL| Orthonormality check for eigenvectors                          DISABLED
 GLOBAL| Matrix multiplication library                                     COSMA
 GLOBAL| All-to-all communication in single precision                          F
 GLOBAL| FFTs using library dependent lengths                                  T
 GLOBAL| Grid backend                                                       AUTO
 GLOBAL| Global print level                                               MEDIUM
 GLOBAL| MPI I/O enabled                                                       T
 GLOBAL| Total number of message passing processes                           128
 GLOBAL| Number of threads for this process                                    1
 GLOBAL| This output is from process                                           0
 GLOBAL| Stack size for threads created by OpenMP (OMP_STACKSIZE)        default
 GLOBAL| CPU model name                 Intel(R) Xeon(R) Gold 6338 CPU @ 2.00GHz
 GLOBAL| CPUID                                                              1003

 MEMORY| system memory details [Kb]
 MEMORY|                        rank 0           min           max       average
 MEMORY| MemTotal            263619172     263619172     263619172     263619172
 MEMORY| MemFree             216580984     216580984     220562212     218570877
 MEMORY| Buffers                  3320          3320          3320          3320
 MEMORY| Cached                1315336       1101504       1315336       1208441
 MEMORY| Slab                  1326976       1187712       1326976       1257544
 MEMORY| SReclaimable           243948        238740        243948        241494
 MEMORY| MemLikelyFree       218143588     218143588     221905776     220024132


 *** Fundamental physical constants (SI units) ***

 *** Literature: B. J. Mohr and B. N. Taylor,
 ***             CODATA recommended values of the fundamental physical
 ***             constants: 2006, Web Version 5.1
 ***             http://physics.nist.gov/constants

 Speed of light in vacuum [m/s]                             2.99792458000000E+08
 Magnetic constant or permeability of vacuum [N/A**2]       1.25663706143592E-06
 Electric constant or permittivity of vacuum [F/m]          8.85418781762039E-12
 Planck constant (h) [J*s]                                  6.62606896000000E-34
 Planck constant (h-bar) [J*s]                              1.05457162825177E-34
 Elementary charge [C]                                      1.60217648700000E-19
 Electron mass [kg]                                         9.10938215000000E-31
 Electron g factor [ ]                                     -2.00231930436220E+00
 Proton mass [kg]                                           1.67262163700000E-27
 Fine-structure constant                                    7.29735253760000E-03
 Rydberg constant [1/m]                                     1.09737315685270E+07
 Avogadro constant [1/mol]                                  6.02214179000000E+23
 Boltzmann constant [J/K]                                   1.38065040000000E-23
 Atomic mass unit [kg]                                      1.66053878200000E-27
 Bohr radius [m]                                            5.29177208590000E-11

 *** Conversion factors ***

 [u] -> [a.u.]                                              1.82288848426455E+03
 [Angstrom] -> [Bohr] = [a.u.]                              1.88972613288564E+00
 [a.u.] = [Bohr] -> [Angstrom]                              5.29177208590000E-01
 [a.u.] -> [s]                                              2.41888432650478E-17
 [a.u.] -> [fs]                                             2.41888432650478E-02
 [a.u.] -> [J]                                              4.35974393937059E-18
 [a.u.] -> [N]                                              8.23872205491840E-08
 [a.u.] -> [K]                                              3.15774647902944E+05
 [a.u.] -> [kJ/mol]                                         2.62549961709828E+03
 [a.u.] -> [kcal/mol]                                       6.27509468713739E+02
 [a.u.] -> [Pa]                                             2.94210107994716E+13
 [a.u.] -> [bar]                                            2.94210107994716E+08
 [a.u.] -> [atm]                                            2.90362800883016E+08
 [a.u.] -> [eV]                                             2.72113838565563E+01
 [a.u.] -> [Hz]                                             6.57968392072181E+15
 [a.u.] -> [1/cm] (wave numbers)                            2.19474631370540E+05
 [a.u./Bohr**2] -> [1/cm]                                   5.14048714338585E+03
 

 CELL_TOP| Volume [angstrom^3]:                                     17614.982639
 CELL_TOP| Vector a [angstrom    16.869     0.000     0.000   |a| =    16.869000
 CELL_TOP| Vector b [angstrom    -8.434    14.609     0.000   |b| =    16.869015
 CELL_TOP| Vector c [angstrom     0.000     0.000    71.478   |c| =    71.478000
 CELL_TOP| Angle (b,c), alpha [degree]:                                90.000000
 CELL_TOP| Angle (a,c), beta  [degree]:                                90.000000
 CELL_TOP| Angle (a,b), gamma [degree]:                               119.999970
 CELL_TOP| Numerically orthorhombic:                                          NO
 
 GENERATE|  Preliminary Number of Bonds generated:                             0
 GENERATE|  Achieved consistency in connectivity generation.

 CELL| Volume [angstrom^3]:                                         17614.982639
 CELL| Vector a [angstrom]:      16.869     0.000     0.000   |a| =    16.869000
 CELL| Vector b [angstrom]:      -8.434    14.609     0.000   |b| =    16.869015
 CELL| Vector c [angstrom]:       0.000     0.000    71.478   |c| =    71.478000
 CELL| Angle (b,c), alpha [degree]:                                    90.000000
 CELL| Angle (a,c), beta  [degree]:                                    90.000000
 CELL| Angle (a,b), gamma [degree]:                                   119.999970
 CELL| Numerically orthorhombic:                                              NO

 CELL_REF| Volume [angstrom^3]:                                     17614.982639
 CELL_REF| Vector a [angstrom    16.869     0.000     0.000   |a| =    16.869000
 CELL_REF| Vector b [angstrom    -8.434    14.609     0.000   |b| =    16.869015
 CELL_REF| Vector c [angstrom     0.000     0.000    71.478   |c| =    71.478000
 CELL_REF| Angle (b,c), alpha [degree]:                                90.000000
 CELL_REF| Angle (a,c), beta  [degree]:                                90.000000
 CELL_REF| Angle (a,b), gamma [degree]:                               119.999970
 CELL_REF| Numerically orthorhombic:                                          NO

 *******************************************************************************
 *******************************************************************************
 **                                                                           **
 **     #####                         ##              ##                      **
 **    ##   ##            ##          ##              ##                      **
 **   ##     ##                       ##            ######                    **
 **   ##     ##  ##   ##  ##   #####  ##  ##   ####   ##    #####    #####    **
 **   ##     ##  ##   ##  ##  ##      ## ##   ##      ##   ##   ##  ##   ##   **
 **   ##  ## ##  ##   ##  ##  ##      ####     ###    ##   ######   ######    **
 **    ##  ###   ##   ##  ##  ##      ## ##      ##   ##   ##       ##        **
 **     #######   #####   ##   #####  ##  ##  ####    ##    #####   ##        **
 **           ##                                                    ##        **
 **                                                                           **
 **                                                ... make the atoms dance   **
 **                                                                           **
 **            Copyright (C) by CP2K developers group (2000-2022)             **
 **                      J. Chem. Phys. 152, 194103 (2020)                    **
 **                                                                           **
 *******************************************************************************

 DFT| Spin restricted Kohn-Sham (RKS) calculation                            RKS
 DFT| Multiplicity                                                             1
 DFT| Number of spin states                                                    1
 DFT| Charge                                                                   0
 DFT| Self-interaction correction (SIC)                                       NO
 DFT| Cutoffs: density                                              1.000000E-10
 DFT|          gradient                                             1.000000E-10
 DFT|          tau                                                  1.000000E-10
 DFT|          cutoff_smoothing_range                               0.000000E+00
 DFT| XC density smoothing                                                  NONE
 DFT| XC derivatives                                                          PW

 FUNCTIONAL| PBE:
 FUNCTIONAL| J.P.Perdew, K.Burke, M.Ernzerhof, Phys. Rev. Letter, vol. 77, n 18,
 FUNCTIONAL|  pp. 3865-3868, (1996){spin unpolarized}                           

 vdW POTENTIAL|                                                   Pair Potential
 vdW POTENTIAL|          DFT-D3 (Version 3.1)
 vdW POTENTIAL|          Potential Form: S. Grimme et al, JCP 132: 154104 (2010)
 vdW POTENTIAL|          Zero Damping
 vdW POTENTIAL|          Cutoff Radius [Bohr]:                             20.00
 vdW POTENTIAL|          s6 Scaling Factor:                               1.0000
 vdW POTENTIAL|          sr6 Scaling Factor:                              1.2170
 vdW POTENTIAL|          s8 Scaling Factor:                               0.7220
 vdW POTENTIAL|          Cutoff for CN calculation:                   0.1000E-05

 QS| Method:                                                                 GPW
 QS| Density plane wave grid type                        NON-SPHERICAL FULLSPACE
 QS| Number of grid levels:                                                    4
 QS| Density cutoff [a.u.]:                                                200.0
 QS| Multi grid cutoff [a.u.]: 1) grid level                               200.0
 QS|                           2) grid level                                66.7
 QS|                           3) grid level                                22.2
 QS|                           4) grid level                                 7.4
 QS| Grid level progression factor:                                          3.0
 QS| Relative density cutoff [a.u.]:                                        20.0
 QS| Interaction thresholds: eps_pgf_orb:                                3.2E-07
 QS|                         eps_filter_matrix:                          0.0E+00
 QS|                         eps_core_charge:                            1.0E-15
 QS|                         eps_rho_gspace:                             1.0E-13
 QS|                         eps_rho_rspace:                             1.0E-13
 QS|                         eps_gvg_rspace:                             3.2E-07
 QS|                         eps_ppl:                                    1.0E-02
 QS|                         eps_ppnl:                                   3.2E-09


 ATOMIC KIND INFORMATION

  1. Atomic kind: O                                     Number of atoms:      97

     Orbital Basis Set                                        DZVP-MOLOPT-SR-GTH

       Number of orbital shell sets:                                           1
       Number of orbital shells:                                               5
       Number of primitive Cartesian functions:                                5
       Number of Cartesian basis functions:                                   14
       Number of spherical basis functions:                                   13
       Norm type:                                                              2

       Normalised Cartesian orbitals:

                        Set   Shell   Orbital            Exponent    Coefficient

                          1       1    2s               10.389228       0.396646
                                                         3.849621       0.208811
                                                         1.388401      -0.301641
                                                         0.496955      -0.274061
                                                         0.162492      -0.033677

                          1       2    3s               10.389228       0.303673
                                                         3.849621       0.240943
                                                         1.388401      -0.313066
                                                         0.496955      -0.043055
                                                         0.162492       0.213991

                          1       3    3px              10.389228      -1.530415
                                                         3.849621      -1.371928
                                                         1.388401      -0.761951
                                                         0.496955      -0.253695
                                                         0.162492      -0.035541
                          1       3    3py              10.389228      -1.530415
                                                         3.849621      -1.371928
                                                         1.388401      -0.761951
                                                         0.496955      -0.253695
                                                         0.162492      -0.035541
                          1       3    3pz              10.389228      -1.530415
                                                         3.849621      -1.371928
                                                         1.388401      -0.761951
                                                         0.496955      -0.253695
                                                         0.162492      -0.035541

                          1       4    4px              10.389228      -0.565392
                                                         3.849621      -0.038231
                                                         1.388401      -0.382373
                                                         0.496955       0.179070
                                                         0.162492       0.122714
                          1       4    4py              10.389228      -0.565392
                                                         3.849621      -0.038231
                                                         1.388401      -0.382373
                                                         0.496955       0.179070
                                                         0.162492       0.122714
                          1       4    4pz              10.389228      -0.565392
                                                         3.849621      -0.038231
                                                         1.388401      -0.382373
                                                         0.496955       0.179070
                                                         0.162492       0.122714

                          1       5    4dx2             10.389228       1.867377
                                                         3.849621       0.670994
                                                         1.388401       1.353441
                                                         0.496955       0.273538
                                                         0.162492       0.006620
                          1       5    4dxy             10.389228       3.234392
                                                         3.849621       1.162195
                                                         1.388401       2.344229
                                                         0.496955       0.473781
                                                         0.162492       0.011466
                          1       5    4dxz             10.389228       3.234392
                                                         3.849621       1.162195
                                                         1.388401       2.344229
                                                         0.496955       0.473781
                                                         0.162492       0.011466
                          1       5    4dy2             10.389228       1.867377
                                                         3.849621       0.670994
                                                         1.388401       1.353441
                                                         0.496955       0.273538
                                                         0.162492       0.006620
                          1       5    4dyz             10.389228       3.234392
                                                         3.849621       1.162195
                                                         1.388401       2.344229
                                                         0.496955       0.473781
                                                         0.162492       0.011466
                          1       5    4dz2             10.389228       1.867377
                                                         3.849621       0.670994
                                                         1.388401       1.353441
                                                         0.496955       0.273538
                                                         0.162492       0.006620

       Atomic covalent radius [Angstrom]:                                  0.730

       Atomic van der Waals radius [Angstrom]:                             1.520

     GTH Potential information for                                    GTH-PBE-q6

       Description:                       Goedecker-Teter-Hutter pseudopotential
                                           Goedecker et al., PRB 54, 1703 (1996)
                                          Hartwigsen et al., PRB 58, 3641 (1998)
                                                      Krack, TCA 114, 145 (2005)

       Gaussian exponent of the core charge distribution:               8.360253
       Electronic configuration (s p d ...):                               2   4

       Parameters of the local part of the GTH pseudopotential:

                          rloc        C1          C2          C3          C4
                        0.244554  -16.667215    2.487311

       Parameters of the non-local part of the GTH pseudopotential:

                   l      r(l)      h(i,j,l)

                   0    0.220956   18.337458
                   1    0.211332

  2. Atomic kind: H                                     Number of atoms:     194

     Orbital Basis Set                                        DZVP-MOLOPT-SR-GTH

       Number of orbital shell sets:                                           1
       Number of orbital shells:                                               3
       Number of primitive Cartesian functions:                                5
       Number of Cartesian basis functions:                                    5
       Number of spherical basis functions:                                    5
       Norm type:                                                              2

       Normalised Cartesian orbitals:

                        Set   Shell   Orbital            Exponent    Coefficient

                          1       1    2s               10.068468      -0.133023
                                                         2.680223      -0.177618
                                                         0.791502      -0.258419
                                                         0.239116      -0.107525
                                                         0.082193      -0.014019

                          1       2    3s               10.068468       0.344673
                                                         2.680223       1.819821
                                                         0.791502      -0.999069
                                                         0.239116       0.017430
                                                         0.082193       0.082660

                          1       3    3px              10.068468       0.155326
                                                         2.680223       0.367157
                                                         0.791502       0.311480
                                                         0.239116       0.080105
                                                         0.082193       0.033440
                          1       3    3py              10.068468       0.155326
                                                         2.680223       0.367157
                                                         0.791502       0.311480
                                                         0.239116       0.080105
                                                         0.082193       0.033440
                          1       3    3pz              10.068468       0.155326
                                                         2.680223       0.367157
                                                         0.791502       0.311480
                                                         0.239116       0.080105
                                                         0.082193       0.033440

       Atomic covalent radius [Angstrom]:                                  0.320

       Atomic van der Waals radius [Angstrom]:                             1.090

     GTH Potential information for                                    GTH-PBE-q1

       Description:                       Goedecker-Teter-Hutter pseudopotential
                                           Goedecker et al., PRB 54, 1703 (1996)
                                          Hartwigsen et al., PRB 58, 3641 (1998)
                                                      Krack, TCA 114, 145 (2005)

       Gaussian exponent of the core charge distribution:              12.500000
       Electronic configuration (s p d ...):                                   1

       Parameters of the local part of the GTH pseudopotential:

                          rloc        C1          C2          C3          C4
                        0.200000   -4.178900    0.724463

  3. Atomic kind: Pt                                    Number of atoms:     216

     Orbital Basis Set                      DZVP-A5-Q10-323-MOL-T1-DERIVED_SET-1

       Number of orbital shell sets:                                           1
       Number of orbital shells:                                               6
       Number of primitive Cartesian functions:                                5
       Number of Cartesian basis functions:                                   23
       Number of spherical basis functions:                                   20
       Norm type:                                                              2

       Normalised Cartesian orbitals:

                        Set   Shell   Orbital            Exponent    Coefficient

                          1       1    2s                2.521825       0.177473
                                                         1.453920      -0.063399
                                                         0.614053      -0.407089
                                                         0.232656       0.262254
                                                         0.074788       0.047371

                          1       2    3s                2.521825      -0.049056
                                                         1.453920       0.044904
                                                         0.614053      -0.009756
                                                         0.232656      -0.144709
                                                         0.074788       0.144085

                          1       3    3px               2.521825      -0.317572
                                                         1.453920       0.534826
                                                         0.614053      -0.489458
                                                         0.232656       0.245631
                                                         0.074788       0.018221
                          1       3    3py               2.521825      -0.317572
                                                         1.453920       0.534826
                                                         0.614053      -0.489458
                                                         0.232656       0.245631
                                                         0.074788       0.018221
                          1       3    3pz               2.521825      -0.317572
                                                         1.453920       0.534826
                                                         0.614053      -0.489458
                                                         0.232656       0.245631
                                                         0.074788       0.018221

                          1       4    4dx2              2.521825       3.008522
                                                         1.453920      -1.224251
                                                         0.614053       0.225691
                                                         0.232656       0.125144
                                                         0.074788      -0.015348
                          1       4    4dxy              2.521825       5.210912
                                                         1.453920      -2.120465
                                                         0.614053       0.390909
                                                         0.232656       0.216756
                                                         0.074788      -0.026584
                          1       4    4dxz              2.521825       5.210912
                                                         1.453920      -2.120465
                                                         0.614053       0.390909
                                                         0.232656       0.216756
                                                         0.074788      -0.026584
                          1       4    4dy2              2.521825       3.008522
                                                         1.453920      -1.224251
                                                         0.614053       0.225691
                                                         0.232656       0.125144
                                                         0.074788      -0.015348
                          1       4    4dyz              2.521825       5.210912
                                                         1.453920      -2.120465
                                                         0.614053       0.390909
                                                         0.232656       0.216756
                                                         0.074788      -0.026584
                          1       4    4dz2              2.521825       3.008522
                                                         1.453920      -1.224251
                                                         0.614053       0.225691
                                                         0.232656       0.125144
                                                         0.074788      -0.015348

                          1       5    5dx2              2.521825       0.698026
                                                         1.453920      -1.511486
                                                         0.614053      -0.335394
                                                         0.232656      -0.025564
                                                         0.074788      -0.002699
                          1       5    5dxy              2.521825       1.209017
                                                         1.453920      -2.617970
                                                         0.614053      -0.580920
                                                         0.232656      -0.044277
                                                         0.074788      -0.004674
                          1       5    5dxz              2.521825       1.209017
                                                         1.453920      -2.617970
                                                         0.614053      -0.580920
                                                         0.232656      -0.044277
                                                         0.074788      -0.004674
                          1       5    5dy2              2.521825       0.698026
                                                         1.453920      -1.511486
                                                         0.614053      -0.335394
                                                         0.232656      -0.025564
                                                         0.074788      -0.002699
                          1       5    5dyz              2.521825       1.209017
                                                         1.453920      -2.617970
                                                         0.614053      -0.580920
                                                         0.232656      -0.044277
                                                         0.074788      -0.004674
                          1       5    5dz2              2.521825       0.698026
                                                         1.453920      -1.511486
                                                         0.614053      -0.335394
                                                         0.232656      -0.025564
                                                         0.074788      -0.002699

                          1       6    6dx2              2.521825       0.831079
                                                         1.453920      -0.709226
                                                         0.614053      -0.137351
                                                         0.232656       0.068642
                                                         0.074788       0.011745
                          1       6    6dxy              2.521825       1.439472
                                                         1.453920      -1.228415
                                                         0.614053      -0.237899
                                                         0.232656       0.118891
                                                         0.074788       0.020343
                          1       6    6dxz              2.521825       1.439472
                                                         1.453920      -1.228415
                                                         0.614053      -0.237899
                                                         0.232656       0.118891
                                                         0.074788       0.020343
                          1       6    6dy2              2.521825       0.831079
                                                         1.453920      -0.709226
                                                         0.614053      -0.137351
                                                         0.232656       0.068642
                                                         0.074788       0.011745
                          1       6    6dyz              2.521825       1.439472
                                                         1.453920      -1.228415
                                                         0.614053      -0.237899
                                                         0.232656       0.118891
                                                         0.074788       0.020343
                          1       6    6dz2              2.521825       0.831079
                                                         1.453920      -0.709226
                                                         0.614053      -0.137351
                                                         0.232656       0.068642
                                                         0.074788       0.011745

       Atomic covalent radius [Angstrom]:                                  1.300

       Atomic van der Waals radius [Angstrom]:                             1.750

     GTH Potential information for                                   GTH-PBE-q10

       Description:                       Goedecker-Teter-Hutter pseudopotential
                                           Goedecker et al., PRB 54, 1703 (1996)
                                          Hartwigsen et al., PRB 58, 3641 (1998)
                                                      Krack, TCA 114, 145 (2005)

       Gaussian exponent of the core charge distribution:               1.317676
       Electronic configuration (s p d ...):                           1   0   9

       Parameters of the local part of the GTH pseudopotential:

                          rloc        C1          C2          C3          C4
                        0.616000   11.313635

       Parameters of the non-local part of the GTH pseudopotential:

                   l      r(l)      h(i,j,l)

                   0    0.550904    4.733491   -1.784594
                                   -1.784594    2.303901
                   1    0.674138    2.534798   -1.778066
                                   -1.778066    2.103836
                   2    0.457392   -7.264011    2.558665
                                    2.558665   -2.901253


 MOLECULE KIND INFORMATION


 All atoms are their own molecule, skipping detailed information


 TOTAL NUMBERS AND MAXIMUM NUMBERS

  Total number of            - Atomic kinds:                                   3
                             - Atoms:                                        507
                             - Shell sets:                                   507
                             - Shells:                                      2363
                             - Primitive Cartesian functions:               2535
                             - Cartesian basis functions:                   7296
                             - Spherical basis functions:                   6551

  Maximum angular momentum of- Orbital basis functions:                        2
                             - Local part of the GTH pseudopotential:          2
                             - Non-local part of the GTH pseudopotential:      4


 MODULE QUICKSTEP:  ATOMIC COORDINATES IN angstrom

 Atom  Kind  Element       X           Y           Z          Z(eff)       Mass
    1   1 O    8      16.340000  -32.099998   38.167999       6.0000     15.9994
    2   2 H    1      16.950001  -32.500004   37.527999       1.0000      1.0079
    3   2 H    1      16.020000  -32.930000   38.647998       1.0000      1.0079
    4   1 O    8     -12.580000    9.480001   32.677999       6.0000     15.9994
    5   2 H    1     -12.770000   10.180000   31.987998       1.0000      1.0079
    6   2 H    1     -11.850000    9.800000   33.247999       1.0000      1.0079
    7   1 O    8     -19.850002  -13.720001   32.557998       6.0000     15.9994
    8   2 H    1     -19.660000  -14.380001   33.228000       1.0000      1.0079
    9   2 H    1     -20.370003  -13.040000   33.087999       1.0000      1.0079
   10   1 O    8      -2.370000  -10.920000   29.798000       6.0000     15.9994
   11   2 H    1      -1.850000  -11.050000   28.947997       1.0000      1.0079
   12   2 H    1      -1.790000  -11.220001   30.527997       1.0000      1.0079
   13   1 O    8       4.020000   25.090000   31.648000       6.0000     15.9994
   14   2 H    1       3.470000   24.320002   31.537998       1.0000      1.0079
   15   2 H    1       4.630000   25.320000   30.898000       1.0000      1.0079
   16   1 O    8     -16.190001   24.430000   33.897998       6.0000     15.9994
   17   2 H    1     -15.980000   25.310001   33.328000       1.0000      1.0079
   18   2 H    1     -15.520000   23.710001   33.638000       1.0000      1.0079
   19   1 O    8       6.780000  -15.280001   36.748000       6.0000     15.9994
   20   2 H    1       5.830000  -15.140000   37.097999       1.0000      1.0079
   21   2 H    1       7.120000  -16.080000   37.238000       1.0000      1.0079
   22   1 O    8     -17.490002   46.950001   31.518001       6.0000     15.9994
   23   2 H    1     -17.260000   47.770004   32.057998       1.0000      1.0079
   24   2 H    1      -0.430000   46.090004   32.057998       1.0000      1.0079
   25   1 O    8      -6.780000   -3.580000   37.687999       6.0000     15.9994
   26   2 H    1     -15.690001   11.740000   38.328000       1.0000      1.0079
   27   2 H    1      -6.600000   -4.420000   38.208000       1.0000      1.0079
   28   1 O    8      -4.780000   21.740000   36.667999       6.0000     15.9994
   29   2 H    1      -4.000000   22.330000   36.787999       1.0000      1.0079
   30   2 H    1      -4.980001   21.910002   35.717998       1.0000      1.0079
   31   1 O    8     -28.540001   -1.370000   29.927997       6.0000     15.9994
   32   2 H    1     -28.440001   -1.060000   28.937999       1.0000      1.0079
   33   2 H    1     -27.800003   -1.880000   30.227996       1.0000      1.0079
   34   1 O    8     -22.800003   12.910000   30.087997       6.0000     15.9994
   35   2 H    1     -31.400002   27.180002   31.047998       1.0000      1.0079
   36   2 H    1     -21.860001   13.130001   30.127998       1.0000      1.0079
   37   1 O    8      -8.260000    4.900000   33.317998       6.0000     15.9994
   38   2 H    1      -8.720000    4.410000   34.097999       1.0000      1.0079
   39   2 H    1      -7.320001    4.860000   33.568000       1.0000      1.0079
   40   1 O    8     -33.840000   16.330002   35.917999       6.0000     15.9994
   41   2 H    1     -34.560001   15.930000   36.418001       1.0000      1.0079
   42   2 H    1     -33.880001   16.020000   34.947999       1.0000      1.0079
   43   1 O    8      -4.370000    2.400000   32.738000       6.0000     15.9994
   44   2 H    1      -3.430000    2.370000   33.097999       1.0000      1.0079
   45   2 H    1      -4.860000    1.520000   32.878000       1.0000      1.0079
   46   1 O    8     -32.420002   21.060001   30.638000       6.0000     15.9994
   47   2 H    1     -33.390003   20.990002   30.338001       1.0000      1.0079
   48   2 H    1     -32.000000   20.170002   30.647998       1.0000      1.0079
   49   1 O    8      -8.260000   -1.580000   38.728000       6.0000     15.9994
   50   2 H    1      -8.760000   -1.970000   37.947999       1.0000      1.0079
   51   2 H    1      -8.710001   -2.050000   39.527999       1.0000      1.0079
   52   1 O    8     -32.220001  -21.000002   38.087999       6.0000     15.9994
   53   2 H    1     -31.410000  -21.360001   37.668001       1.0000      1.0079
   54   2 H    1     -32.220001  -21.500000   38.948001       1.0000      1.0079
   55   1 O    8      38.990002   -8.370000   32.898000       6.0000     15.9994
   56   2 H    1      38.300003   -9.050000   33.068000       1.0000      1.0079
   57   2 H    1      39.060001   -7.850000   33.777999       1.0000      1.0079
   58   1 O    8       4.720000   -3.060000   37.787998       6.0000     15.9994
   59   2 H    1       4.390000   -2.990000   38.737998       1.0000      1.0079
   60   2 H    1       4.260000   -3.950000   37.507999       1.0000      1.0079
   61   1 O    8     -53.230003    6.350000   38.728000       6.0000     15.9994
   62   2 H    1     -35.590004    6.130000   38.017999       1.0000      1.0079
   63   2 H    1     -36.850002    7.110000   38.347999       1.0000      1.0079
   64   1 O    8       6.510000  -19.290001   39.388000       6.0000     15.9994
   65   2 H    1       5.630000  -18.990000   39.117999       1.0000      1.0079
   66   2 H    1       6.430000  -19.560001   40.317998       1.0000      1.0079
   67   1 O    8      -7.100000   23.970001   29.638000       6.0000     15.9994
   68   2 H    1      -7.560000   24.620001   29.047996       1.0000      1.0079
   69   2 H    1      -7.970000   23.580000   29.987998       1.0000      1.0079
   70   1 O    8       6.990001   -2.370000   36.537998       6.0000     15.9994
   71   2 H    1       7.480001   -3.190000   36.337999       1.0000      1.0079
   72   2 H    1       6.260000   -2.790000   37.097999       1.0000      1.0079
   73   1 O    8     -22.450001   21.890001   33.927999       6.0000     15.9994
   74   2 H    1     -22.070000   22.770002   33.677999       1.0000      1.0079
   75   2 H    1     -21.830002   21.180000   33.588001       1.0000      1.0079
   76   1 O    8      22.500000    8.600000   30.027999       6.0000     15.9994
   77   2 H    1      23.170002    7.900000   30.157996       1.0000      1.0079
   78   2 H    1      22.130001    8.730000   30.947997       1.0000      1.0079
   79   1 O    8      30.380001    7.980001   35.168001       6.0000     15.9994
   80   2 H    1      30.620001    8.690001   34.458000       1.0000      1.0079
   81   2 H    1      31.240002    7.890000   35.597999       1.0000      1.0079
   82   1 O    8     -16.350000   29.770002   29.708000       6.0000     15.9994
   83   2 H    1     -16.220001   29.500000   28.798000       1.0000      1.0079
   84   2 H    1     -15.470000   29.540003   30.048000       1.0000      1.0079
   85   1 O    8       1.790000   -4.140000   29.127998       6.0000     15.9994
   86   2 H    1       0.760000   -4.150000   29.458000       1.0000      1.0079
   87   2 H    1       2.200000   -3.240000   29.237998       1.0000      1.0079
   88   1 O    8      -5.420001   34.070000   33.708000       6.0000     15.9994
   89   2 H    1      -5.020000   33.110001   33.607999       1.0000      1.0079
   90   2 H    1      -5.280000   34.240002   34.687999       1.0000      1.0079
   91   1 O    8      -1.860000    2.610000   33.708000       6.0000     15.9994
   92   2 H    1      -9.890000   18.010002   33.247999       1.0000      1.0079
   93   2 H    1      -2.230000    2.990000   34.608001       1.0000      1.0079
   94   1 O    8      17.950001   -2.380000   32.668001       6.0000     15.9994
   95   2 H    1      17.160000   -1.910000   32.297998       1.0000      1.0079
   96   2 H    1      18.580000   -1.820000   33.187999       1.0000      1.0079
   97   1 O    8      14.600000    4.370000   36.237998       6.0000     15.9994
   98   2 H    1      15.410002    4.920000   36.448001       1.0000      1.0079
   99   2 H    1      13.780001    4.810000   36.527999       1.0000      1.0079
  100   1 O    8     -14.340000   27.490002   36.917999       6.0000     15.9994
  101   2 H    1     -14.780001   26.560001   36.787999       1.0000      1.0079
  102   2 H    1     -13.410001   27.220001   37.108001       1.0000      1.0079
  103   1 O    8       2.340000  -14.570000   32.638000       6.0000     15.9994
  104   2 H    1       2.820000  -15.170001   33.347999       1.0000      1.0079
  105   2 H    1       2.540000  -14.910001   31.767999       1.0000      1.0079
  106   1 O    8     -11.170001  -12.380000   37.878000       6.0000     15.9994
  107   2 H    1     -11.070000  -11.570001   37.257999       1.0000      1.0079
  108   2 H    1     -11.930000  -12.930001   37.478000       1.0000      1.0079
  109   1 O    8      33.700001    0.810000   35.157998       6.0000     15.9994
  110   2 H    1      33.110001    1.450000   34.648000       1.0000      1.0079
  111   2 H    1      33.049999    0.250000   35.628000       1.0000      1.0079
  112   1 O    8      24.670000   -6.970000   35.487998       6.0000     15.9994
  113   2 H    1      25.140001   -6.060000   35.677999       1.0000      1.0079
  114   2 H    1      24.980001   -7.480001   34.648000       1.0000      1.0079
  115   1 O    8      11.170001   13.530001   34.128000       6.0000     15.9994
  116   2 H    1      11.070000   13.450001   35.147998       1.0000      1.0079
  117   2 H    1      12.120000   13.530001   33.967998       1.0000      1.0079
  118   1 O    8      -8.270000   21.119999   33.187999       6.0000     15.9994
  119   2 H    1      -8.310000   20.160000   32.957998       1.0000      1.0079
  120   2 H    1      -7.350000   21.370001   33.377998       1.0000      1.0079
  121   1 O    8       1.550000    0.080000   38.597999       6.0000     15.9994
  122   2 H    1       1.760000   -0.630000   37.937999       1.0000      1.0079
  123   2 H    1       1.350000    0.830000   38.027999       1.0000      1.0079
  124   1 O    8     -16.960001   15.720000   33.167999       6.0000     15.9994
  125   2 H    1     -17.680000   15.180001   32.817998       1.0000      1.0079
  126   2 H    1     -15.980000   15.210000   32.947999       1.0000      1.0079
  127   1 O    8       1.640000  -10.830001   30.138000       6.0000     15.9994
  128   2 H    1       0.790000  -11.180000   30.548000       1.0000      1.0079
  129   2 H    1       1.320000  -10.559999   29.237998       1.0000      1.0079
  130   1 O    8     -18.630001   50.740005   32.987998       6.0000     15.9994
  131   2 H    1     -17.889999   50.100002   33.258001       1.0000      1.0079
  132   2 H    1     -18.600002   51.390003   33.747999       1.0000      1.0079
  133   1 O    8      -7.540000  -10.210000   39.347999       6.0000     15.9994
  134   2 H    1      -8.130000  -10.550001   40.057998       1.0000      1.0079
  135   2 H    1      -6.600000  -10.270000   39.797998       1.0000      1.0079
  136   1 O    8      11.120001   28.530003   29.997997       6.0000     15.9994
  137   2 H    1      20.020000   14.760000   29.757999       1.0000      1.0079
  138   2 H    1      -5.120000   27.860001   30.117999       1.0000      1.0079
  139   1 O    8       6.440001    0.640000   37.557998       6.0000     15.9994
  140   2 H    1       6.550000   -0.320000   37.507999       1.0000      1.0079
  141   2 H    1       6.530001    0.880000   38.477998       1.0000      1.0079
  142   1 O    8      -1.900000   -4.810000   34.447999       6.0000     15.9994
  143   2 H    1      -0.920000   -4.860000   34.107997       1.0000      1.0079
  144   2 H    1      -1.940000   -5.140000   35.338001       1.0000      1.0079
  145   1 O    8       3.720000    2.780000   33.888000       6.0000     15.9994
  146   2 H    1       2.900000    2.310000   33.638000       1.0000      1.0079
  147   2 H    1       3.900000    2.640000   34.878000       1.0000      1.0079
  148   1 O    8      -4.070000   20.070002   32.617999       6.0000     15.9994
  149   2 H    1      -3.940000   19.320000   33.187999       1.0000      1.0079
  150   2 H    1      -3.240000   20.610001   32.677999       1.0000      1.0079
  151   1 O    8     -33.020000    1.180000   32.587999       6.0000     15.9994
  152   2 H    1     -32.260002    0.830000   32.097999       1.0000      1.0079
  153   2 H    1     -32.910000    0.990000   33.537999       1.0000      1.0079
  154   1 O    8     -16.710001   -8.050001   37.197997       6.0000     15.9994
  155   2 H    1     -16.600000   -9.010000   36.837999       1.0000      1.0079
  156   2 H    1     -16.970001   -8.280001   38.158000       1.0000      1.0079
  157   1 O    8      -4.180000   -3.200000   30.708000       6.0000     15.9994
  158   2 H    1      -4.190001   -3.710000   29.897998       1.0000      1.0079
  159   2 H    1      -3.280000   -2.800000   30.667999       1.0000      1.0079
  160   1 O    8      -0.570000  -10.330000   35.947997       6.0000     15.9994
  161   2 H    1      -0.580000  -11.340000   35.817998       1.0000      1.0079
  162   2 H    1      -1.480000  -10.020000   36.147998       1.0000      1.0079
  163   1 O    8      13.450001   19.320000   36.818000       6.0000     15.9994
  164   2 H    1      13.020000   20.200001   36.678001       1.0000      1.0079
  165   2 H    1      12.840000   18.540001   36.827998       1.0000      1.0079
  166   1 O    8      21.040001   49.350006   29.088001       6.0000     15.9994
  167   2 H    1      21.590002   48.500004   29.097999       1.0000      1.0079
  168   2 H    1      21.850002   49.980003   29.337997       1.0000      1.0079
  169   1 O    8      12.600001    0.010000   37.187999       6.0000     15.9994
  170   2 H    1      12.190001   -0.230000   36.348001       1.0000      1.0079
  171   2 H    1      11.870001    0.030000   37.878000       1.0000      1.0079
  172   1 O    8     -21.800001    9.440001   36.908000       6.0000     15.9994
  173   2 H    1     -21.119999    9.130000   36.218000       1.0000      1.0079
  174   2 H    1     -22.110003    8.540000   37.338001       1.0000      1.0079
  175   1 O    8      -4.910000    4.690000   36.458000       6.0000     15.9994
  176   2 H    1      -4.990000    5.590000   36.908000       1.0000      1.0079
  177   2 H    1      -5.480001    4.170000   37.038001       1.0000      1.0079
  178   1 O    8     -13.400001    3.030000   29.158000       6.0000     15.9994
  179   2 H    1     -13.750001    3.980000   29.498000       1.0000      1.0079
  180   2 H    1     -12.420001    3.140000   29.218002       1.0000      1.0079
  181   1 O    8      -6.870000  -26.580002   37.568000       6.0000     15.9994
  182   2 H    1      -6.530001  -27.460001   37.908000       1.0000      1.0079
  183   2 H    1      -7.660000  -26.880001   37.027999       1.0000      1.0079
  184   1 O    8       9.950001   25.590000   33.588001       6.0000     15.9994
  185   2 H    1      10.450001   24.930000   33.068000       1.0000      1.0079
  186   2 H    1      17.590000   11.230000   33.107999       1.0000      1.0079
  187   1 O    8       5.750000    4.280000   39.237998       6.0000     15.9994
  188   2 H    1       5.840001    4.940000   39.917999       1.0000      1.0079
  189   2 H    1       5.470000    4.600000   38.328000       1.0000      1.0079
  190   1 O    8       3.780000   16.500000   29.958000       6.0000     15.9994
  191   2 H    1       3.980000   16.570000   30.937999       1.0000      1.0079
  192   2 H    1       3.010000   17.160000   29.908000       1.0000      1.0079
  193   1 O    8     -10.400001   12.750001   30.087997       6.0000     15.9994
  194   2 H    1     -10.100000   13.330001   30.907998       1.0000      1.0079
  195   2 H    1     -10.370001   13.200001   29.147998       1.0000      1.0079
  196   1 O    8      20.270002   13.140000   34.417999       6.0000     15.9994
  197   2 H    1      19.650002   12.420001   34.487998       1.0000      1.0079
  198   2 H    1      21.220001   12.820001   34.187999       1.0000      1.0079
  199   1 O    8       0.020000    5.920000   29.767997       6.0000     15.9994
  200   2 H    1      -0.170000    5.850000   28.827998       1.0000      1.0079
  201   2 H    1       1.020000    5.930000   29.818000       1.0000      1.0079
  202   1 O    8       9.650001  -18.650002   36.348001       6.0000     15.9994
  203   2 H    1      10.460000  -19.170000   36.497999       1.0000      1.0079
  204   2 H    1       9.380000  -19.000000   35.437999       1.0000      1.0079
  205   1 O    8      -8.720000  -11.590000   29.917999       6.0000     15.9994
  206   2 H    1      -8.180000  -11.070000   29.337997       1.0000      1.0079
  207   2 H    1      -8.360001  -12.510000   29.888000       1.0000      1.0079
  208   1 O    8      20.889999    2.380000   36.588001       6.0000     15.9994
  209   2 H    1      19.940001    2.260000   36.767999       1.0000      1.0079
  210   2 H    1      21.500000    1.720000   37.008001       1.0000      1.0079
  211   1 O    8       3.040000    1.070000   31.047998       6.0000     15.9994
  212   2 H    1      -5.120000   16.260000   30.287998       1.0000      1.0079
  213   2 H    1       3.840000    0.630000   31.337999       1.0000      1.0079
  214   1 O    8      15.910001   11.780001   32.318000       6.0000     15.9994
  215   2 H    1       7.160000   25.710001   32.978000       1.0000      1.0079
  216   2 H    1       7.300000   25.920000   31.497999       1.0000      1.0079
  217   1 O    8      -4.140000   -3.320000   39.178001       6.0000     15.9994
  218   2 H    1      -3.910000   -2.560000   39.808000       1.0000      1.0079
  219   2 H    1      -4.870000   -3.040000   38.647998       1.0000      1.0079
  220   1 O    8     -41.670002   27.130001   29.077998       6.0000     15.9994
  221   2 H    1     -41.920006   28.030003   29.548000       1.0000      1.0079
  222   2 H    1     -40.660000   27.110003   29.117999       1.0000      1.0079
  223   1 O    8       7.270000   13.740001   32.318000       6.0000     15.9994
  224   2 H    1       7.830000   14.580001   32.437999       1.0000      1.0079
  225   2 H    1       6.640000   13.650000   33.117999       1.0000      1.0079
  226   1 O    8      14.120001  -25.940001   29.057998       6.0000     15.9994
  227   2 H    1      14.900002  -26.170002   29.647998       1.0000      1.0079
  228   2 H    1      13.430000  -26.639999   29.298000       1.0000      1.0079
  229   1 O    8       7.950000   -8.850000   37.227998       6.0000     15.9994
  230   2 H    1       8.650001   -8.880001   37.917999       1.0000      1.0079
  231   2 H    1       8.080000   -8.040000   36.678001       1.0000      1.0079
  232   1 O    8     -10.600000    8.360001   37.097999       6.0000     15.9994
  233   2 H    1     -10.430001    8.740000   38.007999       1.0000      1.0079
  234   2 H    1     -10.130000    7.510000   37.208000       1.0000      1.0079
  235   1 O    8      -6.230001   29.360001   39.097999       6.0000     15.9994
  236   2 H    1      -6.870000   28.730001   38.827998       1.0000      1.0079
  237   2 H    1      -6.540000   29.610003   39.987998       1.0000      1.0079
  238   1 O    8      16.630001   14.750000   30.057998       6.0000     15.9994
  239   2 H    1      16.940001   15.270000   29.288001       1.0000      1.0079
  240   2 H    1      15.730000   15.010000   30.237998       1.0000      1.0079
  241   1 O    8      37.000004    7.690001   29.167999       6.0000     15.9994
  242   2 H    1      36.270000    8.310000   29.358001       1.0000      1.0079
  243   2 H    1      37.940002    8.120001   29.358001       1.0000      1.0079
  244   1 O    8       2.410000   -6.410000   32.537999       6.0000     15.9994
  245   2 H    1       2.990000   -6.940000   33.077998       1.0000      1.0079
  246   2 H    1       1.940000   -7.070000   31.937999       1.0000      1.0079
  247   1 O    8      -1.110000    8.510000   31.757999       6.0000     15.9994
  248   2 H    1      -0.470000    7.820001   32.027999       1.0000      1.0079
  249   2 H    1      -1.630000    7.830000   31.107999       1.0000      1.0079
  250   1 O    8       0.160000    4.020000   32.338001       6.0000     15.9994
  251   2 H    1      -8.340000   18.280001   31.367999       1.0000      1.0079
  252   2 H    1       0.380000    3.150000   32.738000       1.0000      1.0079
  253   1 O    8     -19.360001   -1.980000   34.277999       6.0000     15.9994
  254   2 H    1     -19.250000   -1.590000   35.168001       1.0000      1.0079
  255   2 H    1     -19.100000   -2.970000   34.408000       1.0000      1.0079
  256   1 O    8       6.030001   -8.030001   30.548000       6.0000     15.9994
  257   2 H    1       5.900001   -8.230000   31.497999       1.0000      1.0079
  258   2 H    1       6.920000   -8.330001   30.327998       1.0000      1.0079
  259   1 O    8     -14.160000    5.310000   30.127998       6.0000     15.9994
  260   2 H    1     -13.740001    6.080000   29.617999       1.0000      1.0079
  261   2 H    1     -13.640001    5.380001   30.968000       1.0000      1.0079
  262   1 O    8      -8.880001   10.420000   30.138000       6.0000     15.9994
  263   2 H    1      -9.700001    9.830000   29.827998       1.0000      1.0079
  264   2 H    1      -9.280001   11.360001   30.248000       1.0000      1.0079
  265   1 O    8     -10.940001   24.420002   33.517997       6.0000     15.9994
  266   2 H    1     -10.380001   23.920002   32.847999       1.0000      1.0079
  267   2 H    1     -11.770000   24.660000   32.998000       1.0000      1.0079
  268   1 O    8      19.720001   22.750000   29.037998       6.0000     15.9994
  269   2 H    1      19.010002   22.120001   29.407996       1.0000      1.0079
  270   2 H    1      19.410002   23.630001   29.267997       1.0000      1.0079
  271   1 O    8      -7.030000   17.220001   36.777999       6.0000     15.9994
  272   2 H    1      -7.450001   17.750000   37.507999       1.0000      1.0079
  273   2 H    1      -7.630000   16.600000   36.218000       1.0000      1.0079
  274   1 O    8      11.220001   36.350002   37.857997       6.0000     15.9994
  275   2 H    1      11.050000   36.370003   38.857999       1.0000      1.0079
  276   2 H    1      10.320001   36.270000   37.478000       1.0000      1.0079
  277   1 O    8       1.530000   18.710001   39.768001       6.0000     15.9994
  278   2 H    1       1.390000   18.050001   38.988000       1.0000      1.0079
  279   2 H    1       2.510000   18.700001   39.968000       1.0000      1.0079
  280   1 O    8       7.150001    6.480000   29.857997       6.0000     15.9994
  281   2 H    1     -10.150002    5.560000   29.888000       1.0000      1.0079
  282   2 H    1       7.360001    6.610000   28.877998       1.0000      1.0079
  283   1 O    8       5.730000   27.920000   34.137998       6.0000     15.9994
  284   2 H    1       6.030001   27.210003   33.558000       1.0000      1.0079
  285   2 H    1       6.180000   27.740002   34.978000       1.0000      1.0079
  286   1 O    8     -16.690001    9.940001   35.937999       6.0000     15.9994
  287   2 H    1     -16.270000   10.160000   35.068000       1.0000      1.0079
  288   2 H    1     -16.049999    9.990001   36.678001       1.0000      1.0079
  289   1 O    8      -1.890000   10.500001   30.187999       6.0000     15.9994
  290   2 H    1      -1.530000    9.590000   30.097999       1.0000      1.0079
  291   2 H    1      -1.840000   10.900001   29.307998       1.0000      1.0079
  292   3 Pt  78       1.540000    0.770000   26.818000      10.0000    195.0840
  293   3 Pt  78       4.350000    0.760000   26.977996      10.0000    195.0840
  294   3 Pt  78       7.160000    0.690000   26.958000      10.0000    195.0840
  295   3 Pt  78      10.090000    0.720000   26.677997      10.0000    195.0840
  296   3 Pt  78      12.890000    0.690000   26.658000      10.0000    195.0840
  297   3 Pt  78      15.590000    0.700000   26.718002      10.0000    195.0840
  298   3 Pt  78       2.930000    3.210000   26.958000      10.0000    195.0840
  299   3 Pt  78       5.780000    3.200000   26.747997      10.0000    195.0840
  300   3 Pt  78       8.610001    3.030000   26.708000      10.0000    195.0840
  301   3 Pt  78      11.460000    3.240000   26.677997      10.0000    195.0840
  302   3 Pt  78      14.340000    3.250000   26.858001      10.0000    195.0840
  303   3 Pt  78       0.180000    3.210000   26.747997      10.0000    195.0840
  304   3 Pt  78       4.430000    5.590000   26.837997      10.0000    195.0840
  305   3 Pt  78       7.260000    5.540000   26.697997      10.0000    195.0840
  306   3 Pt  78       9.960001    5.560000   26.617999      10.0000    195.0840
  307   3 Pt  78      12.630000    5.690000   26.907996      10.0000    195.0840
  308   3 Pt  78      -1.280000    5.680000   26.827998      10.0000    195.0840
  309   3 Pt  78       1.540000    5.660000   26.747997      10.0000    195.0840
  310   3 Pt  78       5.840001    8.000000   26.788001      10.0000    195.0840
  311   3 Pt  78       8.540000    8.050001   26.777999      10.0000    195.0840
  312   3 Pt  78      11.410000    8.080000   26.897998      10.0000    195.0840
  313   3 Pt  78      -2.640000    7.990000   26.917999      10.0000    195.0840
  314   3 Pt  78       0.110000    8.050001   26.827998      10.0000    195.0840
  315   3 Pt  78       3.130000    8.160001   26.767997      10.0000    195.0840
  316   3 Pt  78       7.190001   10.390000   26.907996      10.0000    195.0840
  317   3 Pt  78       9.920000   10.540000   26.977996      10.0000    195.0840
  318   3 Pt  78      -3.990000   10.580001   26.897998      10.0000    195.0840
  319   3 Pt  78      -1.210000   10.470000   26.777999      10.0000    195.0840
  320   3 Pt  78       1.580000   10.450001   26.687999      10.0000    195.0840
  321   3 Pt  78       4.450000   10.500001   26.928001      10.0000    195.0840
  322   3 Pt  78       8.490001   12.890000   26.877998      10.0000    195.0840
  323   3 Pt  78      -5.550000   13.020000   26.897998      10.0000    195.0840
  324   3 Pt  78      -2.610000   12.970000   26.937999      10.0000    195.0840
  325   3 Pt  78       0.310000   12.860001   26.867999      10.0000    195.0840
  326   3 Pt  78       3.100000   12.940001   26.867999      10.0000    195.0840
  327   3 Pt  78       5.720000   12.810000   26.777999      10.0000    195.0840
  328   3 Pt  78       0.180000    1.650000   24.428001      10.0000    195.0840
  329   3 Pt  78       3.050000    1.530000   24.557998      10.0000    195.0840
  330   3 Pt  78       5.890000    1.490000   24.537998      10.0000    195.0840
  331   3 Pt  78       8.580000    1.370000   24.487998      10.0000    195.0840
  332   3 Pt  78      11.460000    1.520000   24.388000      10.0000    195.0840
  333   3 Pt  78      14.270000    1.700000   24.448001      10.0000    195.0840
  334   3 Pt  78       1.710000    4.010000   24.467998      10.0000    195.0840
  335   3 Pt  78       4.540000    4.010000   24.527999      10.0000    195.0840
  336   3 Pt  78       7.300000    3.980000   24.358001      10.0000    195.0840
  337   3 Pt  78      10.020000    3.880000   24.327998      10.0000    195.0840
  338   3 Pt  78      12.860001    4.080000   24.377998      10.0000    195.0840
  339   3 Pt  78      -1.150000    4.090000   24.557998      10.0000    195.0840
  340   3 Pt  78       3.070000    6.390000   24.487998      10.0000    195.0840
  341   3 Pt  78       5.790000    6.470000   24.498000      10.0000    195.0840
  342   3 Pt  78       8.680000    6.290000   24.428001      10.0000    195.0840
  343   3 Pt  78      11.500001    6.420000   24.487998      10.0000    195.0840
  344   3 Pt  78      -2.640000    6.460000   24.507999      10.0000    195.0840
  345   3 Pt  78       0.310000    6.540000   24.388000      10.0000    195.0840
  346   3 Pt  78       4.420000    8.830000   24.388000      10.0000    195.0840
  347   3 Pt  78       7.230001    8.830000   24.527999      10.0000    195.0840
  348   3 Pt  78      10.100000    8.830000   24.557998      10.0000    195.0840
  349   3 Pt  78      -3.970000    8.970000   24.667999      10.0000    195.0840
  350   3 Pt  78      -1.260000    8.870000   24.448001      10.0000    195.0840
  351   3 Pt  78       1.670000    8.840000   24.437999      10.0000    195.0840
  352   3 Pt  78       5.850000   11.300000   24.507999      10.0000    195.0840
  353   3 Pt  78       8.560000   11.310000   24.577998      10.0000    195.0840
  354   3 Pt  78      -5.440001   11.360001   24.647998      10.0000    195.0840
  355   3 Pt  78      -2.580000   11.430000   24.407996      10.0000    195.0840
  356   3 Pt  78       0.200000   11.220001   24.367999      10.0000    195.0840
  357   3 Pt  78       3.050000   11.260000   24.477996      10.0000    195.0840
  358   3 Pt  78       7.240000   13.820001   24.467998      10.0000    195.0840
  359   3 Pt  78      -6.880000   13.660001   24.597999      10.0000    195.0840
  360   3 Pt  78      -3.930000   13.840000   24.597999      10.0000    195.0840
  361   3 Pt  78      -1.130000   13.670001   24.548000      10.0000    195.0840
  362   3 Pt  78       1.580000   13.610001   24.367999      10.0000    195.0840
  363   3 Pt  78       4.430000   13.630000   24.467998      10.0000    195.0840
  364   3 Pt  78      -8.250000   14.500000   22.147998      10.0000    195.0840
  365   3 Pt  78      -5.450000   14.560001   22.287998      10.0000    195.0840
  366   3 Pt  78      -2.620000   14.440001   22.187999      10.0000    195.0840
  367   3 Pt  78       0.140000   14.400001   22.127998      10.0000    195.0840
  368   3 Pt  78       2.980000   14.490002   22.117999      10.0000    195.0840
  369   3 Pt  78       5.740000   14.550000   22.117999      10.0000    195.0840
  370   3 Pt  78       1.620000    2.370000   22.217998      10.0000    195.0840
  371   3 Pt  78       4.440001    2.390000   22.147998      10.0000    195.0840
  372   3 Pt  78       7.230001    2.360000   22.038001      10.0000    195.0840
  373   3 Pt  78      10.020000    2.210000   22.108001      10.0000    195.0840
  374   3 Pt  78      12.960000    2.370000   22.068000      10.0000    195.0840
  375   3 Pt  78      -1.270000    2.350000   22.167999      10.0000    195.0840
  376   3 Pt  78       3.080000    4.810000   22.178001      10.0000    195.0840
  377   3 Pt  78       5.860000    4.800000   22.108001      10.0000    195.0840
  378   3 Pt  78       8.730000    4.800000   22.087997      10.0000    195.0840
  379   3 Pt  78      11.380000    4.730000   22.138000      10.0000    195.0840
  380   3 Pt  78      -2.600000    4.740000   22.147998      10.0000    195.0840
  381   3 Pt  78       0.220000    4.690000   22.197997      10.0000    195.0840
  382   3 Pt  78       4.390000    7.220001   22.127998      10.0000    195.0840
  383   3 Pt  78       7.220001    7.180000   22.197997      10.0000    195.0840
  384   3 Pt  78      10.040001    7.360001   22.227996      10.0000    195.0840
  385   3 Pt  78      -4.060000    7.210000   22.248000      10.0000    195.0840
  386   3 Pt  78      -1.180000    7.230001   22.138000      10.0000    195.0840
  387   3 Pt  78       1.580000    7.230001   22.157996      10.0000    195.0840
  388   3 Pt  78       5.790000    9.690001   22.117999      10.0000    195.0840
  389   3 Pt  78       8.680000    9.670001   22.257999      10.0000    195.0840
  390   3 Pt  78      -5.370000    9.720000   22.337997      10.0000    195.0840
  391   3 Pt  78      -2.620000    9.570000   22.197997      10.0000    195.0840
  392   3 Pt  78       0.270000    9.550000   22.127998      10.0000    195.0840
  393   3 Pt  78       3.070000    9.660000   22.087997      10.0000    195.0840
  394   3 Pt  78       7.190001   12.090001   22.127998      10.0000    195.0840
  395   3 Pt  78      -6.900001   12.020000   22.327998      10.0000    195.0840
  396   3 Pt  78      -4.070000   12.070000   22.178001      10.0000    195.0840
  397   3 Pt  78      -1.220000   11.920000   22.138000      10.0000    195.0840
  398   3 Pt  78       1.620000   12.020000   22.087997      10.0000    195.0840
  399   3 Pt  78       4.320000   12.120000   22.127998      10.0000    195.0840
  400   3 Pt  78       1.620000    0.700000   19.900000      10.0000    195.0840
  401   3 Pt  78       4.400000    0.680000   19.940000      10.0000    195.0840
  402   3 Pt  78       7.180000    0.680000   19.840000      10.0000    195.0840
  403   3 Pt  78       9.890000    0.640000   19.760000      10.0000    195.0840
  404   3 Pt  78      12.750001    0.650000   19.790000      10.0000    195.0840
  405   3 Pt  78      15.540000    0.680000   19.760000      10.0000    195.0840
  406   3 Pt  78       3.030000    3.130000   19.930000      10.0000    195.0840
  407   3 Pt  78       5.740000    3.210000   19.840000      10.0000    195.0840
  408   3 Pt  78       8.500000    3.190000   19.800000      10.0000    195.0840
  409   3 Pt  78      11.370001    3.080000   19.800000      10.0000    195.0840
  410   3 Pt  78      14.150001    3.120000   19.770000      10.0000    195.0840
  411   3 Pt  78       0.090000    3.030000   19.830000      10.0000    195.0840
  412   3 Pt  78       4.370000    5.560000   19.860000      10.0000    195.0840
  413   3 Pt  78       7.070000    5.620000   19.870000      10.0000    195.0840
  414   3 Pt  78       9.900001    5.610001   19.810000      10.0000    195.0840
  415   3 Pt  78      12.720001    5.550000   19.880000      10.0000    195.0840
  416   3 Pt  78      -1.270000    5.500000   19.810000      10.0000    195.0840
  417   3 Pt  78       1.630000    5.510000   19.960000      10.0000    195.0840
  418   3 Pt  78       5.770000    8.080000   19.850000      10.0000    195.0840
  419   3 Pt  78       8.530001    8.090000   19.830000      10.0000    195.0840
  420   3 Pt  78      11.390000    8.020000   19.900000      10.0000    195.0840
  421   3 Pt  78      -2.660000    7.870001   19.860000      10.0000    195.0840
  422   3 Pt  78       0.160000    7.930000   19.810000      10.0000    195.0840
  423   3 Pt  78       3.000000    8.030001   19.860000      10.0000    195.0840
  424   3 Pt  78       7.190001   10.530001   19.900000      10.0000    195.0840
  425   3 Pt  78      10.010000   10.430001   19.910000      10.0000    195.0840
  426   3 Pt  78      -3.990000   10.410000   19.950000      10.0000    195.0840
  427   3 Pt  78      -1.250000   10.350000   19.770000      10.0000    195.0840
  428   3 Pt  78       1.500000   10.410000   19.670000      10.0000    195.0840
  429   3 Pt  78       4.340000   10.480001   19.840000      10.0000    195.0840
  430   3 Pt  78       8.560000   12.950001   19.870000      10.0000    195.0840
  431   3 Pt  78      -5.530000   12.790001   20.050000      10.0000    195.0840
  432   3 Pt  78      -2.720000   12.760000   19.770000      10.0000    195.0840
  433   3 Pt  78       0.050000   12.750001   19.740000      10.0000    195.0840
  434   3 Pt  78       2.830000   12.920000   19.740000      10.0000    195.0840
  435   3 Pt  78       5.700001   12.890000   19.720000      10.0000    195.0840
  436   3 Pt  78       0.120000    1.580000   17.520000      10.0000    195.0840
  437   3 Pt  78       3.000000    1.580000   17.620000      10.0000    195.0840
  438   3 Pt  78       5.790000    1.620000   17.560000      10.0000    195.0840
  439   3 Pt  78       8.570001    1.590000   17.550000      10.0000    195.0840
  440   3 Pt  78      11.450001    1.490000   17.530000      10.0000    195.0840
  441   3 Pt  78      14.170000    1.400000   17.440000      10.0000    195.0840
  442   3 Pt  78       1.580000    3.890000   17.670000      10.0000    195.0840
  443   3 Pt  78       4.330000    3.970000   17.580000      10.0000    195.0840
  444   3 Pt  78       7.160000    4.040000   17.610000      10.0000    195.0840
  445   3 Pt  78      10.050000    3.900000   17.580000      10.0000    195.0840
  446   3 Pt  78      12.730000    3.810000   17.490000      10.0000    195.0840
  447   3 Pt  78      -1.350000    3.930000   17.670000      10.0000    195.0840
  448   3 Pt  78       2.900000    6.430000   17.550000      10.0000    195.0840
  449   3 Pt  78       5.640000    6.560000   17.460001      10.0000    195.0840
  450   3 Pt  78       8.440001    6.520000   17.540000      10.0000    195.0840
  451   3 Pt  78      11.370001    6.310000   17.570000      10.0000    195.0840
  452   3 Pt  78      -2.730000    6.330000   17.510000      10.0000    195.0840
  453   3 Pt  78       0.120000    6.230001   17.550000      10.0000    195.0840
  454   3 Pt  78       4.340000    8.920000   17.390000      10.0000    195.0840
  455   3 Pt  78       7.180000    8.860001   17.580000      10.0000    195.0840
  456   3 Pt  78       9.980000    8.830000   17.640000      10.0000    195.0840
  457   3 Pt  78      -3.990000    8.710001   17.640000      10.0000    195.0840
  458   3 Pt  78      -1.220000    8.720000   17.510000      10.0000    195.0840
  459   3 Pt  78       1.500000    8.850000   17.490000      10.0000    195.0840
  460   3 Pt  78       5.750000   11.240001   17.460001      10.0000    195.0840
  461   3 Pt  78       8.470000   11.290001   17.660000      10.0000    195.0840
  462   3 Pt  78      -5.470000   11.270000   17.670000      10.0000    195.0840
  463   3 Pt  78      -2.690000   11.300000   17.560000      10.0000    195.0840
  464   3 Pt  78       0.090000   11.370001   17.490000      10.0000    195.0840
  465   3 Pt  78       2.920000   11.170001   17.450000      10.0000    195.0840
  466   3 Pt  78       7.140000   13.740001   17.480000      10.0000    195.0840
  467   3 Pt  78      -6.880000   13.720001   17.580000      10.0000    195.0840
  468   3 Pt  78      -3.980000   13.680000   17.640000      10.0000    195.0840
  469   3 Pt  78      -1.230000   13.810000   17.590000      10.0000    195.0840
  470   3 Pt  78       1.610000   13.740001   17.420000      10.0000    195.0840
  471   3 Pt  78       4.400000   13.580000   17.390000      10.0000    195.0840
  472   3 Pt  78      -8.170000   14.360001   15.100000      10.0000    195.0840
  473   3 Pt  78      -5.420001   14.600000   15.300000      10.0000    195.0840
  474   3 Pt  78      -2.560000   14.520000   15.250000      10.0000    195.0840
  475   3 Pt  78       0.180000   14.630001   15.050000      10.0000    195.0840
  476   3 Pt  78       3.060000   14.680000   15.210000      10.0000    195.0840
  477   3 Pt  78       5.890000   14.510001   15.050000      10.0000    195.0840
  478   3 Pt  78       1.590000    2.170000   15.230000      10.0000    195.0840
  479   3 Pt  78       4.430000    2.410000   15.300000      10.0000    195.0840
  480   3 Pt  78       7.250000    2.420000   15.300000      10.0000    195.0840
  481   3 Pt  78       9.970000    2.350000   15.010000      10.0000    195.0840
  482   3 Pt  78      12.900001    2.410000   15.030000      10.0000    195.0840
  483   3 Pt  78      -1.140000    2.200000   15.220000      10.0000    195.0840
  484   3 Pt  78       2.880000    4.690000   15.160000      10.0000    195.0840
  485   3 Pt  78       5.680000    4.850000   15.170000      10.0000    195.0840
  486   3 Pt  78       8.610001    4.700000   15.320000      10.0000    195.0840
  487   3 Pt  78      11.360001    4.640000   15.160000      10.0000    195.0840
  488   3 Pt  78      -2.680000    4.840000   15.310000      10.0000    195.0840
  489   3 Pt  78       0.170000    4.620000   15.320000      10.0000    195.0840
  490   3 Pt  78       4.100000    7.160000   15.130000      10.0000    195.0840
  491   3 Pt  78       7.250000    7.170000   15.340000      10.0000    195.0840
  492   3 Pt  78      10.040001    7.140000   15.280001      10.0000    195.0840
  493   3 Pt  78      -4.070000    7.090001   15.270000      10.0000    195.0840
  494   3 Pt  78      -1.300000    7.190001   15.000000      10.0000    195.0840
  495   3 Pt  78       1.430000    7.060000   15.090000      10.0000    195.0840
  496   3 Pt  78       5.660000    9.580001   15.060000      10.0000    195.0840
  497   3 Pt  78       8.590000    9.520000   15.340000      10.0000    195.0840
  498   3 Pt  78      -5.360000    9.580001   15.390000      10.0000    195.0840
  499   3 Pt  78      -2.650000    9.650001   15.270000      10.0000    195.0840
  500   3 Pt  78       0.030000    9.650001   15.180000      10.0000    195.0840
  501   3 Pt  78       2.810000    9.700001   15.080000      10.0000    195.0840
  502   3 Pt  78       7.190001   12.060001   15.210000      10.0000    195.0840
  503   3 Pt  78      -6.850000   12.010001   15.320000      10.0000    195.0840
  504   3 Pt  78      -4.020000   12.060001   15.390000      10.0000    195.0840
  505   3 Pt  78      -1.100000   12.230001   15.110000      10.0000    195.0840
[...]
 flops    13 x    32 x    13           5598199360       0.0%    100.0%      0.0%
 flops    13 x    13 x   112           5685403360       0.0%    100.0%      0.0%
 flops     5 x     5 x    96           6355104000       0.0%    100.0%      0.0%
 flops    13 x     5 x    96           8109628800       0.0%    100.0%      0.0%
 flops     5 x    13 x    96           8115744000       0.0%    100.0%      0.0%
 flops    13 x    32 x    20           8487764480       0.0%    100.0%      0.0%
 flops    20 x    32 x    13           8487764480       0.0%    100.0%      0.0%
 flops    13 x    20 x   112           8514396800       0.0%    100.0%      0.0%
 flops    20 x    13 x   112           8530704000       0.0%    100.0%      0.0%
 flops    20 x    32 x     5           8941331200       0.0%    100.0%      0.0%
 flops     5 x    32 x    20           8941331200       0.0%    100.0%      0.0%
 flops     5 x    20 x   112           8966608000       0.0%    100.0%      0.0%
 flops    20 x     5 x   112           8989344000       0.0%    100.0%      0.0%
 flops    13 x    13 x    96           9746405760       0.0%    100.0%      0.0%
 flops    13 x    20 x    96          14596108800       0.0%    100.0%      0.0%
 flops    20 x    13 x    96          14624064000       0.0%    100.0%      0.0%
 flops     5 x    20 x    96          15371328000       0.0%    100.0%      0.0%
 flops    20 x     5 x    96          15410304000       0.0%    100.0%      0.0%
 flops     5 x     5 x   128          55077568000       0.0%    100.0%      0.0%
 flops    13 x     5 x   128          70283449600       0.0%    100.0%      0.0%
 flops     5 x    13 x   128          70336448000       0.0%    100.0%      0.0%
 flops    20 x    32 x    20          72858009600       0.0%    100.0%      0.0%
 flops    20 x    20 x   112          73495296000       0.0%    100.0%      0.0%
 flops    13 x    13 x   128          84468849920       0.0%    100.0%      0.0%
 flops    20 x    20 x    96         125991936000       0.0%    100.0%      0.0%
 flops    13 x    20 x   128         126499609600       0.0%    100.0%      0.0%
 flops    20 x    13 x   128         126741888000       0.0%    100.0%      0.0%
 flops     5 x    20 x   128         133218176000       0.0%    100.0%      0.0%
 flops    20 x     5 x   128         133555968000       0.0%    100.0%      0.0%
 flops    20 x    20 x   128        1091930112000       0.0%    100.0%      0.0%
 flops inhomo. stacks                           0       0.0%      0.0%      0.0%
 flops total                         2.365236E+12       0.0%    100.0%      0.0%
 flops max/rank                     23.438500E+09       0.0%    100.0%      0.0%
 matmuls inhomo. stacks                         0       0.0%      0.0%      0.0%
 matmuls total                           65960202       0.0%    100.0%      0.0%
 number of processed stacks                667125       0.0%    100.0%      0.0%
 average stack size                                     0.0      98.9       0.0
 marketing flops                     4.762173E+12
 -------------------------------------------------------------------------------
 # multiplications                             36
 max memory usage/rank               1.614991E+09
 # max total images/rank                        2
 # max 3D layers                                1
 # MPI messages exchanged                  133632
 MPI messages size (bytes):
  total size                        84.024623E+09
  min size                         290.304000E+03
  max size                           2.275000E+06
  average size                     628.776188E+03
 MPI breakdown and total messages size (bytes):
             size <=      128                   0                        0
       128 < size <=     8192                   0                        0
      8192 < size <=    32768                   0                        0
     32768 < size <=   131072                   0                        0
    131072 < size <=  4194304              133632              84024624888
   4194304 < size <= 16777216                   0                        0
  16777216 < size                               0                        0
 -------------------------------------------------------------------------------

 *** WARNING in dbcsr_mm.F:290 :: Using a non-square number of MPI ranks ***
 *** might lead to poor performance. Used ranks: 128 Suggested: 121 256  ***

 -------------------------------------------------------------------------------
 -                                                                             -
 -                      DBCSR MESSAGE PASSING PERFORMANCE                      -
 -                                                                             -
 -------------------------------------------------------------------------------
 ROUTINE             CALLS      AVE VOLUME [Bytes]
 MP_Bcast               46                     12.
 MP_Allreduce          355                     13.
 MP_Alltoall          1001                 566168.
 MP_ISend             2304                 297226.
 MP_IRecv             2304                 290844.
 -------------------------------------------------------------------------------

 -------------------------------------------------------------------------------
 -                                                                             -
 -                                DBM STATISTICS                               -
 -                                                                             -
 -------------------------------------------------------------------------------
    M  x    N  x    K                                          COUNT     PERCENT
 -------------------------------------------------------------------------------

 -------------------------------------------------------------------------------
 -                                                                             -
 -                                GRID STATISTICS                              -
 -                                                                             -
 -------------------------------------------------------------------------------
 LP    KERNEL             BACKEND                              COUNT     PERCENT
 4     collocate general  REF                               13779826      22.58%
 4     integrate general  REF                               13648948      22.36%
 3     collocate general  REF                                9329974      15.29%
 3     integrate general  REF                                9269683      15.19%
 2     collocate general  REF                                7280080      11.93%
 2     integrate general  REF                                7065960      11.58%
 5     integrate general  REF                                 405289       0.66%
 0     collocate general  REF                                 129792       0.21%
 0     integrate general  REF                                  64896       0.11%
 1     integrate general  REF                                  64896       0.11%
 -------------------------------------------------------------------------------

 MEMORY| Estimated peak process memory [MiB]                                1788

 -------------------------------------------------------------------------------
 ----                             MULTIGRID INFO                            ----
 -------------------------------------------------------------------------------
 count for grid        1:        1093073          cutoff [a.u.]          200.00
 count for grid        2:        1088124          cutoff [a.u.]           66.67
 count for grid        3:         710569          cutoff [a.u.]           22.22
 count for grid        4:         547399          cutoff [a.u.]            7.41
 total gridlevel count  :        3439165

 -------------------------------------------------------------------------------
 -                                                                             -
 -                         MESSAGE PASSING PERFORMANCE                         -
 -                                                                             -
 -------------------------------------------------------------------------------

 ROUTINE             CALLS      AVE VOLUME [Bytes]
 MP_Group                4
 MP_Bcast             2182                 308429.
 MP_Allreduce         3287                  32476.
 MP_Sync                74
 MP_Alltoall          2062               15841780.
 MP_SendRecv           508                   5943.
 MP_ISendRecv        17272                  61740.
 MP_Wait             30688
 MP_comm_split          35
 MP_ISend            12648                 256459.
 MP_IRecv            12648                 256459.
 MP_Recv               122                1677056.
 MP_Write_All            3                1797408.
 -------------------------------------------------------------------------------


 -------------------------------------------------------------------------------
 -                                                                             -
 -                           R E F E R E N C E S                               -
 -                                                                             -
 -------------------------------------------------------------------------------
 
 CP2K version 2022.1, the CP2K developers group (2022).
 CP2K is freely available from https://www.cp2k.org/ .

 Kuehne,Thomas D.; Iannuzzi,Marcella; Del Ben,Mauro;
 Rybkin,Vladimir V.; Seewald,Patrick; Stein,Frederick; Laino,Teodoro;
 Khaliullin,Rustam Z.; Schuett,Ole; Schiffmann,Florian; Golze,Dorothea;
 Wilhelm,Jan; Chulkov,Sergey; Bani-Hashemian,Mohammad Hossein;
 Weber,Valery; Borstnik,Urban; Taillefumier,Mathieu;
 Jakobovits,Alice Shoshana; Lazzaro,Alfio; Pabst,Hans; Mueller,Tiziano;
 Schade,Robert; Guidon,Manuel; Andermatt,Samuel; Holmberg,Nico;
 Schenter,Gregory K.; Hehn,Anna; Bussy,Augustin; Belleflamme,Fabian;
 Tabacchi,Gloria; Gloess,Andreas; Lass,Michael; Bethune,Iain;
 Mundy,Christopher J.; Plessl,Christian; Watkins,Matt;
 VandeVondele,Joost; Krack,Matthias; Hutter,Juerg. 
 The Journal of Chemical Physics, 152 (19), (2020). 
 CP2K: An electronic structure and molecular dynamics software package -
 Quickstep: Efficient and accurate electronic structure calculations.
 https://doi.org/10.1063/5.0007045

 Goerigk, Lars; Hansen, Andreas; Bauer, Christoph; Ehrlich, Stephan;
 Najibi, Asim; Grimme, Stefan. , 19 (48), (2017). 
 A look at the density functional theory zoo with the advanced GMTKN55 database
 for general main group thermochemistry, kinetics and noncovalent interactions.
 https://doi.org/10.1039/C7CP04913G

 Bani-Hashemian, MH; Bruck, S; Luisier, M; VandeVondele, J. 
 JOURNAL OF CHEMICAL PHYSICS, 144 (4), 044113 (2016). 
 A generalized Poisson solver for first-principles device simulations.
 https://doi.org/10.1063/1.4940796

 Schuett, Ole; Messmer, Peter; Hutter, Juerg; VandeVondele, Joost. 
 Electronic Structure Calculations on Graphics Processing Units, John
 Wiley & Sons, Ltd, 173-190 (2016). 
 GPU-Accelerated Sparse Matrix-Matrix Multiplication for
 Linear Scaling Density Functional Theory.
 https://doi.org/10.1002/9781118670712.ch8

 Heinecke, A; Henry, G; Hutchinson, M; Pabst, H. 
 Proceedings of Intl. Supercomputing Conference, 981-991 (2016). 
 LIBXSMM: Accelerating Small Matrix Multiplications
 by Runtime Code Generation.
 https://doi.org/10.1109/SC.2016.83

 Borstnik, U; VandeVondele, J; Weber, V; Hutter, J. 
 PARALLEL COMPUTING, 40 (5-6), 47-58 (2014). 
 Sparse matrix multiplication: The distributed block-compressed sparse
 row library.
 https://doi.org/10.1016/j.parco.2014.03.012

 Hutter, J; Iannuzzi, M; Schiffmann, F; VandeVondele, J. 
 WIREs Comput Mol Sci., 4 (1), 15-25 (2014). 
 CP2K: atomistic simulations of condensed matter systems.
 https://doi.org/10.1002/wcms.1159

 Marek, A; Blum, V; Johanni, R; Havu, V; Lang, B; Auckenthaler, T;
 Heinecke, A; Bungartz, H; Lederer, H. 
 Journal of Physics: Condensed Matter, 26 (21), (2014). 
 The ELPA library: scalable parallel eigenvalue solutions for
 electronic structure
 theory and computational science.
 https://doi.org/10.1088/0953-8984/26/21/213201

 Grimme, S; Ehrlich, S; Goerigk, L. 
 JOURNAL OF COMPUTATIONAL CHEMISTRY, 32, 1456 (2011). 
 Effect of the damping function in dispersion corrected density functional theory.
 https://doi.org/10.1002/jcc.21759

 Grimme, S; Antony, J; Ehrlich, S; Krieg, H. 
 JOURNAL OF CHEMICAL PHYSICS, 132 (15), 154104 (2010). 
 A consistent and accurate ab initio parametrization of density
 functional dispersion correction (DFT-D) for the 94 elements H-Pu.
 https://doi.org/10.1063/1.3382344

 VandeVondele, J; Hutter, J. 
 JOURNAL OF CHEMICAL PHYSICS, 127 (11), 114105 (2007). 
 Gaussian basis sets for accurate calculations on molecular systems in
 gas and condensed phases.
 https://doi.org/10.1063/1.2770708

 Krack, M. 
 THEORETICAL CHEMISTRY ACCOUNTS, 114 (1-3), 145-152 (2005). 
 Pseudopotentials for H to Kr optimized for gradient-corrected
 exchange-correlation functionals.
 https://doi.org/10.1007/s00214-005-0655-y

 VandeVondele, J; Krack, M; Mohamed, F; Parrinello, M; Chassaing, T;
 Hutter, J. COMPUTER PHYSICS COMMUNICATIONS, 167 (2), 103-128 (2005). 
 QUICKSTEP: Fast and accurate density functional calculations using a
 mixed Gaussian and plane waves approach.
 https://doi.org/10.1016/j.cpc.2004.12.014

 Frigo, M; Johnson, SG. 
 PROCEEDINGS OF THE IEEE, 93 (2), 216-231 (2005). 
 The design and implementation of FFTW3.
 https://doi.org/10.1109/JPROC.2004.840301

 Hartwigsen, C; Goedecker, S; Hutter, J. 
 PHYSICAL REVIEW B, 58 (7), 3641-3662 (1998). 
 Relativistic separable dual-space Gaussian pseudopotentials from H to Rn.
 https://doi.org/10.1103/PhysRevB.58.3641

 Lippert, G; Hutter, J; Parrinello, M. 
 MOLECULAR PHYSICS, 92 (3), 477-487 (1997). 
 A hybrid Gaussian and plane wave density functional scheme.
 https://doi.org/10.1080/002689797170220

 Perdew, JP; Burke, K; Ernzerhof, M. 
 PHYSICAL REVIEW LETTERS, 77 (18), 3865-3868 (1996). 
 Generalized gradient approximation made simple.
 https://doi.org/10.1103/PhysRevLett.77.3865

 Goedecker, S; Teter, M; Hutter, J. 
 PHYSICAL REVIEW B, 54 (3), 1703-1710 (1996). 
 Separable dual-space Gaussian pseudopotentials.
 https://doi.org/10.1103/PhysRevB.54.1703


 -------------------------------------------------------------------------------
 -                                                                             -
 -                                T I M I N G                                  -
 -                                                                             -
 -------------------------------------------------------------------------------
 SUBROUTINE                       CALLS  ASD         SELF TIME        TOTAL TIME
                                MAXIMUM       AVERAGE  MAXIMUM  AVERAGE  MAXIMUM
 CP2K                                 1  1.0    1.057    1.074  242.469  242.474
 qs_forces                            1  2.0    0.002    0.002  240.876  240.878
 qs_energies                          1  3.0    0.000    0.000  234.697  234.701
 scf_env_do_scf                       1  4.0    0.000    0.000  225.253  225.391
 scf_env_do_scf_inner_loop           33  5.0    0.002    0.005  225.250  225.388
 rebuild_ks_matrix                   34  6.9    0.000    0.000  123.127  123.154
 qs_ks_build_kohn_sham_matrix        34  7.9    0.005    0.006  123.127  123.154
 qs_ks_update_qs_env                 33  6.0    0.000    0.000  119.096  119.123
 pw_transfer                       1772 12.2    0.129    0.181   77.890   79.486
 fft_wrap_pw1pw2                   1772 13.2    0.017    0.022   77.761   79.340
 fft_wrap_pw1pw2_200               1568 14.4    5.227    6.147   76.693   78.266
 pw_poisson_solve                    34  8.9    0.003    0.008   66.638   66.683
 fft3d_ps                          1772 15.2   22.380   25.142   62.594   64.907
 qs_scf_new_mos                      33  6.0    0.001    0.004   63.320   63.401
 implicit_poisson_solver_mixed_      34  9.9    1.410    1.726   62.968   63.036
 eigensolver                         33  7.0    0.003    0.004   59.755   59.909
 derive_fft                         204 12.1    0.012    0.014   44.036   44.146
 cp_fm_diag_elpa                     35  8.1    0.000    0.001   42.512   42.623
 cp_fm_redistribute_end              35  9.1    5.661   42.090    5.732   42.135
 mp_alltoall_z22v                  1772 17.2   33.691   41.776   33.691   41.776
 cp_fm_diag_elpa_base                35  9.0   35.833   41.114   36.195   41.547
 qs_rho_update_rho_low               34  6.0    0.000    0.000   38.251   38.259
 calculate_rho_elec                  34  7.0    0.066    0.082   38.250   38.259
 apply_P_operator                   170 11.1    0.908    1.038   37.692   37.800
 sum_up_and_integrate                34  8.9    0.185    0.224   37.527   37.555
 integrate_v_rspace                  34  9.9    0.001    0.002   37.342   37.426
 grid_collocate_task_list            34  8.0   24.289   30.054   24.289   30.054
 grid_integrate_task_list            34 10.9   22.537   27.277   22.537   27.277
 x_to_yz                           1021 16.4    4.340    5.589   25.503   26.377
 rs_pw_transfer                     276 10.4    0.003    0.004   17.509   21.246
 cp_fm_triangular_multiply           99  8.0   18.747   19.026   18.747   19.026
 yz_to_x                            547 16.4    1.485    1.724   13.878   18.969
 qs_vxc_create                       34  8.9    0.001    0.001   16.938   17.148
 xc_vxc_pw_create                    34  9.9    0.291    0.369   16.937   17.147
 density_rs2pw                       34  8.0    0.002    0.022   13.205   17.063
 xc_pw_derive                       204 11.9    0.003    0.004   11.957   13.235
 rs_pw_transfer_RS2PW_200            36  9.9    2.337    2.630    8.099   11.841
 mp_waitany                       12648 12.3    8.091   11.803    8.091   11.803
 apply_poisson_operator_fft          34 10.9    0.000    0.001   11.101   11.286
 apply_inv_laplace_operator_fft     104 11.6    0.259    0.299   10.200   10.581
 potential_pw2rs                     34 10.9    0.010    0.011    9.710    9.795
 mp_alltoall_d11v                   498 10.3    6.073    9.526    6.073    9.526
 xc_pw_divergence                    34 10.9    0.002    0.002    8.118    9.082
 xc_rho_set_and_dset_create          34 10.9    0.169    0.200    8.200    8.809
 rs_gather_matrices                  34 10.9    0.041    0.050    5.083    8.439
 ps_implicit_compute_error_fft       68 10.9    0.429    0.520    7.468    8.029
 ps_implicit_compute_veps            34 10.9    0.198    0.238    7.453    7.577
 pw_scatter_p                      1123 15.3    6.321    7.506    6.321    7.506
 rs_pw_transfer_PW2RS_200            36 12.7    2.726    2.890    5.680    5.870
 scf_post_calculation_gpw             1  4.0    0.000    0.001    5.798    5.804
 write_available_results              1  5.0    0.000    0.000    5.798    5.804
 gspace_mixing                       32  6.0    0.061    0.074    5.523    5.530
 pw_derive                          816 13.0    5.171    5.487    5.171    5.487
 -------------------------------------------------------------------------------

 The number of warnings for this run is : 1
 
 -------------------------------------------------------------------------------
  **** **** ******  **  PROGRAM ENDED AT                 2023-12-02 23:17:05.868
 ***** ** ***  *** **   PROGRAM RAN ON                                     cu104
 **    ****   ******    PROGRAM RAN BY                                     jxzhu
 ***** **    ** ** **   PROGRAM PROCESS ID                                 39834
  **** **  *******  **  PROGRAM STOPPED IN /public/home/jxzhu/tmp_calc/0dbf3bba2
                                           e3ebccde1816fef6b44fcfa8de8ef46/calc/
                                           002200.000/search_hi.000000
