 DBCSR| CPU Multiplication driver                                           XSMM
 DBCSR| Multrec recursion limit                                              512
 DBCSR| Multiplication stack size                                           1000
 DBCSR| Maximum elements for images                                    UNLIMITED
 DBCSR| Multiplicative factor virtual images                                   1
 DBCSR| Use multiplication densification                                       T
 DBCSR| Multiplication size stacks                                             3
 DBCSR| Use memory pool for CPU allocation                                     F
 DBCSR| Number of 3D layers                                               SINGLE
 DBCSR| Use MPI memory allocation                                              F
 DBCSR| Use RMA algorithm                                                      F
 DBCSR| Use Communication thread                                               T
 DBCSR| Communication thread load                                             87
 DBCSR| MPI: My node id                                                        0
 DBCSR| MPI: Number of nodes                                                  32
 DBCSR| OMP: Current number of threads                                         1
 DBCSR| OMP: Max number of threads                                             1
 DBCSR| Split modifier for TAS multiplication algorithm                  1.0E+00


  **** **** ******  **  PROGRAM STARTED AT               2023-12-02 22:34:32.580
 ***** ** ***  *** **   PROGRAM STARTED ON                                 cu042
 **    ****   ******    PROGRAM STARTED BY                                 jxzhu
 ***** **    ** ** **   PROGRAM PROCESS ID                                 28884
  **** **  *******  **  PROGRAM STARTED IN /public/home/jxzhu/tmp_calc/04c0855f9
                                           8753fac23fde4df51ba20f3741a9e9a/calc/
                                           task.002.000015

 CP2K| version string:                                       CP2K version 2022.1
 CP2K| source code revision number:                                  git:2caeb6f
 CP2K| cp2kflags: omp libint fftw3 libxc elpa parallel mpi3 scalapack cosma xsmm
 CP2K|             plumed2 spglib mkl sirius libvori libbqb
 CP2K| is freely available from                            https://www.cp2k.org/
 CP2K| Program compiled at                           Mon Jul 3 17:37:06 CST 2023
 CP2K| Program compiled on                                                 mu003
 CP2K| Program compiled for                                                local
 CP2K| Data directory path                             /public/home/jxzhu/basis/
 CP2K| Input file name                                                 input.inp
 
 GLOBAL| Force Environment number                                              1
 GLOBAL| Basis set file name                                        BASIS_MOLOPT
 GLOBAL| Potential file name                                      GTH_POTENTIALS
 GLOBAL| MM Potential file name                                     MM_POTENTIAL
 GLOBAL| Coordinate file name                                          coord.xyz
 GLOBAL| Method name                                                        CP2K
 GLOBAL| Project name                                                       cp2k
 GLOBAL| Run type                                                   ENERGY_FORCE
 GLOBAL| FFT library                                                       FFTW3
 GLOBAL| Diagonalization library                                            ELPA
 GLOBAL| Minimum number of eigenvectors for ELPA usage                        16
 GLOBAL| Orthonormality check for eigenvectors                          DISABLED
 GLOBAL| Matrix multiplication library                                     COSMA
 GLOBAL| All-to-all communication in single precision                          F
 GLOBAL| FFTs using library dependent lengths                                  T
 GLOBAL| Grid backend                                                       AUTO
 GLOBAL| Global print level                                               MEDIUM
 GLOBAL| MPI I/O enabled                                                       T
 GLOBAL| Total number of message passing processes                            32
 GLOBAL| Number of threads for this process                                    1
 GLOBAL| This output is from process                                           0
 GLOBAL| Stack size for threads created by OpenMP (OMP_STACKSIZE)        default
 GLOBAL| CPU model name                 Intel(R) Xeon(R) Gold 6338 CPU @ 2.00GHz
 GLOBAL| CPUID                                                              1003

 MEMORY| system memory details [Kb]
 MEMORY|                        rank 0           min           max       average
 MEMORY| MemTotal            263619172     263619172     263619172     263619172
 MEMORY| MemFree             197132516     197132516     197133136     197132826
 MEMORY| Buffers                  3320          3320          3320          3320
 MEMORY| Cached                7019508       7019508       7019508       7019508
 MEMORY| Slab                  1954056       1954056       1954056       1954056
 MEMORY| SReclaimable           247004        247004        247004        247004
 MEMORY| MemLikelyFree       204402348     204402348     204402968     204402658


 *** Fundamental physical constants (SI units) ***

 *** Literature: B. J. Mohr and B. N. Taylor,
 ***             CODATA recommended values of the fundamental physical
 ***             constants: 2006, Web Version 5.1
 ***             http://physics.nist.gov/constants

 Speed of light in vacuum [m/s]                             2.99792458000000E+08
 Magnetic constant or permeability of vacuum [N/A**2]       1.25663706143592E-06
 Electric constant or permittivity of vacuum [F/m]          8.85418781762039E-12
 Planck constant (h) [J*s]                                  6.62606896000000E-34
 Planck constant (h-bar) [J*s]                              1.05457162825177E-34
 Elementary charge [C]                                      1.60217648700000E-19
 Electron mass [kg]                                         9.10938215000000E-31
 Electron g factor [ ]                                     -2.00231930436220E+00
 Proton mass [kg]                                           1.67262163700000E-27
 Fine-structure constant                                    7.29735253760000E-03
 Rydberg constant [1/m]                                     1.09737315685270E+07
 Avogadro constant [1/mol]                                  6.02214179000000E+23
 Boltzmann constant [J/K]                                   1.38065040000000E-23
 Atomic mass unit [kg]                                      1.66053878200000E-27
 Bohr radius [m]                                            5.29177208590000E-11

 *** Conversion factors ***

 [u] -> [a.u.]                                              1.82288848426455E+03
 [Angstrom] -> [Bohr] = [a.u.]                              1.88972613288564E+00
 [a.u.] = [Bohr] -> [Angstrom]                              5.29177208590000E-01
 [a.u.] -> [s]                                              2.41888432650478E-17
 [a.u.] -> [fs]                                             2.41888432650478E-02
 [a.u.] -> [J]                                              4.35974393937059E-18
 [a.u.] -> [N]                                              8.23872205491840E-08
 [a.u.] -> [K]                                              3.15774647902944E+05
 [a.u.] -> [kJ/mol]                                         2.62549961709828E+03
 [a.u.] -> [kcal/mol]                                       6.27509468713739E+02
 [a.u.] -> [Pa]                                             2.94210107994716E+13
 [a.u.] -> [bar]                                            2.94210107994716E+08
 [a.u.] -> [atm]                                            2.90362800883016E+08
 [a.u.] -> [eV]                                             2.72113838565563E+01
 [a.u.] -> [Hz]                                             6.57968392072181E+15
 [a.u.] -> [1/cm] (wave numbers)                            2.19474631370540E+05
 [a.u./Bohr**2] -> [1/cm]                                   5.14048714338585E+03
 

 CELL_TOP| Volume [angstrom^3]:                                     12686.086737
 CELL_TOP| Vector a [angstrom    16.869     0.000     0.000   |a| =    16.869000
 CELL_TOP| Vector b [angstrom    -8.434    14.609     0.000   |b| =    16.868929
 CELL_TOP| Vector c [angstrom     0.000     0.000    51.478   |c| =    51.477900
 CELL_TOP| Angle (b,c), alpha [degree]:                                90.000000
 CELL_TOP| Angle (a,c), beta  [degree]:                                90.000000
 CELL_TOP| Angle (a,b), gamma [degree]:                               120.000140
 CELL_TOP| Numerically orthorhombic:                                          NO
 
 GENERATE|  Preliminary Number of Bonds generated:                             0
 GENERATE|  Achieved consistency in connectivity generation.

 CELL| Volume [angstrom^3]:                                         12686.086737
 CELL| Vector a [angstrom]:      16.869     0.000     0.000   |a| =    16.869000
 CELL| Vector b [angstrom]:      -8.434    14.609     0.000   |b| =    16.868929
 CELL| Vector c [angstrom]:       0.000     0.000    51.478   |c| =    51.477900
 CELL| Angle (b,c), alpha [degree]:                                    90.000000
 CELL| Angle (a,c), beta  [degree]:                                    90.000000
 CELL| Angle (a,b), gamma [degree]:                                   120.000140
 CELL| Numerically orthorhombic:                                              NO

 CELL_REF| Volume [angstrom^3]:                                     12686.086737
 CELL_REF| Vector a [angstrom    16.869     0.000     0.000   |a| =    16.869000
 CELL_REF| Vector b [angstrom    -8.434    14.609     0.000   |b| =    16.868929
 CELL_REF| Vector c [angstrom     0.000     0.000    51.478   |c| =    51.477900
 CELL_REF| Angle (b,c), alpha [degree]:                                90.000000
 CELL_REF| Angle (a,c), beta  [degree]:                                90.000000
 CELL_REF| Angle (a,b), gamma [degree]:                               120.000140
 CELL_REF| Numerically orthorhombic:                                          NO

 *******************************************************************************
 *******************************************************************************
 **                                                                           **
 **     #####                         ##              ##                      **
 **    ##   ##            ##          ##              ##                      **
 **   ##     ##                       ##            ######                    **
 **   ##     ##  ##   ##  ##   #####  ##  ##   ####   ##    #####    #####    **
 **   ##     ##  ##   ##  ##  ##      ## ##   ##      ##   ##   ##  ##   ##   **
 **   ##  ## ##  ##   ##  ##  ##      ####     ###    ##   ######   ######    **
 **    ##  ###   ##   ##  ##  ##      ## ##      ##   ##   ##       ##        **
 **     #######   #####   ##   #####  ##  ##  ####    ##    #####   ##        **
 **           ##                                                    ##        **
 **                                                                           **
 **                                                ... make the atoms dance   **
 **                                                                           **
 **            Copyright (C) by CP2K developers group (2000-2022)             **
 **                      J. Chem. Phys. 152, 194103 (2020)                    **
 **                                                                           **
 *******************************************************************************

 DFT| Spin restricted Kohn-Sham (RKS) calculation                            RKS
 DFT| Multiplicity                                                             1
 DFT| Number of spin states                                                    1
 DFT| Charge                                                                   0
 DFT| Self-interaction correction (SIC)                                       NO
 DFT| Cutoffs: density                                              1.000000E-10
 DFT|          gradient                                             1.000000E-10
 DFT|          tau                                                  1.000000E-10
 DFT|          cutoff_smoothing_range                               0.000000E+00
 DFT| XC density smoothing                                                  NONE
 DFT| XC derivatives                                                          PW

 FUNCTIONAL| PBE:
 FUNCTIONAL| J.P.Perdew, K.Burke, M.Ernzerhof, Phys. Rev. Letter, vol. 77, n 18,
 FUNCTIONAL|  pp. 3865-3868, (1996){spin unpolarized}                           

 vdW POTENTIAL|                                                   Pair Potential
 vdW POTENTIAL|          DFT-D3 (Version 3.1)
 vdW POTENTIAL|          Potential Form: S. Grimme et al, JCP 132: 154104 (2010)
 vdW POTENTIAL|          Zero Damping
 vdW POTENTIAL|          Cutoff Radius [Bohr]:                             20.00
 vdW POTENTIAL|          s6 Scaling Factor:                               1.0000
 vdW POTENTIAL|          sr6 Scaling Factor:                              1.2170
 vdW POTENTIAL|          s8 Scaling Factor:                               0.7220
 vdW POTENTIAL|          Cutoff for CN calculation:                   0.1000E-05

 QS| Method:                                                                 GPW
 QS| Density plane wave grid type                        NON-SPHERICAL FULLSPACE
 QS| Number of grid levels:                                                    4
 QS| Density cutoff [a.u.]:                                                200.0
 QS| Multi grid cutoff [a.u.]: 1) grid level                               200.0
 QS|                           2) grid level                                66.7
 QS|                           3) grid level                                22.2
 QS|                           4) grid level                                 7.4
 QS| Grid level progression factor:                                          3.0
 QS| Relative density cutoff [a.u.]:                                        20.0
 QS| Interaction thresholds: eps_pgf_orb:                                3.2E-07
 QS|                         eps_filter_matrix:                          0.0E+00
 QS|                         eps_core_charge:                            1.0E-15
 QS|                         eps_rho_gspace:                             1.0E-13
 QS|                         eps_rho_rspace:                             1.0E-13
 QS|                         eps_gvg_rspace:                             3.2E-07
 QS|                         eps_ppl:                                    1.0E-02
 QS|                         eps_ppnl:                                   3.2E-09


 ATOMIC KIND INFORMATION

  1. Atomic kind: Pt                                    Number of atoms:     216

     Orbital Basis Set                      DZVP-A5-Q10-323-MOL-T1-DERIVED_SET-1

       Number of orbital shell sets:                                           1
       Number of orbital shells:                                               6
       Number of primitive Cartesian functions:                                5
       Number of Cartesian basis functions:                                   23
       Number of spherical basis functions:                                   20
       Norm type:                                                              2

       Normalised Cartesian orbitals:

                        Set   Shell   Orbital            Exponent    Coefficient

                          1       1    2s                2.521825       0.177473
                                                         1.453920      -0.063399
                                                         0.614053      -0.407089
                                                         0.232656       0.262254
                                                         0.074788       0.047371

                          1       2    3s                2.521825      -0.049056
                                                         1.453920       0.044904
                                                         0.614053      -0.009756
                                                         0.232656      -0.144709
                                                         0.074788       0.144085

                          1       3    3px               2.521825      -0.317572
                                                         1.453920       0.534826
                                                         0.614053      -0.489458
                                                         0.232656       0.245631
                                                         0.074788       0.018221
                          1       3    3py               2.521825      -0.317572
                                                         1.453920       0.534826
                                                         0.614053      -0.489458
                                                         0.232656       0.245631
                                                         0.074788       0.018221
                          1       3    3pz               2.521825      -0.317572
                                                         1.453920       0.534826
                                                         0.614053      -0.489458
                                                         0.232656       0.245631
                                                         0.074788       0.018221

                          1       4    4dx2              2.521825       3.008522
                                                         1.453920      -1.224251
                                                         0.614053       0.225691
                                                         0.232656       0.125144
                                                         0.074788      -0.015348
                          1       4    4dxy              2.521825       5.210912
                                                         1.453920      -2.120465
                                                         0.614053       0.390909
                                                         0.232656       0.216756
                                                         0.074788      -0.026584
                          1       4    4dxz              2.521825       5.210912
                                                         1.453920      -2.120465
                                                         0.614053       0.390909
                                                         0.232656       0.216756
                                                         0.074788      -0.026584
                          1       4    4dy2              2.521825       3.008522
                                                         1.453920      -1.224251
                                                         0.614053       0.225691
                                                         0.232656       0.125144
                                                         0.074788      -0.015348
                          1       4    4dyz              2.521825       5.210912
                                                         1.453920      -2.120465
                                                         0.614053       0.390909
                                                         0.232656       0.216756
                                                         0.074788      -0.026584
                          1       4    4dz2              2.521825       3.008522
                                                         1.453920      -1.224251
                                                         0.614053       0.225691
                                                         0.232656       0.125144
                                                         0.074788      -0.015348

                          1       5    5dx2              2.521825       0.698026
                                                         1.453920      -1.511486
                                                         0.614053      -0.335394
                                                         0.232656      -0.025564
                                                         0.074788      -0.002699
                          1       5    5dxy              2.521825       1.209017
                                                         1.453920      -2.617970
                                                         0.614053      -0.580920
                                                         0.232656      -0.044277
                                                         0.074788      -0.004674
                          1       5    5dxz              2.521825       1.209017
                                                         1.453920      -2.617970
                                                         0.614053      -0.580920
                                                         0.232656      -0.044277
                                                         0.074788      -0.004674
                          1       5    5dy2              2.521825       0.698026
                                                         1.453920      -1.511486
                                                         0.614053      -0.335394
                                                         0.232656      -0.025564
                                                         0.074788      -0.002699
                          1       5    5dyz              2.521825       1.209017
                                                         1.453920      -2.617970
                                                         0.614053      -0.580920
                                                         0.232656      -0.044277
                                                         0.074788      -0.004674
                          1       5    5dz2              2.521825       0.698026
                                                         1.453920      -1.511486
                                                         0.614053      -0.335394
                                                         0.232656      -0.025564
                                                         0.074788      -0.002699

                          1       6    6dx2              2.521825       0.831079
                                                         1.453920      -0.709226
                                                         0.614053      -0.137351
                                                         0.232656       0.068642
                                                         0.074788       0.011745
                          1       6    6dxy              2.521825       1.439472
                                                         1.453920      -1.228415
                                                         0.614053      -0.237899
                                                         0.232656       0.118891
                                                         0.074788       0.020343
                          1       6    6dxz              2.521825       1.439472
                                                         1.453920      -1.228415
                                                         0.614053      -0.237899
                                                         0.232656       0.118891
                                                         0.074788       0.020343
                          1       6    6dy2              2.521825       0.831079
                                                         1.453920      -0.709226
                                                         0.614053      -0.137351
                                                         0.232656       0.068642
                                                         0.074788       0.011745
                          1       6    6dyz              2.521825       1.439472
                                                         1.453920      -1.228415
                                                         0.614053      -0.237899
                                                         0.232656       0.118891
                                                         0.074788       0.020343
                          1       6    6dz2              2.521825       0.831079
                                                         1.453920      -0.709226
                                                         0.614053      -0.137351
                                                         0.232656       0.068642
                                                         0.074788       0.011745

       Atomic covalent radius [Angstrom]:                                  1.300

       Atomic van der Waals radius [Angstrom]:                             1.750

     GTH Potential information for                                   GTH-PBE-q10

       Description:                       Goedecker-Teter-Hutter pseudopotential
                                           Goedecker et al., PRB 54, 1703 (1996)
                                          Hartwigsen et al., PRB 58, 3641 (1998)
                                                      Krack, TCA 114, 145 (2005)

       Gaussian exponent of the core charge distribution:               1.317676
       Electronic configuration (s p d ...):                           1   0   9

       Parameters of the local part of the GTH pseudopotential:

                          rloc        C1          C2          C3          C4
                        0.616000   11.313635

       Parameters of the non-local part of the GTH pseudopotential:

                   l      r(l)      h(i,j,l)

                   0    0.550904    4.733491   -1.784594
                                   -1.784594    2.303901
                   1    0.674138    2.534798   -1.778066
                                   -1.778066    2.103836
                   2    0.457392   -7.264011    2.558665
                                    2.558665   -2.901253


 MOLECULE KIND INFORMATION


 All atoms are their own molecule, skipping detailed information


 TOTAL NUMBERS AND MAXIMUM NUMBERS

  Total number of            - Atomic kinds:                                   1
                             - Atoms:                                        216
                             - Shell sets:                                   216
                             - Shells:                                      1296
                             - Primitive Cartesian functions:               1080
                             - Cartesian basis functions:                   4968
                             - Spherical basis functions:                   4320

  Maximum angular momentum of- Orbital basis functions:                        2
                             - Local part of the GTH pseudopotential:          0
                             - Non-local part of the GTH pseudopotential:      4


 MODULE QUICKSTEP:  ATOMIC COORDINATES IN angstrom

 Atom  Kind  Element       X           Y           Z          Z(eff)       Mass
    1   1 Pt  78       2.286382    0.429470   19.714934      10.0000    195.0840
    2   1 Pt  78       5.126383    0.479470   19.834936      10.0000    195.0840
    3   1 Pt  78       7.846383    0.369470   19.804937      10.0000    195.0840
    4   1 Pt  78      10.626383    0.339470   19.864935      10.0000    195.0840
    5   1 Pt  78      13.476382    0.449470   20.054934      10.0000    195.0840
    6   1 Pt  78      16.326384    0.419470   19.934935      10.0000    195.0840
    7   1 Pt  78       3.576383    2.789470   19.924933      10.0000    195.0840
    8   1 Pt  78       6.436383    2.829470   20.004934      10.0000    195.0840
    9   1 Pt  78       9.166383    2.849470   19.874937      10.0000    195.0840
   10   1 Pt  78      12.026383    2.899470   19.834936      10.0000    195.0840
   11   1 Pt  78      14.936383    2.729470   20.024935      10.0000    195.0840
   12   1 Pt  78       0.906382    2.889470   20.004934      10.0000    195.0840
   13   1 Pt  78       5.026383    5.239470   19.714934      10.0000    195.0840
   14   1 Pt  78       7.906383    5.359470   20.074934      10.0000    195.0840
   15   1 Pt  78      10.636384    5.319470   19.834936      10.0000    195.0840
   16   1 Pt  78      13.476382    5.209470   19.854933      10.0000    195.0840
   17   1 Pt  78      -0.653618    5.219470   19.914934      10.0000    195.0840
   18   1 Pt  78       2.216382    5.249470   19.824934      10.0000    195.0840
   19   1 Pt  78       6.426383    7.709470   19.814936      10.0000    195.0840
   20   1 Pt  78       9.336383    7.709470   19.914934      10.0000    195.0840
   21   1 Pt  78      12.146382    7.709470   19.904936      10.0000    195.0840
   22   1 Pt  78      -1.953618    7.839470   19.894934      10.0000    195.0840
   23   1 Pt  78       0.856382    7.739470   19.794935      10.0000    195.0840
   24   1 Pt  78       3.706383    7.709470   19.724936      10.0000    195.0840
   25   1 Pt  78       7.776383   10.149470   19.854933      10.0000    195.0840
   26   1 Pt  78      10.726383   10.169470   19.954935      10.0000    195.0840
   27   1 Pt  78      -3.533618   10.199469   19.964937      10.0000    195.0840
   28   1 Pt  78      -0.653618   10.179470   19.864935      10.0000    195.0840
   29   1 Pt  78       2.236383   10.029470   19.834936      10.0000    195.0840
   30   1 Pt  78       4.976383   10.179470   19.754934      10.0000    195.0840
   31   1 Pt  78       9.316382   12.659470   19.764933      10.0000    195.0840
   32   1 Pt  78      -4.823618   12.719471   19.814936      10.0000    195.0840
   33   1 Pt  78      -2.033618   12.589471   19.834936      10.0000    195.0840
   34   1 Pt  78       0.786382   12.449470   19.864935      10.0000    195.0840
   35   1 Pt  78       3.636383   12.519470   20.034937      10.0000    195.0840
   36   1 Pt  78       6.416383   12.489470   19.874937      10.0000    195.0840
   37   1 Pt  78       0.746382    1.249470   22.184935      10.0000    195.0840
   38   1 Pt  78       3.536383    1.169470   22.214934      10.0000    195.0840
   39   1 Pt  78       6.256383    1.249470   22.314936      10.0000    195.0840
   40   1 Pt  78       9.206383    1.119470   22.204935      10.0000    195.0840
   41   1 Pt  78      11.836384    1.109470   22.314936      10.0000    195.0840
   42   1 Pt  78      14.716384    1.249470   22.364935      10.0000    195.0840
   43   1 Pt  78       2.226383    3.679470   22.214934      10.0000    195.0840
   44   1 Pt  78       5.006383    3.699470   22.294935      10.0000    195.0840
   45   1 Pt  78       7.896383    3.599470   22.384936      10.0000    195.0840
   46   1 Pt  78      10.626383    3.559470   22.264933      10.0000    195.0840
   47   1 Pt  78      13.396382    3.569470   22.294935      10.0000    195.0840
   48   1 Pt  78      -0.523618    3.609470   22.264933      10.0000    195.0840
   49   1 Pt  78       3.646383    6.079470   22.104937      10.0000    195.0840
   50   1 Pt  78       6.476383    6.069470   22.244936      10.0000    195.0840
   51   1 Pt  78       9.306383    6.159470   22.314936      10.0000    195.0840
   52   1 Pt  78      12.076383    6.109470   22.194933      10.0000    195.0840
   53   1 Pt  78      -2.053618    6.049470   22.124933      10.0000    195.0840
   54   1 Pt  78       0.856382    6.179470   22.104937      10.0000    195.0840
   55   1 Pt  78       5.056383    8.579469   22.244936      10.0000    195.0840
   56   1 Pt  78       7.736382    8.439470   22.224936      10.0000    195.0840
   57   1 Pt  78      10.636384    8.489470   22.264933      10.0000    195.0840
   58   1 Pt  78      -3.453618    8.459471   22.174936      10.0000    195.0840
   59   1 Pt  78      -0.523618    8.509470   22.174936      10.0000    195.0840
   60   1 Pt  78       2.266382    8.559470   22.264933      10.0000    195.0840
   61   1 Pt  78       6.296383   11.049470   22.204935      10.0000    195.0840
   62   1 Pt  78       9.156382   10.939470   22.184935      10.0000    195.0840
   63   1 Pt  78      -4.883617   11.079470   22.144934      10.0000    195.0840
   64   1 Pt  78      -2.083618   10.949470   22.244936      10.0000    195.0840
   65   1 Pt  78       0.816382   10.959470   22.244936      10.0000    195.0840
   66   1 Pt  78       3.586382   10.899470   22.164934      10.0000    195.0840
   67   1 Pt  78       7.836383   13.429471   22.234938      10.0000    195.0840
   68   1 Pt  78      -6.253618   13.449470   22.104937      10.0000    195.0840
   69   1 Pt  78      -3.423618   13.319470   22.294935      10.0000    195.0840
   70   1 Pt  78      -0.703618   13.359469   22.164934      10.0000    195.0840
   71   1 Pt  78       2.076383   13.319470   22.194933      10.0000    195.0840
   72   1 Pt  78       4.986382   13.459471   22.304937      10.0000    195.0840
   73   1 Pt  78      -7.773618   14.269471   24.524935      10.0000    195.0840
   74   1 Pt  78      -4.943618   14.229470   24.424936      10.0000    195.0840
   75   1 Pt  78      -2.103618   14.129470   24.504934      10.0000    195.0840
   76   1 Pt  78       0.646382   14.109470   24.584936      10.0000    195.0840
   77   1 Pt  78       3.516382   14.179470   24.574934      10.0000    195.0840
   78   1 Pt  78       6.286383   14.229470   24.664934      10.0000    195.0840
   79   1 Pt  78       2.066382    2.109470   24.494936      10.0000    195.0840
   80   1 Pt  78       4.886383    2.089470   24.534933      10.0000    195.0840
   81   1 Pt  78       7.716383    2.049470   24.684939      10.0000    195.0840
   82   1 Pt  78      10.506383    1.839470   24.634936      10.0000    195.0840
   83   1 Pt  78      13.336383    2.019470   24.714934      10.0000    195.0840
   84   1 Pt  78      -0.773618    1.969470   24.524935      10.0000    195.0840
   85   1 Pt  78       3.596383    4.539470   24.444937      10.0000    195.0840
   86   1 Pt  78       6.326383    4.489470   24.564936      10.0000    195.0840
   87   1 Pt  78       9.186383    4.499470   24.604933      10.0000    195.0840
   88   1 Pt  78      11.866383    4.489470   24.554937      10.0000    195.0840
   89   1 Pt  78      -2.103618    4.419470   24.544935      10.0000    195.0840
   90   1 Pt  78       0.736382    4.509470   24.524935      10.0000    195.0840
   91   1 Pt  78       4.926383    6.949470   24.494936      10.0000    195.0840
   92   1 Pt  78       7.726383    6.849470   24.604933      10.0000    195.0840
   93   1 Pt  78      10.516383    7.049470   24.554937      10.0000    195.0840
   94   1 Pt  78      -3.583618    6.859470   24.584936      10.0000    195.0840
   95   1 Pt  78      -0.643618    6.829469   24.524935      10.0000    195.0840
   96   1 Pt  78       2.186382    6.869470   24.544935      10.0000    195.0840
   97   1 Pt  78       6.286383    9.419471   24.544935      10.0000    195.0840
   98   1 Pt  78       9.096383    9.389470   24.474936      10.0000    195.0840
   99   1 Pt  78      -4.893618    9.379471   24.484938      10.0000    195.0840
  100   1 Pt  78      -2.093618    9.309470   24.494936      10.0000    195.0840
  101   1 Pt  78       0.696382    9.309470   24.634936      10.0000    195.0840
  102   1 Pt  78       3.476383    9.379471   24.634936      10.0000    195.0840
  103   1 Pt  78       7.656382   11.829469   24.594935      10.0000    195.0840
  104   1 Pt  78      -6.403618   11.819470   24.404936      10.0000    195.0840
  105   1 Pt  78      -3.523618   11.739470   24.534933      10.0000    195.0840
  106   1 Pt  78      -0.723618   11.699469   24.584936      10.0000    195.0840
  107   1 Pt  78       2.036382   11.829469   24.594935      10.0000    195.0840
  108   1 Pt  78       4.826383   11.849471   24.564936      10.0000    195.0840
  109   1 Pt  78       2.056382    0.419470   26.722934      10.0000    195.0840
  110   1 Pt  78       4.866383    0.349470   26.752934      10.0000    195.0840
  111   1 Pt  78       7.626383    0.349470   26.932934      10.0000    195.0840
  112   1 Pt  78      10.396383    0.379470   26.942934      10.0000    195.0840
  113   1 Pt  78      13.246383    0.369470   26.972934      10.0000    195.0840
  114   1 Pt  78      16.006383    0.439470   26.942934      10.0000    195.0840
  115   1 Pt  78       3.506383    2.809469   26.822934      10.0000    195.0840
  116   1 Pt  78       6.236383    2.849470   26.912934      10.0000    195.0840
  117   1 Pt  78       9.016383    2.929470   26.902934      10.0000    195.0840
  118   1 Pt  78      11.806383    2.829470   26.872934      10.0000    195.0840
  119   1 Pt  78      14.656382    2.809469   26.982934      10.0000    195.0840
  120   1 Pt  78       0.676382    2.829470   26.792934      10.0000    195.0840
  121   1 Pt  78       4.826383    5.309469   26.842934      10.0000    195.0840
  122   1 Pt  78       7.616383    5.339470   26.832934      10.0000    195.0840
  123   1 Pt  78      10.416383    5.369470   26.882934      10.0000    195.0840
  124   1 Pt  78      13.116383    5.239470   26.882934      10.0000    195.0840
  125   1 Pt  78      -0.783618    5.249470   26.842934      10.0000    195.0840
  126   1 Pt  78       2.216382    5.189470   26.792934      10.0000    195.0840
  127   1 Pt  78       6.246383    7.809470   26.792934      10.0000    195.0840
  128   1 Pt  78       9.076383    7.799470   26.882934      10.0000    195.0840
  129   1 Pt  78      11.896382    7.739470   26.892934      10.0000    195.0840
  130   1 Pt  78      -2.173618    7.619469   26.882934      10.0000    195.0840
  131   1 Pt  78       0.666382    7.589470   26.862934      10.0000    195.0840
  132   1 Pt  78       3.476383    7.659470   26.852934      10.0000    195.0840
  133   1 Pt  78       7.746383   10.209471   26.812934      10.0000    195.0840
  134   1 Pt  78      10.436383   10.119469   26.772934      10.0000    195.0840
  135   1 Pt  78      -3.543618   10.079470   26.782934      10.0000    195.0840
  136   1 Pt  78      -0.763618   10.069470   26.922934      10.0000    195.0840
  137   1 Pt  78       1.966382   10.149470   26.922934      10.0000    195.0840
  138   1 Pt  78       4.806383   10.169470   26.862934      10.0000    195.0840
  139   1 Pt  78       9.146383   12.659470   26.842934      10.0000    195.0840
  140   1 Pt  78      -5.013618   12.479470   26.622934      10.0000    195.0840
  141   1 Pt  78      -2.173618   12.529470   26.862934      10.0000    195.0840
  142   1 Pt  78       0.596382   12.459471   26.922934      10.0000    195.0840
  143   1 Pt  78       3.406383   12.539470   26.972934      10.0000    195.0840
  144   1 Pt  78       6.266383   12.579470   26.902934      10.0000    195.0840
  145   1 Pt  78       0.676382    1.149470   29.232933      10.0000    195.0840
  146   1 Pt  78       3.476383    1.239470   29.132934      10.0000    195.0840
  147   1 Pt  78       6.306383    1.309470   29.342934      10.0000    195.0840
  148   1 Pt  78       9.166383    1.219470   29.252933      10.0000    195.0840
  149   1 Pt  78      11.996383    1.189470   29.142934      10.0000    195.0840
  150   1 Pt  78      14.866383    1.199470   29.192934      10.0000    195.0840
  151   1 Pt  78       2.206382    3.609470   29.132934      10.0000    195.0840
  152   1 Pt  78       4.916383    3.639470   29.242934      10.0000    195.0840
  153   1 Pt  78       7.716383    3.639470   29.202934      10.0000    195.0840
  154   1 Pt  78      10.536383    3.659470   29.182934      10.0000    195.0840
  155   1 Pt  78      13.356383    3.649470   29.132934      10.0000    195.0840
  156   1 Pt  78      -0.623618    3.679470   29.162934      10.0000    195.0840
  157   1 Pt  78       3.556383    5.959470   29.282934      10.0000    195.0840
  158   1 Pt  78       6.286383    6.129470   29.082934      10.0000    195.0840
  159   1 Pt  78       9.086383    6.169470   29.262934      10.0000    195.0840
  160   1 Pt  78      11.956384    6.099470   29.152934      10.0000    195.0840
  161   1 Pt  78      -2.183618    6.079470   29.142934      10.0000    195.0840
  162   1 Pt  78       0.716382    6.009470   29.162934      10.0000    195.0840
  163   1 Pt  78       4.846383    8.459471   29.032934      10.0000    195.0840
  164   1 Pt  78       7.746383    8.599470   29.082934      10.0000    195.0840
  165   1 Pt  78      10.526383    8.569470   29.222934      10.0000    195.0840
  166   1 Pt  78      -3.583618    8.589471   29.212934      10.0000    195.0840
  167   1 Pt  78      -0.823618    8.459471   29.242934      10.0000    195.0840
  168   1 Pt  78       2.066382    8.389470   29.162934      10.0000    195.0840
  169   1 Pt  78       6.216382   11.029470   29.122934      10.0000    195.0840
  170   1 Pt  78       9.136383   10.999470   29.172934      10.0000    195.0840
  171   1 Pt  78      -4.903618   10.969470   29.042934      10.0000    195.0840
  172   1 Pt  78      -2.153617   10.949470   29.262934      10.0000    195.0840
  173   1 Pt  78       0.616382   10.849471   29.272934      10.0000    195.0840
  174   1 Pt  78       3.406383   10.949470   29.262934      10.0000    195.0840
  175   1 Pt  78       7.626383   13.289469   29.332934      10.0000    195.0840
  176   1 Pt  78      -6.313618   13.399470   29.032934      10.0000    195.0840
  177   1 Pt  78      -3.533618   13.389470   29.042934      10.0000    195.0840
  178   1 Pt  78      -0.783618   13.509471   29.222934      10.0000    195.0840
  179   1 Pt  78       2.066382   13.409470   29.282934      10.0000    195.0840
  180   1 Pt  78       4.866383   13.369470   29.292934      10.0000    195.0840
  181   1 Pt  78      -7.873618   14.059470   31.612934      10.0000    195.0840
  182   1 Pt  78      -4.873618   14.039470   31.322934      10.0000    195.0840
  183   1 Pt  78      -2.153617   14.069470   31.672934      10.0000    195.0840
  184   1 Pt  78       0.706382   14.249471   31.572934      10.0000    195.0840
  185   1 Pt  78       3.486382   14.079470   31.612934      10.0000    195.0840
  186   1 Pt  78       6.226382   14.159470   31.762934      10.0000    195.0840
  187   1 Pt  78       2.186382    1.869470   31.562933      10.0000    195.0840
  188   1 Pt  78       4.956383    1.829470   31.692934      10.0000    195.0840
  189   1 Pt  78       7.776383    1.929470   31.612934      10.0000    195.0840
  190   1 Pt  78      10.616383    1.959470   31.542934      10.0000    195.0840
  191   1 Pt  78      13.366383    1.859470   31.492934      10.0000    195.0840
  192   1 Pt  78      -0.533618    1.959470   31.552934      10.0000    195.0840
  193   1 Pt  78       3.606383    4.369470   31.552934      10.0000    195.0840
  194   1 Pt  78       6.406382    4.299470   31.482934      10.0000    195.0840
  195   1 Pt  78       9.136383    4.319470   31.492934      10.0000    195.0840
  196   1 Pt  78      11.856383    4.359470   31.412934      10.0000    195.0840
  197   1 Pt  78      -2.133618    4.379470   31.452934      10.0000    195.0840
  198   1 Pt  78       0.906382    4.329469   31.562933      10.0000    195.0840
  199   1 Pt  78       5.016383    6.859470   31.392934      10.0000    195.0840
  200   1 Pt  78       7.676383    6.779470   31.682934      10.0000    195.0840
  201   1 Pt  78      10.576383    6.829469   31.722934      10.0000    195.0840
  202   1 Pt  78      -3.613618    6.839470   31.502934      10.0000    195.0840
  203   1 Pt  78      -0.773618    6.789470   31.472934      10.0000    195.0840
  204   1 Pt  78       2.076383    6.779470   31.532934      10.0000    195.0840
  205   1 Pt  78       6.456383    9.199470   31.392934      10.0000    195.0840
  206   1 Pt  78       9.086383    9.149470   31.592934      10.0000    195.0840
  207   1 Pt  78      -4.953618    9.389470   31.642934      10.0000    195.0840
  208   1 Pt  78      -2.053618    9.249471   31.722934      10.0000    195.0840
  209   1 Pt  78       0.776382    9.189470   31.492934      10.0000    195.0840
  210   1 Pt  78       3.536383    9.119470   31.382934      10.0000    195.0840
  211   1 Pt  78       7.696382   11.659470   31.472934      10.0000    195.0840
  212   1 Pt  78      -6.203618   11.729470   31.532934      10.0000    195.0840
  213   1 Pt  78      -3.503618   11.649470   31.552934      10.0000    195.0840
  214   1 Pt  78      -0.703618   11.679470   31.632934      10.0000    195.0840
  215   1 Pt  78       2.026383   11.659470   31.582934      10.0000    195.0840
  216   1 Pt  78       4.836383   11.599470   31.472934      10.0000    195.0840




 SCF PARAMETERS         Density guess:                                   RESTART
                        --------------------------------------------------------
                        max_scf:                                             500
                        max_scf_history:                                       0
                        max_diis:                                              4
                        --------------------------------------------------------
                        eps_scf:                                        1.00E-06
                        eps_scf_history:                                0.00E+00
                        eps_diis:                                       1.00E-01
                        eps_eigval:                                     1.00E-05
                        --------------------------------------------------------
                        level_shift [a.u.]:                             0.000000
                        added MOs                                       500    0
                        --------------------------------------------------------
                        Mixing method:                            BROYDEN_MIXING
                                                charge density mixing in g-space
                        --------------------------------------------------------
                        Smear method:                                FERMI_DIRAC
                        Electronic temperature [K]:                        300.0
                        Electronic temperature [a.u.]:                  9.50E-04
                        Accuracy threshold:                             1.00E-10
                        --------------------------------------------------------
                        No outer SCF

 PW_GRID| Information for grid number                                          1
 PW_GRID| Grid distributed over                                    32 processors
 PW_GRID| Real space group dimensions                                    32    1
 PW_GRID| the grid is blocked:                                                NO
 PW_GRID| Cutoff [a.u.]                                                    200.0
 PW_GRID| spherical cutoff:                                                   NO
 PW_GRID|   Bounds   1           -105     104                Points:         210
 PW_GRID|   Bounds   2           -105     104                Points:         210
 PW_GRID|   Bounds   3           -315     314                Points:         630
 PW_GRID| Volume element (a.u.^3)  0.3081E-02     Volume (a.u.^3)     85609.9578
 PW_GRID| Grid span                                                    FULLSPACE
 PW_GRID|   Distribution                         Average         Max         Min
 PW_GRID|   G-Vectors                           868218.8      868350      868140
 PW_GRID|   G-Rays                                4134.4        4135        4134
 PW_GRID|   Real Space Points                   868218.8      926100      793800

 PW_GRID| Information for grid number                                          2
 PW_GRID| Number of the reference grid                                         1
 PW_GRID| Grid distributed over                                    32 processors
 PW_GRID| Real space group dimensions                                    32    1
 PW_GRID| the grid is blocked:                                                NO
 PW_GRID| Cutoff [a.u.]                                                     66.7
 PW_GRID| spherical cutoff:                                                   NO
 PW_GRID|   Bounds   1            -60      59                Points:         120
 PW_GRID|   Bounds   2            -60      59                Points:         120
 PW_GRID|   Bounds   3           -180     179                Points:         360
 PW_GRID| Volume element (a.u.^3)  0.1651E-01     Volume (a.u.^3)     85609.9578
 PW_GRID| Grid span                                                    FULLSPACE
 PW_GRID|   Distribution                         Average         Max         Min
 PW_GRID|   G-Vectors                           162000.0      162840      161280
 PW_GRID|   G-Rays                                1350.0        1357        1344
 PW_GRID|   Real Space Points                   162000.0      172800      129600

 PW_GRID| Information for grid number                                          3
 PW_GRID| Number of the reference grid                                         1
 PW_GRID| Grid distributed over                                    32 processors
 PW_GRID| Real space group dimensions                                    32    1
 PW_GRID| the grid is blocked:                                                NO
 PW_GRID| Cutoff [a.u.]                                                     22.2
 PW_GRID| spherical cutoff:                                                   NO
 PW_GRID|   Bounds   1            -35      34                Points:          70
 PW_GRID|   Bounds   2            -35      34                Points:          70
 PW_GRID|   Bounds   3           -105     104                Points:         210
 PW_GRID| Volume element (a.u.^3)  0.8320E-01     Volume (a.u.^3)     85609.9578
 PW_GRID| Grid span                                                    FULLSPACE
 PW_GRID|   Distribution                         Average         Max         Min
 PW_GRID|   G-Vectors                            32156.2       32340       31990
 PW_GRID|   G-Rays                                 459.4         462         457
 PW_GRID|   Real Space Points                    32156.2       44100       29400

 PW_GRID| Information for grid number                                          4
 PW_GRID| Number of the reference grid                                         1
 PW_GRID| Grid distributed over                                    32 processors
 PW_GRID| Real space group dimensions                                    32    1
 PW_GRID| the grid is blocked:                                                NO
 PW_GRID| Cutoff [a.u.]                                                      7.4
 PW_GRID| spherical cutoff:                                                   NO
 PW_GRID|   Bounds   1            -20      19                Points:          40
 PW_GRID|   Bounds   2            -20      19                Points:          40
 PW_GRID|   Bounds   3            -60      59                Points:         120
 PW_GRID| Volume element (a.u.^3)  0.4459         Volume (a.u.^3)     85609.9578
 PW_GRID| Grid span                                                    FULLSPACE
 PW_GRID|   Distribution                         Average         Max         Min
 PW_GRID|   G-Vectors                             6000.0        6120        5920
 PW_GRID|   G-Rays                                 150.0         153         148
 PW_GRID|   Real Space Points                     6000.0        9600        4800

 POISSON| Solver                                          IMPLICIT (GENERALIZED)
 POISSON| Boundary Condition                                PERIODIC & DIRICHLET
 POISSON| Maximum number of iterations                                        30
 POISSON| Convergence threshold                                         1.00E-08
 POISSON| Dielectric Constant                                              80.00
 POISSON| Relaxation parameter                                          1.00E+00

 RS_GRID| Information for grid number                                          1
 RS_GRID|   Bounds   1           -105     104                Points:         210
 RS_GRID|   Bounds   2           -105     104                Points:         210
 RS_GRID|   Bounds   3           -315     314                Points:         630
 RS_GRID| Real space distribution over                                 32 groups
 RS_GRID| Real space distribution along direction                              3
 RS_GRID| Border size                                                         54
 RS_GRID|   Distribution                         Average         Max         Min
 RS_GRID|   Planes                                 127.7         128         127

 RS_GRID| Information for grid number                                          2
 RS_GRID|   Bounds   1            -60      59                Points:         120
 RS_GRID|   Bounds   2            -60      59                Points:         120
 RS_GRID|   Bounds   3           -180     179                Points:         360
 RS_GRID| Real space distribution over                                 32 groups
 RS_GRID| Real space distribution along direction                              3
 RS_GRID| Border size                                                         36
 RS_GRID|   Distribution                         Average         Max         Min
 RS_GRID|   Planes                                  83.2          84          83

 RS_GRID| Information for grid number                                          3
 RS_GRID|   Bounds   1            -35      34                Points:          70
 RS_GRID|   Bounds   2            -35      34                Points:          70
 RS_GRID|   Bounds   3           -105     104                Points:         210
 RS_GRID| Real space fully replicated
 RS_GRID| Group size                                                           1

 RS_GRID| Information for grid number                                          4
 RS_GRID|   Bounds   1            -20      19                Points:          40
 RS_GRID|   Bounds   2            -20      19                Points:          40
 RS_GRID|   Bounds   3            -60      59                Points:         120
 RS_GRID| Real space fully replicated
 RS_GRID| Group size                                                           1

 Number of electrons:                                                       2160
 Number of occupied orbitals:                                               1080
 Number of molecular orbitals:                                              1580

 Number of orbital functions:                                               4320
 Number of independent orbital functions:                                   4320

 Extrapolation method: initial_guess


 SCF WAVEFUNCTION OPTIMIZATION

  Step     Update method      Time    Convergence         Total energy    Change
  ------------------------------------------------------------------------------

  POISSON| IMPLICIT (GENERALIZED) SOLVER ---------------------------------------
  POISSON| Preparing Dirichlet regions ...
  POISSON| Dirichlet region    1
  POISSON|     type : axis-aligned planar
  POISSON|     applied potential :   0.0000E+00  [Eh/e]
  POISSON| Dirichlet region    2
  POISSON|     type : axis-aligned planar
  POISSON|     applied potential :   0.3675E-01  [Eh/e]
  POISSON| ... Done. 
  ------------------------------------------------------------------------------

  POISSON|   iter        pres error      nabs error        E_hartree    delta E
  POISSON|      1        0.7359E-03      0.3339E-01    1992.6871397232  0.20E+04
  POISSON|      2        0.1187E-14      0.7359E-03    1992.6906401296  0.35E-02
  POISSON| Poisson solver converged in 2 iterations.
     1 NoMix/Diag. 0.30E+00   11.0     0.22260118     -5670.8095349596 -5.67E+03
  POISSON|   iter        pres error      nabs error        E_hartree    delta E
  POISSON|      1        0.7657E-03      0.3314E-01    1992.5053617713 -0.19E+00
  POISSON|      2        0.1385E-14      0.7657E-03    1992.5090040561  0.36E-02
  POISSON| Poisson solver converged in 2 iterations.
     2 Broy./Diag. 0.30E+00   13.2     0.24216845     -5670.3755966630  4.34E-01
  POISSON|   iter        pres error      nabs error        E_hartree    delta E
  POISSON|      1        0.7330E-04      0.4319E-03    1992.7051010234  0.20E+00
  POISSON|      2        0.1701E-16      0.7330E-04    1992.7047523602 -0.35E-03
  POISSON| Poisson solver converged in 2 iterations.
     3 Broy./Diag. 0.30E+00   13.2     0.15943395     -5676.0881644021 -5.71E+00
  POISSON|   iter        pres error      nabs error        E_hartree    delta E
  POISSON|      1        0.8636E-04      0.3481E-03    1992.7441465736  0.39E-01
  POISSON|      2        0.3791E-16      0.8636E-04    1992.7445573587  0.41E-03
  POISSON| Poisson solver converged in 2 iterations.
     4 Broy./Diag. 0.30E+00   13.2     0.15555567     -5673.0507814649  3.04E+00
  POISSON|   iter        pres error      nabs error        E_hartree    delta E
  POISSON|      1        0.4813E-04      0.1908E-03    1992.8419169921  0.97E-01
  POISSON|      2        0.6418E-16      0.4813E-04    1992.8416880416 -0.23E-03
  POISSON| Poisson solver converged in 2 iterations.
     5 Broy./Diag. 0.30E+00   13.3     0.10712437     -5672.4662534585  5.85E-01
  POISSON|   iter        pres error      nabs error        E_hartree    delta E
  POISSON|      1        0.4201E-05      0.4433E-04    1992.9420270846  0.10E+00
  POISSON|      2        0.1276E-16      0.4201E-05    1992.9420470676  0.20E-04
  POISSON| Poisson solver converged in 2 iterations.
     6 Broy./Diag. 0.30E+00   13.3     0.04009302     -5672.7934177092 -3.27E-01
  POISSON|   iter        pres error      nabs error        E_hartree    delta E
  POISSON|      1        0.2833E-05      0.3464E-04    1993.0435499503  0.10E+00
  POISSON|      2        0.6022E-18      0.2833E-05    1993.0435634260  0.13E-04
  POISSON| Poisson solver converged in 2 iterations.
     7 Broy./Diag. 0.30E+00   13.3     0.03847324     -5672.2958168752  4.98E-01
  POISSON|   iter        pres error      nabs error        E_hartree    delta E
  POISSON|      1        0.5691E-06      0.3335E-04    1993.1095969394  0.66E-01
  POISSON|      2        0.4203E-17      0.5691E-06    1993.1095942325 -0.27E-05
  POISSON| Poisson solver converged in 2 iterations.
     8 Broy./Diag. 0.30E+00   13.4     0.02387844     -5672.1061986516  1.90E-01
  POISSON|   iter        pres error      nabs error        E_hartree    delta E
  POISSON|      1        0.5388E-06      0.1243E-04    1993.1394601910  0.30E-01
  POISSON|      2        0.1524E-17      0.5388E-06    1993.1394576281 -0.26E-05
  POISSON| Poisson solver converged in 2 iterations.
     9 Broy./Diag. 0.30E+00   13.4     0.01285550     -5672.3705990123 -2.64E-01
  POISSON|   iter        pres error      nabs error        E_hartree    delta E
  POISSON|      1        0.5363E-06      0.5599E-05    1993.1522638030  0.13E-01
  POISSON|      2        0.7436E-17      0.5363E-06    1993.1522612519 -0.26E-05
  POISSON| Poisson solver converged in 2 iterations.
    10 Broy./Diag. 0.30E+00   13.5     0.00404475     -5672.2669194430  1.04E-01
  POISSON|   iter        pres error      nabs error        E_hartree    delta E
  POISSON|      1        0.7022E-07      0.5022E-05    1993.1587078009  0.64E-02
  POISSON|      2        0.6874E-17      0.7022E-07    1993.1587081350  0.33E-06
  POISSON| Poisson solver converged in 2 iterations.
    11 Broy./Diag. 0.30E+00   13.5     0.00510287     -5672.2370586532  2.99E-02
  POISSON|   iter        pres error      nabs error        E_hartree    delta E
  POISSON|      1        0.2674E-07      0.5011E-05    1993.1660921258  0.74E-02
  POISSON|      2        0.1087E-16      0.2674E-07    1993.1660922530  0.13E-06
  POISSON| Poisson solver converged in 2 iterations.
    12 Broy./Diag. 0.30E+00   13.5     0.00372063     -5672.2480305680 -1.10E-02
  POISSON|   iter        pres error      nabs error        E_hartree    delta E
  POISSON|      1        0.4510E-07      0.3307E-05    1993.1720874248  0.60E-02
  POISSON|      2        0.1303E-17      0.4510E-07    1993.1720872102 -0.21E-06
  POISSON| Poisson solver converged in 2 iterations.
    13 Broy./Diag. 0.30E+00   13.5     0.00140694     -5672.2588092489 -1.08E-02
  POISSON|   iter        pres error      nabs error        E_hartree    delta E
  POISSON|      1        0.1546E-06      0.1634E-05    1993.1727315017  0.64E-03
  POISSON|      2        0.6724E-17      0.1546E-06    1993.1727307662 -0.74E-06
  POISSON| Poisson solver converged in 2 iterations.
    14 Broy./Diag. 0.30E+00   13.5     0.00086324     -5672.2390388393  1.98E-02
  POISSON|   iter        pres error      nabs error        E_hartree    delta E
  POISSON|      1        0.3662E-06      0.2018E-05    1993.1730874874  0.36E-03
  POISSON|      2        0.2493E-17      0.3662E-06    1993.1730892296  0.17E-05
  POISSON| Poisson solver converged in 2 iterations.
    15 Broy./Diag. 0.30E+00   13.5     0.00106878     -5672.2466475282 -7.61E-03
  POISSON|   iter        pres error      nabs error        E_hartree    delta E
  POISSON|      1        0.4992E-06      0.2099E-05    1993.1731924007  0.10E-03
  POISSON|      2        0.7425E-17      0.4992E-06    1993.1731900259 -0.24E-05
  POISSON| Poisson solver converged in 2 iterations.
    16 Broy./Diag. 0.30E+00   13.5     0.00123001     -5672.2486547195 -2.01E-03
  POISSON|   iter        pres error      nabs error        E_hartree    delta E
  POISSON|      1        0.2974E-06      0.1876E-05    1993.1731972556  0.72E-05
  POISSON|      2        0.8531E-18      0.2974E-06    1993.1731986704  0.14E-05
  POISSON| Poisson solver converged in 2 iterations.
    17 Broy./Diag. 0.30E+00   13.5     0.00086125     -5672.2531811064 -4.53E-03
  POISSON|   iter        pres error      nabs error        E_hartree    delta E
  POISSON|      1        0.3505E-07      0.1132E-05    1993.1733273722  0.13E-03
  POISSON|      2        0.7366E-17      0.3505E-07    1993.1733272055 -0.17E-06
  POISSON| Poisson solver converged in 2 iterations.
    18 Broy./Diag. 0.30E+00   13.5     0.00025265     -5672.2496681387  3.51E-03
  POISSON|   iter        pres error      nabs error        E_hartree    delta E
  POISSON|      1        0.1270E-07      0.7925E-06    1993.1733157603 -0.11E-04
  POISSON|      2        0.2693E-17      0.1270E-07    1993.1733158207  0.60E-07
  POISSON| Poisson solver converged in 2 iterations.
    19 Broy./Diag. 0.30E+00   13.5     0.00020266     -5672.2498193400 -1.51E-04
  POISSON|   iter        pres error      nabs error        E_hartree    delta E
  POISSON|      1        0.1714E-07      0.6961E-06    1993.1735566158  0.24E-03
  POISSON|      2        0.6571E-17      0.1714E-07    1993.1735566974  0.82E-07
  POISSON| Poisson solver converged in 2 iterations.
    20 Broy./Diag. 0.30E+00   13.5     0.00012261     -5672.2536239092 -3.80E-03
  POISSON|   iter        pres error      nabs error        E_hartree    delta E
  POISSON|      1        0.2259E-07      0.5046E-06    1993.1738046318  0.25E-03
  POISSON|      2        0.1808E-17      0.2259E-07    1993.1738045244 -0.11E-06
  POISSON| Poisson solver converged in 2 iterations.
    21 Broy./Diag. 0.30E+00   13.5     0.00014783     -5672.2533604197  2.63E-04
  POISSON|   iter        pres error      nabs error        E_hartree    delta E
  POISSON|      1        0.9830E-08      0.6570E-06    1993.1740990515  0.29E-03
  POISSON| Poisson solver converged in 1 iteration. 
    22 Broy./Diag. 0.30E+00   12.1     0.00017506     -5672.2525901140  7.70E-04
  POISSON|   iter        pres error      nabs error        E_hartree    delta E
  POISSON|      1        0.3233E-08      0.7683E-06    1993.1744479347  0.35E-03
  POISSON| Poisson solver converged in 1 iteration. 
    23 Broy./Diag. 0.30E+00   12.1     0.00014751     -5672.2524718513  1.18E-04
  POISSON|   iter        pres error      nabs error        E_hartree    delta E
  POISSON|      1        0.1487E-09      0.6306E-06    1993.1747895766  0.34E-03
  POISSON| Poisson solver converged in 1 iteration. 
    24 Broy./Diag. 0.30E+00   12.1     0.00008019     -5672.2535353537 -1.06E-03
  POISSON|   iter        pres error      nabs error        E_hartree    delta E
  POISSON|      1        0.2355E-07      0.4244E-06    1993.1749662494  0.18E-03
  POISSON|      2        0.8153E-18      0.2355E-07    1993.1749661374 -0.11E-06
  POISSON| Poisson solver converged in 2 iterations.
    25 Broy./Diag. 0.30E+00   13.5     0.00009618     -5672.2527931652  7.42E-04
  POISSON|   iter        pres error      nabs error        E_hartree    delta E
  POISSON|      1        0.6011E-07      0.3046E-06    1993.1750366236  0.70E-04
  POISSON|      2        0.2170E-18      0.6011E-07    1993.1750369095  0.29E-06
  POISSON| Poisson solver converged in 2 iterations.
    26 Broy./Diag. 0.30E+00   13.5     0.00013973     -5672.2529851740 -1.92E-04
  POISSON|   iter        pres error      nabs error        E_hartree    delta E
  POISSON|      1        0.4245E-07      0.5524E-06    1993.1751832552  0.15E-03
  POISSON|      2        0.2213E-17      0.4245E-07    1993.1751830533 -0.20E-06
  POISSON| Poisson solver converged in 2 iterations.
    27 Broy./Diag. 0.30E+00   13.4     0.00014183     -5672.2527588493  2.26E-04
  POISSON|   iter        pres error      nabs error        E_hartree    delta E
  POISSON|      1        0.1110E-07      0.4549E-06    1993.1753076367  0.12E-03
  POISSON|      2        0.1926E-17      0.1110E-07    1993.1753076895  0.53E-07
  POISSON| Poisson solver converged in 2 iterations.
    28 Broy./Diag. 0.30E+00   13.6     0.00006301     -5672.2536981785 -9.39E-04
  POISSON|   iter        pres error      nabs error        E_hartree    delta E
  POISSON|      1        0.1855E-08      0.3424E-06    1993.1753925595  0.85E-04
  POISSON| Poisson solver converged in 1 iteration. 
    29 Broy./Diag. 0.30E+00   12.1     0.00004465     -5672.2534796612  2.19E-04
  POISSON|   iter        pres error      nabs error        E_hartree    delta E
  POISSON|      1        0.1361E-09      0.3752E-06    1993.1754029464  0.10E-04
  POISSON| Poisson solver converged in 1 iteration. 
    30 Broy./Diag. 0.30E+00   12.1     0.00003693     -5672.2530789068  4.01E-04
  POISSON|   iter        pres error      nabs error        E_hartree    delta E
  POISSON|      1        0.6645E-08      0.3570E-06    1993.1754257737  0.23E-04
  POISSON| Poisson solver converged in 1 iteration. 
    31 Broy./Diag. 0.30E+00   12.1     0.00003987     -5672.2538999720 -8.21E-04
  POISSON|   iter        pres error      nabs error        E_hartree    delta E
  POISSON|      1        0.4463E-08      0.3107E-06    1993.1754404192  0.15E-04
  POISSON| Poisson solver converged in 1 iteration. 
    32 Broy./Diag. 0.30E+00   12.0     0.00003684     -5672.2540722583 -1.72E-04
  POISSON|   iter        pres error      nabs error        E_hartree    delta E
  POISSON|      1        0.1734E-08      0.1968E-06    1993.1754255046 -0.15E-04
  POISSON| Poisson solver converged in 1 iteration. 
    33 Broy./Diag. 0.30E+00   12.1     0.00003596     -5672.2541093418 -3.71E-05
  POISSON|   iter        pres error      nabs error        E_hartree    delta E
  POISSON|      1        0.2166E-08      0.2922E-06    1993.1754344356  0.89E-05
  POISSON| Poisson solver converged in 1 iteration. 
    34 Broy./Diag. 0.30E+00   12.1     0.00002420     -5672.2540280419  8.13E-05
  POISSON|   iter        pres error      nabs error        E_hartree    delta E
  POISSON|      1        0.5026E-08      0.1453E-06    1993.1754530919  0.19E-04
  POISSON| Poisson solver converged in 1 iteration. 
    35 Broy./Diag. 0.30E+00   12.1     0.00002319     -5672.2544139532 -3.86E-04
  POISSON|   iter        pres error      nabs error        E_hartree    delta E
  POISSON|      1        0.1478E-07      0.8820E-07    1993.1754624466  0.94E-05
  POISSON|      2        0.2912E-17      0.1478E-07    1993.1754623763 -0.70E-07
  POISSON| Poisson solver converged in 2 iterations.
    36 Broy./Diag. 0.30E+00   13.5     0.00003786     -5672.2543292837  8.47E-05
  POISSON|   iter        pres error      nabs error        E_hartree    delta E
  POISSON|      1        0.1236E-07      0.1500E-06    1993.1754948692  0.32E-04
  POISSON|      2        0.2152E-17      0.1236E-07    1993.1754949280  0.59E-07
  POISSON| Poisson solver converged in 2 iterations.
    37 Broy./Diag. 0.30E+00   13.4     0.00003319     -5672.2543557430 -2.65E-05
  POISSON|   iter        pres error      nabs error        E_hartree    delta E
  POISSON|      1        0.2961E-08      0.1428E-06    1993.1755329225  0.38E-04
  POISSON| Poisson solver converged in 1 iteration. 
    38 Broy./Diag. 0.30E+00   12.1     0.00001731     -5672.2541995088  1.56E-04
  POISSON|   iter        pres error      nabs error        E_hartree    delta E
  POISSON|      1        0.1554E-08      0.1020E-06    1993.1755582984  0.25E-04
  POISSON| Poisson solver converged in 1 iteration. 
    39 Broy./Diag. 0.30E+00   12.1     0.00001376     -5672.2542889649 -8.95E-05
  POISSON|   iter        pres error      nabs error        E_hartree    delta E
  POISSON|      1        0.3843E-09      0.1014E-06    1993.1755999440  0.42E-04
  POISSON| Poisson solver converged in 1 iteration. 
    40 Broy./Diag. 0.30E+00   12.1     0.00001152     -5672.2543598923 -7.09E-05
  POISSON|   iter        pres error      nabs error        E_hartree    delta E
  POISSON|      1        0.1264E-08      0.1031E-06    1993.1756245790  0.25E-04
  POISSON| Poisson solver converged in 1 iteration. 
    41 Broy./Diag. 0.30E+00   12.0     0.00001039     -5672.2541119847  2.48E-04
  POISSON|   iter        pres error      nabs error        E_hartree    delta E
  POISSON|      1        0.1683E-08      0.9909E-07    1993.1756430502  0.18E-04
  POISSON| Poisson solver converged in 1 iteration. 
    42 Broy./Diag. 0.30E+00   12.1     0.00000959     -5672.2541836743 -7.17E-05
  POISSON|   iter        pres error      nabs error        E_hartree    delta E
  POISSON|      1        0.8183E-09      0.8039E-07    1993.1756559214  0.13E-04
  POISSON| Poisson solver converged in 1 iteration. 
    43 Broy./Diag. 0.30E+00   12.1     0.00000935     -5672.2542118437 -2.82E-05
  POISSON|   iter        pres error      nabs error        E_hartree    delta E
  POISSON|      1        0.1771E-09      0.8182E-07    1993.1756652121  0.93E-05
  POISSON| Poisson solver converged in 1 iteration. 
    44 Broy./Diag. 0.30E+00   12.2     0.00000726     -5672.2542378379 -2.60E-05
  POISSON|   iter        pres error      nabs error        E_hartree    delta E
  POISSON|      1        0.7595E-09      0.7898E-07    1993.1756633130 -0.19E-05
  POISSON| Poisson solver converged in 1 iteration. 
    45 Broy./Diag. 0.30E+00   12.1     0.00000554     -5672.2541730904  6.47E-05
  POISSON|   iter        pres error      nabs error        E_hartree    delta E
  POISSON|      1        0.4460E-08      0.3273E-07    1993.1756632017 -0.11E-06
  POISSON| Poisson solver converged in 1 iteration. 
    46 Broy./Diag. 0.30E+00   12.1     0.00001217     -5672.2542515832 -7.85E-05
  POISSON|   iter        pres error      nabs error        E_hartree    delta E
  POISSON|      1        0.4083E-08      0.6420E-07    1993.1756608527 -0.23E-05
  POISSON| Poisson solver converged in 1 iteration. 
    47 Broy./Diag. 0.30E+00   12.1     0.00001122     -5672.2542458053  5.78E-06
  POISSON|   iter        pres error      nabs error        E_hartree    delta E
  POISSON|      1        0.1715E-08      0.6878E-07    1993.1756537060 -0.71E-05
  POISSON| Poisson solver converged in 1 iteration. 
    48 Broy./Diag. 0.30E+00   12.0     0.00000771     -5672.2542840975 -3.83E-05
  POISSON|   iter        pres error      nabs error        E_hartree    delta E
  POISSON|      1        0.6845E-09      0.4173E-07    1993.1756521003 -0.16E-05
  POISSON| Poisson solver converged in 1 iteration. 
    49 Broy./Diag. 0.30E+00   12.1     0.00000568     -5672.2542729555  1.11E-05
  POISSON|   iter        pres error      nabs error        E_hartree    delta E
  POISSON|      1        0.5551E-11      0.6709E-07    1993.1756476366 -0.45E-05
  POISSON| Poisson solver converged in 1 iteration. 
    50 Broy./Diag. 0.30E+00   12.1     0.00000468     -5672.2542617691  1.12E-05
  POISSON|   iter        pres error      nabs error        E_hartree    delta E
  POISSON|      1        0.4222E-09      0.4225E-07    1993.1756484835  0.85E-06
  POISSON| Poisson solver converged in 1 iteration. 
    51 Broy./Diag. 0.30E+00   12.2     0.00000397     -5672.2543489821 -8.72E-05
  POISSON|   iter        pres error      nabs error        E_hartree    delta E
  POISSON|      1        0.5659E-09      0.3783E-07    1993.1756522091  0.37E-05
  POISSON| Poisson solver converged in 1 iteration. 
    52 Broy./Diag. 0.30E+00   12.2     0.00000358     -5672.2542986320  5.04E-05
  POISSON|   iter        pres error      nabs error        E_hartree    delta E
  POISSON|      1        0.4790E-09      0.4370E-07    1993.1756584887  0.63E-05
  POISSON| Poisson solver converged in 1 iteration. 
    53 Broy./Diag. 0.30E+00   12.1     0.00000358     -5672.2542955139  3.12E-06
  POISSON|   iter        pres error      nabs error        E_hartree    delta E
  POISSON|      1        0.1482E-10      0.2370E-07    1993.1756639772  0.55E-05
  POISSON| Poisson solver converged in 1 iteration. 
    54 Broy./Diag. 0.30E+00   12.1     0.00000320     -5672.2542889974  6.52E-06
  POISSON|   iter        pres error      nabs error        E_hartree    delta E
  POISSON|      1        0.1210E-09      0.3204E-07    1993.1756734668  0.95E-05
  POISSON| Poisson solver converged in 1 iteration. 
    55 Broy./Diag. 0.30E+00   12.1     0.00000235     -5672.2543067472 -1.77E-05
  POISSON|   iter        pres error      nabs error        E_hartree    delta E
  POISSON|      1        0.9742E-09      0.1543E-07    1993.1756761766  0.27E-05
  POISSON| Poisson solver converged in 1 iteration. 
    56 Broy./Diag. 0.30E+00   12.2     0.00000320     -5672.2542727851  3.40E-05
  POISSON|   iter        pres error      nabs error        E_hartree    delta E
  POISSON|      1        0.1050E-08      0.1871E-07    1993.1756807482  0.46E-05
  POISSON| Poisson solver converged in 1 iteration. 
    57 Broy./Diag. 0.30E+00   12.1     0.00000272     -5672.2542802727 -7.49E-06
  POISSON|   iter        pres error      nabs error        E_hartree    delta E
  POISSON|      1        0.7662E-09      0.2011E-07    1993.1756857540  0.50E-05
  POISSON| Poisson solver converged in 1 iteration. 
    58 Broy./Diag. 0.30E+00   12.1     0.00000259     -5672.2542800540  2.19E-07
  POISSON|   iter        pres error      nabs error        E_hartree    delta E
  POISSON|      1        0.3315E-09      0.1164E-07    1993.1756874077  0.17E-05
  POISSON| Poisson solver converged in 1 iteration. 
    59 Broy./Diag. 0.30E+00   12.1     0.00000210     -5672.2542866230 -6.57E-06
  POISSON|   iter        pres error      nabs error        E_hartree    delta E
  POISSON|      1        0.3291E-10      0.1539E-07    1993.1756901547  0.27E-05
  POISSON| Poisson solver converged in 1 iteration. 
    60 Broy./Diag. 0.30E+00   12.1     0.00000143     -5672.2542907943 -4.17E-06
  POISSON|   iter        pres error      nabs error        E_hartree    delta E
  POISSON|      1        0.1202E-09      0.1464E-07    1993.1756906222  0.47E-06
  POISSON| Poisson solver converged in 1 iteration. 
    61 Broy./Diag. 0.30E+00   12.0     0.00000117     -5672.2542773259  1.35E-05
  POISSON|   iter        pres error      nabs error        E_hartree    delta E
  POISSON|      1        0.1808E-09      0.9345E-08    1993.1756904948 -0.13E-06
  POISSON| Poisson solver converged in 1 iteration. 
    62 Broy./Diag. 0.30E+00   12.1     0.00000115     -5672.2543005556 -2.32E-05
  POISSON|   iter        pres error      nabs error        E_hartree    delta E
  POISSON|      1        0.1688E-09      0.1475E-07    1993.1756900557 -0.44E-06
  POISSON| Poisson solver converged in 1 iteration. 
    63 Broy./Diag. 0.30E+00   12.2     0.00000109     -5672.2542971511  3.40E-06
  POISSON|   iter        pres error      nabs error        E_hartree    delta E
  POISSON|      1        0.2152E-10      0.7575E-08    1993.1756887891 -0.13E-05
  POISSON| Poisson solver converged in 1 iteration. 
    64 Broy./Diag. 0.30E+00   12.2     0.00000113     -5672.2543030958 -5.94E-06
  POISSON|   iter        pres error      nabs error        E_hartree    delta E
  POISSON|      1        0.1993E-10      0.1284E-07    1993.1756876023 -0.12E-05
  POISSON| Poisson solver converged in 1 iteration. 
    65 Broy./Diag. 0.30E+00   12.9     0.00000082     -5672.2542972940  5.80E-06

  *** SCF run converged in    65 steps ***


  Electronic density on regular grids:      -2159.9999999992        0.0000000008
  Core density on regular grids:             2159.9999999995       -0.0000000005
  Total charge density on r-space grids:        0.0000000003
  Total charge density g-space grids:           0.0000000003

  Overlap energy of the core charge distribution:               0.00003198445127
  Self energy of the core charge distribution:              -9891.63555570741482
  Core Hamiltonian energy:                                   3201.88419057967303
  Hartree energy:                                            1993.17568760226800
  Electric enthalpy:                                         1993.16868486475346
  Exchange-correlation energy:                               -970.94798575872142
  Dispersion energy:                                           -4.68999261434381
  Electronic entropic energy:                                  -0.03367058867002
  Fermi energy:                                                -0.22660533576447

  Total energy:                                             -5672.25429729399184

 The electron density is written in cube file format to the file:

 cp2k-ELECTRON_DENSITY-1_0.cube

 !-----------------------------------------------------------------------------!
                     Mulliken Population Analysis

 #  Atom  Element  Kind  Atomic population                           Net charge
       1     Pt       1         10.013115                             -0.013115
       2     Pt       1         10.031999                             -0.031999
       3     Pt       1         10.036233                             -0.036233
       4     Pt       1         10.058385                             -0.058385
       5     Pt       1         10.069142                             -0.069142
       6     Pt       1         10.055923                             -0.055923
       7     Pt       1         10.052432                             -0.052432
       8     Pt       1         10.058536                             -0.058536
       9     Pt       1         10.043401                             -0.043401
      10     Pt       1         10.048809                             -0.048809
      11     Pt       1         10.055911                             -0.055911
      12     Pt       1         10.036113                             -0.036113
      13     Pt       1         10.044858                             -0.044858
[...]
    191      1      Pt          0.00563327     0.01464220    -0.00327186
    192      1      Pt         -0.02009664     0.00351812     0.00089065
    193      1      Pt          0.00480474    -0.00522978     0.00713160
    194      1      Pt         -0.00830327     0.01037989     0.00973105
    195      1      Pt          0.00042478     0.01233140     0.00391496
    196      1      Pt          0.01838786     0.00893247     0.00857245
    197      1      Pt          0.00502082    -0.00387123    -0.00475555
    198      1      Pt         -0.01881855     0.00009394    -0.00796388
    199      1      Pt         -0.00686669    -0.01246891     0.01241317
    200      1      Pt          0.01847712    -0.00466266    -0.01423199
    201      1      Pt         -0.00997976    -0.00089949    -0.01541126
    202      1      Pt          0.01113834     0.00316557    -0.00105457
    203      1      Pt          0.00646691    -0.00128089     0.00192894
    204      1      Pt          0.00439830    -0.00171285    -0.00075089
    205      1      Pt         -0.02002368     0.00782414    -0.00023850
    206      1      Pt          0.01625672     0.00966566    -0.00476231
    207      1      Pt          0.00190053    -0.02274440    -0.00912044
    208      1      Pt         -0.00793789    -0.00103016    -0.01214548
    209      1      Pt         -0.01315624     0.00068011     0.00690297
    210      1      Pt          0.00027528     0.01349781     0.00748083
    211      1      Pt          0.00162064    -0.00568766     0.01009264
    212      1      Pt         -0.02234924    -0.00107837    -0.01284236
    213      1      Pt          0.00696159     0.00144626    -0.00269908
    214      1      Pt         -0.00034202     0.00574614    -0.00849225
    215      1      Pt          0.00589258     0.00630420    -0.00142335
    216      1      Pt          0.00690767     0.00431840     0.01131067
 SUM OF ATOMIC FORCES           0.00003073     0.00005984     0.00009020     0.00011252

 -------------------------------------------------------------------------------
 -                                                                             -
 -                                DBCSR STATISTICS                             -
 -                                                                             -
 -------------------------------------------------------------------------------
 COUNTER                                    TOTAL       BLAS       SMM       ACC
 flops    20 x    12 x    20            447897600       0.0%    100.0%      0.0%
 flops    20 x    32 x    20          58525286400       0.0%    100.0%      0.0%
 flops    20 x    20 x   204         256258598400       0.0%    100.0%      0.0%
 flops    20 x    20 x   224         281381990400       0.0%    100.0%      0.0%
 flops    20 x    20 x   192        1447107379200       0.0%    100.0%      0.0%
 flops inhomo. stacks                           0       0.0%      0.0%      0.0%
 flops total                         2.043721E+12       0.0%    100.0%      0.0%
 flops max/rank                     65.588941E+09       0.0%    100.0%      0.0%
 matmuls inhomo. stacks                         0       0.0%      0.0%      0.0%
 matmuls total                           14894496       0.0%    100.0%      0.0%
 number of processed stacks                 19584       0.0%    100.0%      0.0%
 average stack size                                     0.0     760.5       0.0
 marketing flops                     2.910288E+12
 -------------------------------------------------------------------------------
 # multiplications                             68
 max memory usage/rank               1.817833E+09
 # max total images/rank                        2
 # max 3D layers                                1
 # MPI messages exchanged                   28288
 MPI messages size (bytes):
  total size                        37.794124E+09
  min size                         829.440000E+03
  max size                           4.665600E+06
  average size                       1.336048E+06
 MPI breakdown and total messages size (bytes):
             size <=      128                   0                        0
       128 < size <=     8192                   0                        0
      8192 < size <=    32768                   0                        0
     32768 < size <=   131072                   0                        0
    131072 < size <=  4194304               28064              36749030400
   4194304 < size <= 16777216                 224               1045094400
  16777216 < size                               0                        0
 -------------------------------------------------------------------------------

 *** WARNING in dbcsr_mm.F:290 :: Using a non-square number of MPI ranks ***
 *** might lead to poor performance. Used ranks: 32 Suggested: 36 64     ***

 -------------------------------------------------------------------------------
 -                                                                             -
 -                      DBCSR MESSAGE PASSING PERFORMANCE                      -
 -                                                                             -
 -------------------------------------------------------------------------------
 ROUTINE             CALLS      AVE VOLUME [Bytes]
 MP_Bcast                6                     12.
 MP_Allreduce          499                      9.
 MP_Alltoall          1885                1275666.
 MP_ISend             2176                 578173.
 MP_IRecv             2176                 561175.
 -------------------------------------------------------------------------------

 -------------------------------------------------------------------------------
 -                                                                             -
 -                                DBM STATISTICS                               -
 -                                                                             -
 -------------------------------------------------------------------------------
    M  x    N  x    K                                          COUNT     PERCENT
 -------------------------------------------------------------------------------

 -------------------------------------------------------------------------------
 -                                                                             -
 -                                GRID STATISTICS                              -
 -                                                                             -
 -------------------------------------------------------------------------------
 LP    KERNEL             BACKEND                              COUNT     PERCENT
 4     collocate general  REF                               22458546      49.97%
 4     integrate general  REF                               22118265      49.21%
 5     integrate general  REF                                 340281       0.76%
 0     collocate general  REF                                  13824       0.03%
 0     integrate general  REF                                   6912       0.02%
 1     integrate general  REF                                   6912       0.02%
 -------------------------------------------------------------------------------

 MEMORY| Estimated peak process memory [MiB]                                2138

 -------------------------------------------------------------------------------
 ----                             MULTIGRID INFO                            ----
 -------------------------------------------------------------------------------
 count for grid        1:          17555          cutoff [a.u.]          200.00
 count for grid        2:         177581          cutoff [a.u.]           66.67
 count for grid        3:         109682          cutoff [a.u.]           22.22
 count for grid        4:         155086          cutoff [a.u.]            7.41
 total gridlevel count  :         459904

 -------------------------------------------------------------------------------
 -                                                                             -
 -                         MESSAGE PASSING PERFORMANCE                         -
 -                                                                             -
 -------------------------------------------------------------------------------

 ROUTINE             CALLS      AVE VOLUME [Bytes]
 MP_Group                4
 MP_Bcast             1774                 164157.
 MP_Allreduce         1642                   1541.
 MP_Sync                71
 MP_Alltoall          3203               49313840.
 MP_SendRecv           124                  14976.
 MP_ISendRecv         8184                 214800.
 MP_Wait             19836
 MP_comm_split           1
 MP_ISend            10448                 714782.
 MP_IRecv            10448                 714782.
 MP_Recv               192                1105920.
 MP_Write_All            3                4213860.
 -------------------------------------------------------------------------------


 -------------------------------------------------------------------------------
 -                                                                             -
 -                           R E F E R E N C E S                               -
 -                                                                             -
 -------------------------------------------------------------------------------
 
 CP2K version 2022.1, the CP2K developers group (2022).
 CP2K is freely available from https://www.cp2k.org/ .

 Kuehne,Thomas D.; Iannuzzi,Marcella; Del Ben,Mauro;
 Rybkin,Vladimir V.; Seewald,Patrick; Stein,Frederick; Laino,Teodoro;
 Khaliullin,Rustam Z.; Schuett,Ole; Schiffmann,Florian; Golze,Dorothea;
 Wilhelm,Jan; Chulkov,Sergey; Bani-Hashemian,Mohammad Hossein;
 Weber,Valery; Borstnik,Urban; Taillefumier,Mathieu;
 Jakobovits,Alice Shoshana; Lazzaro,Alfio; Pabst,Hans; Mueller,Tiziano;
 Schade,Robert; Guidon,Manuel; Andermatt,Samuel; Holmberg,Nico;
 Schenter,Gregory K.; Hehn,Anna; Bussy,Augustin; Belleflamme,Fabian;
 Tabacchi,Gloria; Gloess,Andreas; Lass,Michael; Bethune,Iain;
 Mundy,Christopher J.; Plessl,Christian; Watkins,Matt;
 VandeVondele,Joost; Krack,Matthias; Hutter,Juerg. 
 The Journal of Chemical Physics, 152 (19), (2020). 
 CP2K: An electronic structure and molecular dynamics software package -
 Quickstep: Efficient and accurate electronic structure calculations.
 https://doi.org/10.1063/5.0007045

 Goerigk, Lars; Hansen, Andreas; Bauer, Christoph; Ehrlich, Stephan;
 Najibi, Asim; Grimme, Stefan. , 19 (48), (2017). 
 A look at the density functional theory zoo with the advanced GMTKN55 database
 for general main group thermochemistry, kinetics and noncovalent interactions.
 https://doi.org/10.1039/C7CP04913G

 Bani-Hashemian, MH; Bruck, S; Luisier, M; VandeVondele, J. 
 JOURNAL OF CHEMICAL PHYSICS, 144 (4), 044113 (2016). 
 A generalized Poisson solver for first-principles device simulations.
 https://doi.org/10.1063/1.4940796

 Schuett, Ole; Messmer, Peter; Hutter, Juerg; VandeVondele, Joost. 
 Electronic Structure Calculations on Graphics Processing Units, John
 Wiley & Sons, Ltd, 173-190 (2016). 
 GPU-Accelerated Sparse Matrix-Matrix Multiplication for
 Linear Scaling Density Functional Theory.
 https://doi.org/10.1002/9781118670712.ch8

 Heinecke, A; Henry, G; Hutchinson, M; Pabst, H. 
 Proceedings of Intl. Supercomputing Conference, 981-991 (2016). 
 LIBXSMM: Accelerating Small Matrix Multiplications
 by Runtime Code Generation.
 https://doi.org/10.1109/SC.2016.83

 Borstnik, U; VandeVondele, J; Weber, V; Hutter, J. 
 PARALLEL COMPUTING, 40 (5-6), 47-58 (2014). 
 Sparse matrix multiplication: The distributed block-compressed sparse
 row library.
 https://doi.org/10.1016/j.parco.2014.03.012

 Hutter, J; Iannuzzi, M; Schiffmann, F; VandeVondele, J. 
 WIREs Comput Mol Sci., 4 (1), 15-25 (2014). 
 CP2K: atomistic simulations of condensed matter systems.
 https://doi.org/10.1002/wcms.1159

 Marek, A; Blum, V; Johanni, R; Havu, V; Lang, B; Auckenthaler, T;
 Heinecke, A; Bungartz, H; Lederer, H. 
 Journal of Physics: Condensed Matter, 26 (21), (2014). 
 The ELPA library: scalable parallel eigenvalue solutions for
 electronic structure
 theory and computational science.
 https://doi.org/10.1088/0953-8984/26/21/213201

 Grimme, S; Ehrlich, S; Goerigk, L. 
 JOURNAL OF COMPUTATIONAL CHEMISTRY, 32, 1456 (2011). 
 Effect of the damping function in dispersion corrected density functional theory.
 https://doi.org/10.1002/jcc.21759

 Grimme, S; Antony, J; Ehrlich, S; Krieg, H. 
 JOURNAL OF CHEMICAL PHYSICS, 132 (15), 154104 (2010). 
 A consistent and accurate ab initio parametrization of density
 functional dispersion correction (DFT-D) for the 94 elements H-Pu.
 https://doi.org/10.1063/1.3382344

 VandeVondele, J; Hutter, J. 
 JOURNAL OF CHEMICAL PHYSICS, 127 (11), 114105 (2007). 
 Gaussian basis sets for accurate calculations on molecular systems in
 gas and condensed phases.
 https://doi.org/10.1063/1.2770708

 Krack, M. 
 THEORETICAL CHEMISTRY ACCOUNTS, 114 (1-3), 145-152 (2005). 
 Pseudopotentials for H to Kr optimized for gradient-corrected
 exchange-correlation functionals.
 https://doi.org/10.1007/s00214-005-0655-y

 VandeVondele, J; Krack, M; Mohamed, F; Parrinello, M; Chassaing, T;
 Hutter, J. COMPUTER PHYSICS COMMUNICATIONS, 167 (2), 103-128 (2005). 
 QUICKSTEP: Fast and accurate density functional calculations using a
 mixed Gaussian and plane waves approach.
 https://doi.org/10.1016/j.cpc.2004.12.014

 Frigo, M; Johnson, SG. 
 PROCEEDINGS OF THE IEEE, 93 (2), 216-231 (2005). 
 The design and implementation of FFTW3.
 https://doi.org/10.1109/JPROC.2004.840301

 Hartwigsen, C; Goedecker, S; Hutter, J. 
 PHYSICAL REVIEW B, 58 (7), 3641-3662 (1998). 
 Relativistic separable dual-space Gaussian pseudopotentials from H to Rn.
 https://doi.org/10.1103/PhysRevB.58.3641

 Lippert, G; Hutter, J; Parrinello, M. 
 MOLECULAR PHYSICS, 92 (3), 477-487 (1997). 
 A hybrid Gaussian and plane wave density functional scheme.
 https://doi.org/10.1080/002689797170220

 Perdew, JP; Burke, K; Ernzerhof, M. 
 PHYSICAL REVIEW LETTERS, 77 (18), 3865-3868 (1996). 
 Generalized gradient approximation made simple.
 https://doi.org/10.1103/PhysRevLett.77.3865

 Goedecker, S; Teter, M; Hutter, J. 
 PHYSICAL REVIEW B, 54 (3), 1703-1710 (1996). 
 Separable dual-space Gaussian pseudopotentials.
 https://doi.org/10.1103/PhysRevB.54.1703


 -------------------------------------------------------------------------------
 -                                                                             -
 -                                T I M I N G                                  -
 -                                                                             -
 -------------------------------------------------------------------------------
 SUBROUTINE                       CALLS  ASD         SELF TIME        TOTAL TIME
                                MAXIMUM       AVERAGE  MAXIMUM  AVERAGE  MAXIMUM
 CP2K                                 1  1.0    0.019    0.039  852.757  852.758
 qs_forces                            1  2.0    0.001    0.001  852.347  852.349
 qs_energies                          1  3.0    0.000    0.000  837.552  837.556
 scf_env_do_scf                       1  4.0    0.000    0.000  824.839  824.969
 scf_env_do_scf_inner_loop           65  5.0    0.003    0.005  824.836  824.967
 rebuild_ks_matrix                   66  7.0    0.000    0.000  524.966  524.993
 qs_ks_build_kohn_sham_matrix        66  8.0    0.010    0.012  524.966  524.993
 qs_ks_update_qs_env                 65  6.0    0.001    0.001  514.876  514.903
 pw_transfer                       3056 12.1    0.231    0.328  294.101  296.675
 fft_wrap_pw1pw2                   3056 13.1    0.033    0.047  293.870  296.435
 fft_wrap_pw1pw2_200               2660 14.4   25.119   28.045  290.933  293.378
 pw_poisson_solve                    66  9.0    0.020    0.027  250.683  250.749
 implicit_poisson_solver_mixed_      66 10.0    6.752    7.281  235.553  235.715
 fft3d_ps                          3056 15.1  125.004  133.707  218.909  223.048
 qs_rho_update_rho_low               66  6.0    0.001    0.001  199.322  199.335
 calculate_rho_elec                  66  7.0    0.362    0.395  199.321  199.334
 sum_up_and_integrate                66  9.0    1.027    1.115  187.423  187.461
 integrate_v_rspace                  66 10.0    0.002    0.002  186.395  186.526
 grid_collocate_task_list            66  8.0   88.319  172.412   88.319  172.412
 derive_fft                         320 12.2    0.023    0.028  165.568  166.618
 grid_integrate_task_list            66 11.0   81.696  159.556   81.696  159.556
 rs_pw_transfer                     532 10.5    0.006    0.007  110.148  137.898
 density_rs2pw                       66  8.0    0.005    0.005  109.180  136.817
 apply_P_operator                   254 11.2    2.382    2.724  133.905  134.683
 mp_waitany                       10448 12.4   91.780  119.202   91.780  119.202
 rs_pw_transfer_RS2PW_200            68 10.0    3.791    4.368   90.129  117.876
 mp_alltoall_d11v                   940 10.3   80.409  106.092   80.409  106.092
 rs_gather_matrices                  66 11.0    0.256    0.303   79.203  104.919
 qs_scf_new_mos                      65  6.0    0.001    0.001   81.851   81.934
 qs_vxc_create                       66  9.0    0.002    0.003   78.047   78.897
 xc_vxc_pw_create                    66 10.0    1.768    2.209   78.045   78.895
 eigensolver                         65  7.0    0.006    0.010   73.892   73.958
 x_to_yz                           1913 16.3   41.617   47.029   64.374   67.160
 mp_alltoall_z22v                  3056 17.1   40.196   58.575   40.196   58.575
 xc_pw_derive                       396 12.0    0.007    0.012   52.603   55.475
 apply_poisson_operator_fft          66 11.0    0.001    0.001   50.006   50.261
 cp_fm_diag_elpa                     66  8.0    0.001    0.001   46.915   47.015
 cp_fm_diag_elpa_base                66  9.0   45.933   46.041   46.805   46.868
 xc_rho_set_and_dset_create          66 11.0    0.757    0.920   40.682   41.558
 yz_to_x                           1143 15.8   12.020   12.742   29.459   40.408
 apply_inv_laplace_operator_fft     162 11.5    1.363    1.462   35.824   36.889
 xc_pw_divergence                    66 11.0    0.004    0.020   34.554   36.410
 pw_scatter_p                      1913 15.3   32.265   35.825   32.265   35.825
 ps_implicit_compute_veps            66 11.0    0.794    0.930   34.844   35.568
 gspace_mixing                       64  6.0    0.351    0.377   31.232   31.233
 pw_derive                         1356 13.1   25.950   27.067   25.950   27.067
 cp_fm_triangular_multiply          195  8.0   26.183   26.418   26.183   26.418
 potential_pw2rs                     66 11.0    0.053    0.061   25.484   25.587
 ps_implicit_compute_error_fft       94 10.9    1.749    1.858   23.211   24.701
 broyden_mixing                      64  7.0   22.797   23.174   23.391   23.524
 pw_gather_p                       1143 14.8   17.247   18.130   17.247   18.130
 -------------------------------------------------------------------------------

 The number of warnings for this run is : 1
 
 -------------------------------------------------------------------------------
  **** **** ******  **  PROGRAM ENDED AT                 2023-12-02 22:48:46.506
 ***** ** ***  *** **   PROGRAM RAN ON                                     cu042
 **    ****   ******    PROGRAM RAN BY                                     jxzhu
 ***** **    ** ** **   PROGRAM PROCESS ID                                 28884
  **** **  *******  **  PROGRAM STOPPED IN /public/home/jxzhu/tmp_calc/04c0855f9
                                           8753fac23fde4df51ba20f3741a9e9a/calc/
                                           task.002.000015
