 DBCSR| CPU Multiplication driver                                           XSMM
 DBCSR| Multrec recursion limit                                              512
 DBCSR| Multiplication stack size                                           1000
 DBCSR| Maximum elements for images                                    UNLIMITED
 DBCSR| Multiplicative factor virtual images                                   1
 DBCSR| Use multiplication densification                                       T
 DBCSR| Multiplication size stacks                                             3
 DBCSR| Use memory pool for CPU allocation                                     F
 DBCSR| Number of 3D layers                                               SINGLE
 DBCSR| Use MPI memory allocation                                              F
 DBCSR| Use RMA algorithm                                                      F
 DBCSR| Use Communication thread                                               T
 DBCSR| Communication thread load                                             87
 DBCSR| MPI: My node id                                                        0
 DBCSR| MPI: Number of nodes                                                 128
 DBCSR| OMP: Current number of threads                                         1
 DBCSR| OMP: Max number of threads                                             1
 DBCSR| Split modifier for TAS multiplication algorithm                  1.0E+00


  **** **** ******  **  PROGRAM STARTED AT               2023-12-02 15:39:28.549
 ***** ** ***  *** **   PROGRAM STARTED ON                                 cu062
 **    ****   ******    PROGRAM STARTED BY                                 jxzhu
 ***** **    ** ** **   PROGRAM PROCESS ID                                 28957
  **** **  *******  **  PROGRAM STARTED IN /public/home/jxzhu/tmp_calc/2b4432348
                                           7d203aa235aa9778e6076857b597860/calc/
                                           001700.000/search_hi.000004

 CP2K| version string:                                       CP2K version 2022.1
 CP2K| source code revision number:                                  git:2caeb6f
 CP2K| cp2kflags: omp libint fftw3 libxc elpa parallel mpi3 scalapack cosma xsmm
 CP2K|             plumed2 spglib mkl sirius libvori libbqb
 CP2K| is freely available from                            https://www.cp2k.org/
 CP2K| Program compiled at                           Mon Jul 3 17:37:06 CST 2023
 CP2K| Program compiled on                                                 mu003
 CP2K| Program compiled for                                                local
 CP2K| Data directory path                             /public/home/jxzhu/basis/
 CP2K| Input file name                                                 input.inp
 
 GLOBAL| Force Environment number                                              1
 GLOBAL| Basis set file name                                        BASIS_MOLOPT
 GLOBAL| Potential file name                                      GTH_POTENTIALS
 GLOBAL| MM Potential file name                                     MM_POTENTIAL
 GLOBAL| Coordinate file name                                          coord.xyz
 GLOBAL| Method name                                                        CP2K
 GLOBAL| Project name                                                       cp2k
 GLOBAL| Run type                                                   ENERGY_FORCE
 GLOBAL| FFT library                                                       FFTW3
 GLOBAL| Diagonalization library                                            ELPA
 GLOBAL| Minimum number of eigenvectors for ELPA usage                        16
 GLOBAL| Orthonormality check for eigenvectors                          DISABLED
 GLOBAL| Matrix multiplication library                                     COSMA
 GLOBAL| All-to-all communication in single precision                          F
 GLOBAL| FFTs using library dependent lengths                                  T
 GLOBAL| Grid backend                                                       AUTO
 GLOBAL| Global print level                                               MEDIUM
 GLOBAL| MPI I/O enabled                                                       T
 GLOBAL| Total number of message passing processes                           128
 GLOBAL| Number of threads for this process                                    1
 GLOBAL| This output is from process                                           0
 GLOBAL| Stack size for threads created by OpenMP (OMP_STACKSIZE)        default
 GLOBAL| CPU model name                 Intel(R) Xeon(R) Gold 6338 CPU @ 2.00GHz
 GLOBAL| CPUID                                                              1003

 MEMORY| system memory details [Kb]
 MEMORY|                        rank 0           min           max       average
 MEMORY| MemTotal            263619172     263619168     263619172     263619170
 MEMORY| MemFree             190377224     190377224     193663188     192019359
 MEMORY| Buffers                  3320            44          3320          1682
 MEMORY| Cached                1741912       1128444       1741912       1435179
 MEMORY| Slab                  2027504       1847780       2027504       1937642
 MEMORY| SReclaimable           251348        228884        251348        240116
 MEMORY| MemLikelyFree       192373804     192373804     195020560     193696337


 *** Fundamental physical constants (SI units) ***

 *** Literature: B. J. Mohr and B. N. Taylor,
 ***             CODATA recommended values of the fundamental physical
 ***             constants: 2006, Web Version 5.1
 ***             http://physics.nist.gov/constants

 Speed of light in vacuum [m/s]                             2.99792458000000E+08
 Magnetic constant or permeability of vacuum [N/A**2]       1.25663706143592E-06
 Electric constant or permittivity of vacuum [F/m]          8.85418781762039E-12
 Planck constant (h) [J*s]                                  6.62606896000000E-34
 Planck constant (h-bar) [J*s]                              1.05457162825177E-34
 Elementary charge [C]                                      1.60217648700000E-19
 Electron mass [kg]                                         9.10938215000000E-31
 Electron g factor [ ]                                     -2.00231930436220E+00
 Proton mass [kg]                                           1.67262163700000E-27
 Fine-structure constant                                    7.29735253760000E-03
 Rydberg constant [1/m]                                     1.09737315685270E+07
 Avogadro constant [1/mol]                                  6.02214179000000E+23
 Boltzmann constant [J/K]                                   1.38065040000000E-23
 Atomic mass unit [kg]                                      1.66053878200000E-27
 Bohr radius [m]                                            5.29177208590000E-11

 *** Conversion factors ***

 [u] -> [a.u.]                                              1.82288848426455E+03
 [Angstrom] -> [Bohr] = [a.u.]                              1.88972613288564E+00
 [a.u.] = [Bohr] -> [Angstrom]                              5.29177208590000E-01
 [a.u.] -> [s]                                              2.41888432650478E-17
 [a.u.] -> [fs]                                             2.41888432650478E-02
 [a.u.] -> [J]                                              4.35974393937059E-18
 [a.u.] -> [N]                                              8.23872205491840E-08
 [a.u.] -> [K]                                              3.15774647902944E+05
 [a.u.] -> [kJ/mol]                                         2.62549961709828E+03
 [a.u.] -> [kcal/mol]                                       6.27509468713739E+02
 [a.u.] -> [Pa]                                             2.94210107994716E+13
 [a.u.] -> [bar]                                            2.94210107994716E+08
 [a.u.] -> [atm]                                            2.90362800883016E+08
 [a.u.] -> [eV]                                             2.72113838565563E+01
 [a.u.] -> [Hz]                                             6.57968392072181E+15
 [a.u.] -> [1/cm] (wave numbers)                            2.19474631370540E+05
 [a.u./Bohr**2] -> [1/cm]                                   5.14048714338585E+03
 

 CELL_TOP| Volume [angstrom^3]:                                     17614.982639
 CELL_TOP| Vector a [angstrom    16.869     0.000     0.000   |a| =    16.869000
 CELL_TOP| Vector b [angstrom    -8.434    14.609     0.000   |b| =    16.869015
 CELL_TOP| Vector c [angstrom     0.000     0.000    71.478   |c| =    71.478000
 CELL_TOP| Angle (b,c), alpha [degree]:                                90.000000
 CELL_TOP| Angle (a,c), beta  [degree]:                                90.000000
 CELL_TOP| Angle (a,b), gamma [degree]:                               119.999970
 CELL_TOP| Numerically orthorhombic:                                          NO
 
 GENERATE|  Preliminary Number of Bonds generated:                             0
 GENERATE|  Achieved consistency in connectivity generation.

 CELL| Volume [angstrom^3]:                                         17614.982639
 CELL| Vector a [angstrom]:      16.869     0.000     0.000   |a| =    16.869000
 CELL| Vector b [angstrom]:      -8.434    14.609     0.000   |b| =    16.869015
 CELL| Vector c [angstrom]:       0.000     0.000    71.478   |c| =    71.478000
 CELL| Angle (b,c), alpha [degree]:                                    90.000000
 CELL| Angle (a,c), beta  [degree]:                                    90.000000
 CELL| Angle (a,b), gamma [degree]:                                   119.999970
 CELL| Numerically orthorhombic:                                              NO

 CELL_REF| Volume [angstrom^3]:                                     17614.982639
 CELL_REF| Vector a [angstrom    16.869     0.000     0.000   |a| =    16.869000
 CELL_REF| Vector b [angstrom    -8.434    14.609     0.000   |b| =    16.869015
 CELL_REF| Vector c [angstrom     0.000     0.000    71.478   |c| =    71.478000
 CELL_REF| Angle (b,c), alpha [degree]:                                90.000000
 CELL_REF| Angle (a,c), beta  [degree]:                                90.000000
 CELL_REF| Angle (a,b), gamma [degree]:                               119.999970
 CELL_REF| Numerically orthorhombic:                                          NO

 *******************************************************************************
 *******************************************************************************
 **                                                                           **
 **     #####                         ##              ##                      **
 **    ##   ##            ##          ##              ##                      **
 **   ##     ##                       ##            ######                    **
 **   ##     ##  ##   ##  ##   #####  ##  ##   ####   ##    #####    #####    **
 **   ##     ##  ##   ##  ##  ##      ## ##   ##      ##   ##   ##  ##   ##   **
 **   ##  ## ##  ##   ##  ##  ##      ####     ###    ##   ######   ######    **
 **    ##  ###   ##   ##  ##  ##      ## ##      ##   ##   ##       ##        **
 **     #######   #####   ##   #####  ##  ##  ####    ##    #####   ##        **
 **           ##                                                    ##        **
 **                                                                           **
 **                                                ... make the atoms dance   **
 **                                                                           **
 **            Copyright (C) by CP2K developers group (2000-2022)             **
 **                      J. Chem. Phys. 152, 194103 (2020)                    **
 **                                                                           **
 *******************************************************************************

 DFT| Spin restricted Kohn-Sham (RKS) calculation                            RKS
 DFT| Multiplicity                                                             1
 DFT| Number of spin states                                                    1
 DFT| Charge                                                                   0
 DFT| Self-interaction correction (SIC)                                       NO
 DFT| Cutoffs: density                                              1.000000E-10
 DFT|          gradient                                             1.000000E-10
 DFT|          tau                                                  1.000000E-10
 DFT|          cutoff_smoothing_range                               0.000000E+00
 DFT| XC density smoothing                                                  NONE
 DFT| XC derivatives                                                          PW

 FUNCTIONAL| PBE:
 FUNCTIONAL| J.P.Perdew, K.Burke, M.Ernzerhof, Phys. Rev. Letter, vol. 77, n 18,
 FUNCTIONAL|  pp. 3865-3868, (1996){spin unpolarized}                           

 vdW POTENTIAL|                                                   Pair Potential
 vdW POTENTIAL|          DFT-D3 (Version 3.1)
 vdW POTENTIAL|          Potential Form: S. Grimme et al, JCP 132: 154104 (2010)
 vdW POTENTIAL|          Zero Damping
 vdW POTENTIAL|          Cutoff Radius [Bohr]:                             20.00
 vdW POTENTIAL|          s6 Scaling Factor:                               1.0000
 vdW POTENTIAL|          sr6 Scaling Factor:                              1.2170
 vdW POTENTIAL|          s8 Scaling Factor:                               0.7220
 vdW POTENTIAL|          Cutoff for CN calculation:                   0.1000E-05

 QS| Method:                                                                 GPW
 QS| Density plane wave grid type                        NON-SPHERICAL FULLSPACE
 QS| Number of grid levels:                                                    4
 QS| Density cutoff [a.u.]:                                                200.0
 QS| Multi grid cutoff [a.u.]: 1) grid level                               200.0
 QS|                           2) grid level                                66.7
 QS|                           3) grid level                                22.2
 QS|                           4) grid level                                 7.4
 QS| Grid level progression factor:                                          3.0
 QS| Relative density cutoff [a.u.]:                                        20.0
 QS| Interaction thresholds: eps_pgf_orb:                                3.2E-07
 QS|                         eps_filter_matrix:                          0.0E+00
 QS|                         eps_core_charge:                            1.0E-15
 QS|                         eps_rho_gspace:                             1.0E-13
 QS|                         eps_rho_rspace:                             1.0E-13
 QS|                         eps_gvg_rspace:                             3.2E-07
 QS|                         eps_ppl:                                    1.0E-02
 QS|                         eps_ppnl:                                   3.2E-09


 ATOMIC KIND INFORMATION

  1. Atomic kind: O                                     Number of atoms:     104

     Orbital Basis Set                                        DZVP-MOLOPT-SR-GTH

       Number of orbital shell sets:                                           1
       Number of orbital shells:                                               5
       Number of primitive Cartesian functions:                                5
       Number of Cartesian basis functions:                                   14
       Number of spherical basis functions:                                   13
       Norm type:                                                              2

       Normalised Cartesian orbitals:

                        Set   Shell   Orbital            Exponent    Coefficient

                          1       1    2s               10.389228       0.396646
                                                         3.849621       0.208811
                                                         1.388401      -0.301641
                                                         0.496955      -0.274061
                                                         0.162492      -0.033677

                          1       2    3s               10.389228       0.303673
                                                         3.849621       0.240943
                                                         1.388401      -0.313066
                                                         0.496955      -0.043055
                                                         0.162492       0.213991

                          1       3    3px              10.389228      -1.530415
                                                         3.849621      -1.371928
                                                         1.388401      -0.761951
                                                         0.496955      -0.253695
                                                         0.162492      -0.035541
                          1       3    3py              10.389228      -1.530415
                                                         3.849621      -1.371928
                                                         1.388401      -0.761951
                                                         0.496955      -0.253695
                                                         0.162492      -0.035541
                          1       3    3pz              10.389228      -1.530415
                                                         3.849621      -1.371928
                                                         1.388401      -0.761951
                                                         0.496955      -0.253695
                                                         0.162492      -0.035541

                          1       4    4px              10.389228      -0.565392
                                                         3.849621      -0.038231
                                                         1.388401      -0.382373
                                                         0.496955       0.179070
                                                         0.162492       0.122714
                          1       4    4py              10.389228      -0.565392
                                                         3.849621      -0.038231
                                                         1.388401      -0.382373
                                                         0.496955       0.179070
                                                         0.162492       0.122714
                          1       4    4pz              10.389228      -0.565392
                                                         3.849621      -0.038231
                                                         1.388401      -0.382373
                                                         0.496955       0.179070
                                                         0.162492       0.122714

                          1       5    4dx2             10.389228       1.867377
                                                         3.849621       0.670994
                                                         1.388401       1.353441
                                                         0.496955       0.273538
                                                         0.162492       0.006620
                          1       5    4dxy             10.389228       3.234392
                                                         3.849621       1.162195
                                                         1.388401       2.344229
                                                         0.496955       0.473781
                                                         0.162492       0.011466
                          1       5    4dxz             10.389228       3.234392
                                                         3.849621       1.162195
                                                         1.388401       2.344229
                                                         0.496955       0.473781
                                                         0.162492       0.011466
                          1       5    4dy2             10.389228       1.867377
                                                         3.849621       0.670994
                                                         1.388401       1.353441
                                                         0.496955       0.273538
                                                         0.162492       0.006620
                          1       5    4dyz             10.389228       3.234392
                                                         3.849621       1.162195
                                                         1.388401       2.344229
                                                         0.496955       0.473781
                                                         0.162492       0.011466
                          1       5    4dz2             10.389228       1.867377
                                                         3.849621       0.670994
                                                         1.388401       1.353441
                                                         0.496955       0.273538
                                                         0.162492       0.006620

       Atomic covalent radius [Angstrom]:                                  0.730

       Atomic van der Waals radius [Angstrom]:                             1.520

     GTH Potential information for                                    GTH-PBE-q6

       Description:                       Goedecker-Teter-Hutter pseudopotential
                                           Goedecker et al., PRB 54, 1703 (1996)
                                          Hartwigsen et al., PRB 58, 3641 (1998)
                                                      Krack, TCA 114, 145 (2005)

       Gaussian exponent of the core charge distribution:               8.360253
       Electronic configuration (s p d ...):                               2   4

       Parameters of the local part of the GTH pseudopotential:

                          rloc        C1          C2          C3          C4
                        0.244554  -16.667215    2.487311

       Parameters of the non-local part of the GTH pseudopotential:

                   l      r(l)      h(i,j,l)

                   0    0.220956   18.337458
                   1    0.211332

  2. Atomic kind: H                                     Number of atoms:     208

     Orbital Basis Set                                        DZVP-MOLOPT-SR-GTH

       Number of orbital shell sets:                                           1
       Number of orbital shells:                                               3
       Number of primitive Cartesian functions:                                5
       Number of Cartesian basis functions:                                    5
       Number of spherical basis functions:                                    5
       Norm type:                                                              2

       Normalised Cartesian orbitals:

                        Set   Shell   Orbital            Exponent    Coefficient

                          1       1    2s               10.068468      -0.133023
                                                         2.680223      -0.177618
                                                         0.791502      -0.258419
                                                         0.239116      -0.107525
                                                         0.082193      -0.014019

                          1       2    3s               10.068468       0.344673
                                                         2.680223       1.819821
                                                         0.791502      -0.999069
                                                         0.239116       0.017430
                                                         0.082193       0.082660

                          1       3    3px              10.068468       0.155326
                                                         2.680223       0.367157
                                                         0.791502       0.311480
                                                         0.239116       0.080105
                                                         0.082193       0.033440
                          1       3    3py              10.068468       0.155326
                                                         2.680223       0.367157
                                                         0.791502       0.311480
                                                         0.239116       0.080105
                                                         0.082193       0.033440
                          1       3    3pz              10.068468       0.155326
                                                         2.680223       0.367157
                                                         0.791502       0.311480
                                                         0.239116       0.080105
                                                         0.082193       0.033440

       Atomic covalent radius [Angstrom]:                                  0.320

       Atomic van der Waals radius [Angstrom]:                             1.090

     GTH Potential information for                                    GTH-PBE-q1

       Description:                       Goedecker-Teter-Hutter pseudopotential
                                           Goedecker et al., PRB 54, 1703 (1996)
                                          Hartwigsen et al., PRB 58, 3641 (1998)
                                                      Krack, TCA 114, 145 (2005)

       Gaussian exponent of the core charge distribution:              12.500000
       Electronic configuration (s p d ...):                                   1

       Parameters of the local part of the GTH pseudopotential:

                          rloc        C1          C2          C3          C4
                        0.200000   -4.178900    0.724463

  3. Atomic kind: Pt                                    Number of atoms:     216

     Orbital Basis Set                      DZVP-A5-Q10-323-MOL-T1-DERIVED_SET-1

       Number of orbital shell sets:                                           1
       Number of orbital shells:                                               6
       Number of primitive Cartesian functions:                                5
       Number of Cartesian basis functions:                                   23
       Number of spherical basis functions:                                   20
       Norm type:                                                              2

       Normalised Cartesian orbitals:

                        Set   Shell   Orbital            Exponent    Coefficient

                          1       1    2s                2.521825       0.177473
                                                         1.453920      -0.063399
                                                         0.614053      -0.407089
                                                         0.232656       0.262254
                                                         0.074788       0.047371

                          1       2    3s                2.521825      -0.049056
                                                         1.453920       0.044904
                                                         0.614053      -0.009756
                                                         0.232656      -0.144709
                                                         0.074788       0.144085

                          1       3    3px               2.521825      -0.317572
                                                         1.453920       0.534826
                                                         0.614053      -0.489458
                                                         0.232656       0.245631
                                                         0.074788       0.018221
                          1       3    3py               2.521825      -0.317572
                                                         1.453920       0.534826
                                                         0.614053      -0.489458
                                                         0.232656       0.245631
                                                         0.074788       0.018221
                          1       3    3pz               2.521825      -0.317572
                                                         1.453920       0.534826
                                                         0.614053      -0.489458
                                                         0.232656       0.245631
                                                         0.074788       0.018221

                          1       4    4dx2              2.521825       3.008522
                                                         1.453920      -1.224251
                                                         0.614053       0.225691
                                                         0.232656       0.125144
                                                         0.074788      -0.015348
                          1       4    4dxy              2.521825       5.210912
                                                         1.453920      -2.120465
                                                         0.614053       0.390909
                                                         0.232656       0.216756
                                                         0.074788      -0.026584
                          1       4    4dxz              2.521825       5.210912
                                                         1.453920      -2.120465
                                                         0.614053       0.390909
                                                         0.232656       0.216756
                                                         0.074788      -0.026584
                          1       4    4dy2              2.521825       3.008522
                                                         1.453920      -1.224251
                                                         0.614053       0.225691
                                                         0.232656       0.125144
                                                         0.074788      -0.015348
                          1       4    4dyz              2.521825       5.210912
                                                         1.453920      -2.120465
                                                         0.614053       0.390909
                                                         0.232656       0.216756
                                                         0.074788      -0.026584
                          1       4    4dz2              2.521825       3.008522
                                                         1.453920      -1.224251
                                                         0.614053       0.225691
                                                         0.232656       0.125144
                                                         0.074788      -0.015348

                          1       5    5dx2              2.521825       0.698026
                                                         1.453920      -1.511486
                                                         0.614053      -0.335394
                                                         0.232656      -0.025564
                                                         0.074788      -0.002699
                          1       5    5dxy              2.521825       1.209017
                                                         1.453920      -2.617970
                                                         0.614053      -0.580920
                                                         0.232656      -0.044277
                                                         0.074788      -0.004674
                          1       5    5dxz              2.521825       1.209017
                                                         1.453920      -2.617970
                                                         0.614053      -0.580920
                                                         0.232656      -0.044277
                                                         0.074788      -0.004674
                          1       5    5dy2              2.521825       0.698026
                                                         1.453920      -1.511486
                                                         0.614053      -0.335394
                                                         0.232656      -0.025564
                                                         0.074788      -0.002699
                          1       5    5dyz              2.521825       1.209017
                                                         1.453920      -2.617970
                                                         0.614053      -0.580920
                                                         0.232656      -0.044277
                                                         0.074788      -0.004674
                          1       5    5dz2              2.521825       0.698026
                                                         1.453920      -1.511486
                                                         0.614053      -0.335394
                                                         0.232656      -0.025564
                                                         0.074788      -0.002699

                          1       6    6dx2              2.521825       0.831079
                                                         1.453920      -0.709226
                                                         0.614053      -0.137351
                                                         0.232656       0.068642
                                                         0.074788       0.011745
                          1       6    6dxy              2.521825       1.439472
                                                         1.453920      -1.228415
                                                         0.614053      -0.237899
                                                         0.232656       0.118891
                                                         0.074788       0.020343
                          1       6    6dxz              2.521825       1.439472
                                                         1.453920      -1.228415
                                                         0.614053      -0.237899
                                                         0.232656       0.118891
                                                         0.074788       0.020343
                          1       6    6dy2              2.521825       0.831079
                                                         1.453920      -0.709226
                                                         0.614053      -0.137351
                                                         0.232656       0.068642
                                                         0.074788       0.011745
                          1       6    6dyz              2.521825       1.439472
                                                         1.453920      -1.228415
                                                         0.614053      -0.237899
                                                         0.232656       0.118891
                                                         0.074788       0.020343
                          1       6    6dz2              2.521825       0.831079
                                                         1.453920      -0.709226
                                                         0.614053      -0.137351
                                                         0.232656       0.068642
                                                         0.074788       0.011745

       Atomic covalent radius [Angstrom]:                                  1.300

       Atomic van der Waals radius [Angstrom]:                             1.750

     GTH Potential information for                                   GTH-PBE-q10

       Description:                       Goedecker-Teter-Hutter pseudopotential
                                           Goedecker et al., PRB 54, 1703 (1996)
                                          Hartwigsen et al., PRB 58, 3641 (1998)
                                                      Krack, TCA 114, 145 (2005)

       Gaussian exponent of the core charge distribution:               1.317676
       Electronic configuration (s p d ...):                           1   0   9

       Parameters of the local part of the GTH pseudopotential:

                          rloc        C1          C2          C3          C4
                        0.616000   11.313635

       Parameters of the non-local part of the GTH pseudopotential:

                   l      r(l)      h(i,j,l)

                   0    0.550904    4.733491   -1.784594
                                   -1.784594    2.303901
                   1    0.674138    2.534798   -1.778066
                                   -1.778066    2.103836
                   2    0.457392   -7.264011    2.558665
                                    2.558665   -2.901253


 MOLECULE KIND INFORMATION


 All atoms are their own molecule, skipping detailed information


 TOTAL NUMBERS AND MAXIMUM NUMBERS

  Total number of            - Atomic kinds:                                   3
                             - Atoms:                                        528
                             - Shell sets:                                   528
                             - Shells:                                      2440
                             - Primitive Cartesian functions:               2640
                             - Cartesian basis functions:                   7464
                             - Spherical basis functions:                   6712

  Maximum angular momentum of- Orbital basis functions:                        2
                             - Local part of the GTH pseudopotential:          2
                             - Non-local part of the GTH pseudopotential:      4


 MODULE QUICKSTEP:  ATOMIC COORDINATES IN angstrom

 Atom  Kind  Element       X           Y           Z          Z(eff)       Mass
    1   1 O    8      13.770000  -20.670002   39.147998       6.0000     15.9994
    2   2 H    1      13.360001  -21.100002   38.437999       1.0000      1.0079
    3   2 H    1      13.720001  -19.760000   38.777999       1.0000      1.0079
    4   1 O    8     -30.950001  -21.690002   33.157998       6.0000     15.9994
    5   2 H    1     -30.880001  -20.710001   33.027999       1.0000      1.0079
    6   2 H    1     -30.940001  -21.809999   34.158000       1.0000      1.0079
    7   1 O    8     -11.720000  -18.380001   32.167999       6.0000     15.9994
    8   2 H    1     -11.740000  -17.530001   31.547998       1.0000      1.0079
    9   2 H    1     -11.250000  -17.910002   32.888000       1.0000      1.0079
   10   1 O    8       6.570000  -18.700001   38.898000       6.0000     15.9994
   11   2 H    1       5.870000  -18.390001   39.458000       1.0000      1.0079
   12   2 H    1       6.270000  -18.280001   38.017999       1.0000      1.0079
   13   1 O    8      -2.640000   16.460001   33.317998       6.0000     15.9994
   14   2 H    1      -2.410000   15.830001   34.027999       1.0000      1.0079
   15   2 H    1      -2.410000   16.120001   32.458000       1.0000      1.0079
   16   1 O    8      -1.010000   13.590001   37.107997       6.0000     15.9994
   17   2 H    1      -1.540000   12.860001   37.388000       1.0000      1.0079
   18   2 H    1      -0.810000   14.080001   37.978000       1.0000      1.0079
   19   1 O    8     -16.630001   34.090000   30.347999       6.0000     15.9994
   20   2 H    1     -15.750000   34.440002   30.088001       1.0000      1.0079
   21   2 H    1      -0.320000   34.710003   29.867999       1.0000      1.0079
   22   1 O    8      -6.340000   21.670000   35.708000       6.0000     15.9994
   23   2 H    1      -7.160000   22.240002   35.677999       1.0000      1.0079
   24   2 H    1      -5.710001   22.139999   36.328000       1.0000      1.0079
   25   1 O    8     -16.070002    0.840000   33.397998       6.0000     15.9994
   26   2 H    1     -15.230001    1.330000   33.277999       1.0000      1.0079
   27   2 H    1     -16.240002    0.860000   34.397998       1.0000      1.0079
   28   1 O    8     -11.480000    1.500000   30.517999       6.0000     15.9994
   29   2 H    1     -11.950001    2.220000   30.147998       1.0000      1.0079
   30   2 H    1     -12.150001    0.730000   30.627998       1.0000      1.0079
   31   1 O    8      14.380001   -6.610000   32.888000       6.0000     15.9994
   32   2 H    1      -2.580000   -7.610001   33.197997       1.0000      1.0079
   33   2 H    1      13.830000   -6.060000   33.417999       1.0000      1.0079
   34   1 O    8      23.870001   23.040001   33.817998       6.0000     15.9994
   35   2 H    1      23.160002   22.450001   33.647998       1.0000      1.0079
   36   2 H    1      24.490002   22.580002   33.238000       1.0000      1.0079
   37   1 O    8     -22.780001   15.380001   37.627998       6.0000     15.9994
   38   2 H    1     -22.980001   14.420000   37.847999       1.0000      1.0079
   39   2 H    1     -23.570002   15.620001   37.187999       1.0000      1.0079
   40   1 O    8     -21.830002   10.460000   32.298000       6.0000     15.9994
   41   2 H    1     -29.350002   25.350000   32.437999       1.0000      1.0079
   42   2 H    1     -21.900002    9.640000   32.837997       1.0000      1.0079
   43   1 O    8      -4.780000    1.310000   29.917999       6.0000     15.9994
   44   2 H    1      -3.980000    0.950000   29.428001       1.0000      1.0079
   45   2 H    1      -5.310000    1.660000   29.167999       1.0000      1.0079
   46   1 O    8      -3.010000    6.850000   30.647998       6.0000     15.9994
   47   2 H    1      -3.170000    6.030001   30.158000       1.0000      1.0079
   48   2 H    1      -3.760000    7.440000   30.347999       1.0000      1.0079
   49   1 O    8     -38.990002   17.100000   33.057998       6.0000     15.9994
   50   2 H    1     -39.050003   17.970001   32.607997       1.0000      1.0079
   51   2 H    1     -37.960003   16.970001   33.127998       1.0000      1.0079
   52   1 O    8     -12.050000    6.330000   39.458000       6.0000     15.9994
   53   2 H    1     -12.290001    6.520000   38.527997       1.0000      1.0079
   54   2 H    1     -11.310000    5.690000   39.407998       1.0000      1.0079
   55   1 O    8      38.170002  -13.080001   34.447997       6.0000     15.9994
   56   2 H    1      38.270000  -12.490001   35.237998       1.0000      1.0079
   57   2 H    1      38.960003  -12.910000   33.887998       1.0000      1.0079
   58   1 O    8     -38.590004   -1.260000   33.767999       6.0000     15.9994
   59   2 H    1     -21.730001   -0.310000   33.987998       1.0000      1.0079
   60   2 H    1     -22.380001   -1.280000   33.007999       1.0000      1.0079
   61   1 O    8      -9.690001   19.080002   33.397998       6.0000     15.9994
   62   2 H    1      -8.920000   19.730000   33.227998       1.0000      1.0079
   63   2 H    1      -9.470000   18.700001   34.327998       1.0000      1.0079
   64   1 O    8      16.270000    3.660000   36.267999       6.0000     15.9994
   65   2 H    1      17.170002    4.080000   36.428001       1.0000      1.0079
   66   2 H    1      15.750000    3.710000   37.137998       1.0000      1.0079
   67   1 O    8      12.260000   -6.620001   37.507999       6.0000     15.9994
   68   2 H    1      12.940001   -6.230001   36.927999       1.0000      1.0079
   69   2 H    1      11.960001   -6.030001   38.257999       1.0000      1.0079
   70   1 O    8       8.350000   13.440001   31.427997       6.0000     15.9994
   71   2 H    1       8.850000   14.150001   31.867999       1.0000      1.0079
   72   2 H    1       8.630000   12.630000   31.937999       1.0000      1.0079
   73   1 O    8     -17.380001   21.300001   29.837997       6.0000     15.9994
   74   2 H    1     -17.130001   21.130001   28.877998       1.0000      1.0079
   75   2 H    1     -18.190001   21.840000   29.817996       1.0000      1.0079
   76   1 O    8      -0.060000  -20.760002   36.197999       6.0000     15.9994
   77   2 H    1      -0.410000  -21.520002   36.877998       1.0000      1.0079
   78   2 H    1      -0.580000  -20.870001   35.297998       1.0000      1.0079
   79   1 O    8      11.710000    6.340000   37.218000       6.0000     15.9994
   80   2 H    1      10.960001    5.930000   37.697997       1.0000      1.0079
   81   2 H    1      11.550001    6.130000   36.287998       1.0000      1.0079
   82   1 O    8     -10.690001   12.980001   33.847999       6.0000     15.9994
   83   2 H    1     -11.430000   13.580000   33.977998       1.0000      1.0079
   84   2 H    1     -10.150002   13.450001   33.257999       1.0000      1.0079
   85   1 O    8       4.340000   -0.920000   31.157998       6.0000     15.9994
   86   2 H    1       4.340000   -0.970000   32.137998       1.0000      1.0079
   87   2 H    1       3.390000   -1.100000   30.867997       1.0000      1.0079
   88   1 O    8       0.940000   36.240002   39.917999       6.0000     15.9994
   89   2 H    1       0.250000   36.350002   39.197999       1.0000      1.0079
   90   2 H    1       1.430000   35.390003   39.707998       1.0000      1.0079
   91   1 O    8       4.320000   -3.980000   35.567998       6.0000     15.9994
   92   2 H    1      -3.610000   11.100000   36.267999       1.0000      1.0079
   93   2 H    1       3.620000   -3.320000   35.307998       1.0000      1.0079
   94   1 O    8      16.710001   -5.380001   33.757999       6.0000     15.9994
   95   2 H    1      16.040001   -5.950000   33.357997       1.0000      1.0079
   96   2 H    1      17.610001   -5.890000   33.527997       1.0000      1.0079
   97   1 O    8      16.810001    2.600000   29.127998       6.0000     15.9994
   98   2 H    1      17.730001    2.120000   29.447997       1.0000      1.0079
   99   2 H    1      16.880001    3.470000   29.728000       1.0000      1.0079
  100   1 O    8      25.170002    0.240000   39.277999       6.0000     15.9994
  101   2 H    1      24.700001   -0.220000   40.017999       1.0000      1.0079
  102   2 H    1      26.160002    0.000000   39.337999       1.0000      1.0079
  103   1 O    8      -5.930000  -19.800001   37.007999       6.0000     15.9994
  104   2 H    1      -5.920000  -20.780001   37.128000       1.0000      1.0079
  105   2 H    1      -5.090000  -19.610001   36.457998       1.0000      1.0079
  106   1 O    8      27.790001   -4.530000   32.567998       6.0000     15.9994
  107   2 H    1      27.250002   -4.080000   33.267997       1.0000      1.0079
  108   2 H    1      28.760002   -4.220000   32.617999       1.0000      1.0079
  109   1 O    8      -6.670001    3.380000   33.947997       6.0000     15.9994
  110   2 H    1      -6.230001    3.320000   32.978000       1.0000      1.0079
  111   2 H    1      -6.060000    2.780000   34.458000       1.0000      1.0079
  112   1 O    8      19.050001   -6.500000   33.247999       6.0000     15.9994
  113   2 H    1      19.310001   -7.260000   33.747999       1.0000      1.0079
  114   2 H    1      18.810001   -6.810000   32.327998       1.0000      1.0079
  115   1 O    8      16.130001   18.550001   32.958000       6.0000     15.9994
  116   2 H    1      17.000000   18.450001   33.338001       1.0000      1.0079
  117   2 H    1      15.710001   17.800001   33.478000       1.0000      1.0079
  118   1 O    8       0.570000   11.910001   33.887998       6.0000     15.9994
  119   2 H    1       0.360000   11.720000   34.787999       1.0000      1.0079
  120   2 H    1      -0.250000   11.760000   33.397998       1.0000      1.0079
  121   1 O    8      -9.920000    4.620000   38.887998       6.0000     15.9994
  122   2 H    1     -10.270000    4.140000   38.087999       1.0000      1.0079
  123   2 H    1      -8.930000    4.670000   38.798000       1.0000      1.0079
  124   1 O    8     -21.330002   18.120001   35.787998       6.0000     15.9994
  125   2 H    1     -21.370001   17.340000   35.237998       1.0000      1.0079
  126   2 H    1     -20.500002   18.020000   36.367999       1.0000      1.0079
  127   1 O    8      -3.200000    4.730000   37.867997       6.0000     15.9994
  128   2 H    1      -3.510000    4.560000   38.807998       1.0000      1.0079
  129   2 H    1      -3.980000    5.170000   37.458000       1.0000      1.0079
  130   1 O    8       5.350000  -16.670000   29.907996       6.0000     15.9994
  131   2 H    1       4.550000  -16.460001   29.367999       1.0000      1.0079
  132   2 H    1       5.870000  -15.860001   29.987998       1.0000      1.0079
  133   1 O    8      19.580000    2.400000   39.648000       6.0000     15.9994
  134   2 H    1      19.490002    3.390000   39.518001       1.0000      1.0079
  135   2 H    1      19.500000    1.870000   38.828000       1.0000      1.0079
  136   1 O    8      -0.820000   22.350002   38.247999       6.0000     15.9994
  137   2 H    1      -1.590000   22.700003   38.667999       1.0000      1.0079
  138   2 H    1      -0.490000   23.120001   37.718000       1.0000      1.0079
  139   1 O    8     -31.350002   34.260002   39.367999       6.0000     15.9994
  140   2 H    1     -31.410000   34.210003   38.367999       1.0000      1.0079
  141   2 H    1     -30.450001   34.600002   39.667999       1.0000      1.0079
  142   1 O    8      -9.880000    6.090000   36.107999       6.0000     15.9994
  143   2 H    1      -9.850000    6.780000   36.827998       1.0000      1.0079
  144   2 H    1     -10.460000    6.310000   35.378000       1.0000      1.0079
  145   1 O    8       6.680000   16.320002   32.517999       6.0000     15.9994
  146   2 H    1      16.060001    1.670000   32.837997       1.0000      1.0079
  147   2 H    1     -10.170001   17.270000   32.137998       1.0000      1.0079
  148   1 O    8      -5.420001   -8.200001   30.637998       6.0000     15.9994
  149   2 H    1      -5.340000   -7.950000   31.628000       1.0000      1.0079
  150   2 H    1      -4.860000   -8.990001   30.417999       1.0000      1.0079
  151   1 O    8      10.360001   -0.390000   31.617997       6.0000     15.9994
  152   2 H    1      11.120001    0.220000   31.317998       1.0000      1.0079
  153   2 H    1       9.650001   -0.650000   30.967998       1.0000      1.0079
  154   1 O    8      -0.960000   15.360001   29.167999       6.0000     15.9994
  155   2 H    1      -0.420000   16.180000   29.257999       1.0000      1.0079
  156   2 H    1      -1.790000   15.610001   29.548000       1.0000      1.0079
  157   1 O    8     -28.420002    0.270000   35.838001       6.0000     15.9994
  158   2 H    1     -29.030001    0.330000   36.568000       1.0000      1.0079
  159   2 H    1     -27.700003   -0.320000   36.177999       1.0000      1.0079
  160   1 O    8       0.690000   26.370001   39.728000       6.0000     15.9994
  161   2 H    1      -0.280000   26.310001   39.488000       1.0000      1.0079
  162   2 H    1       0.900000   25.300003   39.878000       1.0000      1.0079
  163   1 O    8     -15.930000   -3.140000   33.007999       6.0000     15.9994
  164   2 H    1     -14.970001   -3.320000   32.857999       1.0000      1.0079
  165   2 H    1     -16.410000   -3.920000   33.317998       1.0000      1.0079
  166   1 O    8       1.360000   -4.480000   29.327998       6.0000     15.9994
  167   2 H    1       0.360000   -4.370000   29.397998       1.0000      1.0079
  168   2 H    1       1.670000   -3.590000   29.568000       1.0000      1.0079
  169   1 O    8       6.170001   -3.790000   32.777999       6.0000     15.9994
  170   2 H    1       6.380000   -4.600000   33.357997       1.0000      1.0079
  171   2 H    1       6.490001   -3.980000   31.877998       1.0000      1.0079
  172   1 O    8       2.020000   -2.110000   29.977996       6.0000     15.9994
  173   2 H    1       2.190000   -1.670000   29.027995       1.0000      1.0079
  174   2 H    1       1.290000   -1.620000   30.437999       1.0000      1.0079
  175   1 O    8       4.870000   25.700001   38.367999       6.0000     15.9994
  176   2 H    1      12.360001   11.480000   38.257999       1.0000      1.0079
  177   2 H    1       5.020000   26.090002   39.298000       1.0000      1.0079
  178   1 O    8       2.690000    8.960000   39.648000       6.0000     15.9994
  179   2 H    1       1.970000    8.280001   39.787999       1.0000      1.0079
  180   2 H    1       2.160000    9.780001   39.437999       1.0000      1.0079
  181   1 O    8       8.650001   15.500001   36.017999       6.0000     15.9994
  182   2 H    1       8.230000   14.800000   36.617997       1.0000      1.0079
  183   2 H    1       8.290001   16.420000   36.097999       1.0000      1.0079
  184   1 O    8      20.389999   40.970001   35.947999       6.0000     15.9994
  185   2 H    1      19.560001   40.660000   36.267999       1.0000      1.0079
  186   2 H    1      20.180000   41.340004   35.007999       1.0000      1.0079
  187   1 O    8      18.220001   -9.880000   38.877998       6.0000     15.9994
  188   2 H    1      18.110001  -10.620001   38.238000       1.0000      1.0079
  189   2 H    1      18.490002  -10.270000   39.728000       1.0000      1.0079
  190   1 O    8      -6.610000    7.690001   30.577998       6.0000     15.9994
  191   2 H    1      -7.580000    7.410001   30.327998       1.0000      1.0079
  192   2 H    1       1.980000   -6.230001   29.917999       1.0000      1.0079
  193   1 O    8      -5.320000    5.580000   34.647998       6.0000     15.9994
  194   2 H    1      -5.810000    4.770000   34.458000       1.0000      1.0079
  195   2 H    1      -4.470000    5.540000   34.167999       1.0000      1.0079
  196   1 O    8     -18.610001    0.650000   29.777999       6.0000     15.9994
  197   2 H    1     -18.030001    1.400000   29.478000       1.0000      1.0079
  198   2 H    1     -18.540001    0.730000   30.747999       1.0000      1.0079
  199   1 O    8       3.460000   18.020000   31.847999       6.0000     15.9994
  200   2 H    1       3.460000   17.260000   31.287998       1.0000      1.0079
  201   2 H    1      11.330000    4.040000   31.277999       1.0000      1.0079
  202   1 O    8      -2.670000    1.100000   39.138000       6.0000     15.9994
  203   2 H    1      -2.000000    1.750000   39.537998       1.0000      1.0079
  204   2 H    1      -3.310000    1.070000   39.888000       1.0000      1.0079
  205   1 O    8       6.840000   11.830001   36.367999       6.0000     15.9994
  206   2 H    1       6.730001   12.330000   35.537998       1.0000      1.0079
  207   2 H    1       7.520000   11.110001   36.167999       1.0000      1.0079
  208   1 O    8      15.640001    6.800000   37.978000       6.0000     15.9994
  209   2 H    1      14.970001    6.050000   37.958000       1.0000      1.0079
  210   2 H    1      15.030001    7.460001   38.387998       1.0000      1.0079
  211   1 O    8       5.840001    8.340000   30.327998       6.0000     15.9994
  212   2 H    1       4.840000    8.280001   30.077998       1.0000      1.0079
  213   2 H    1       5.760000    8.460000   31.307998       1.0000      1.0079
  214   1 O    8     -11.430000  -10.450001   29.977996       6.0000     15.9994
  215   2 H    1     -11.950001  -10.880001   30.697997       1.0000      1.0079
  216   2 H    1     -11.840000  -10.790000   29.187999       1.0000      1.0079
  217   1 O    8       0.220000    6.960001   32.637998       6.0000     15.9994
  218   2 H    1       1.180000    6.910000   32.847999       1.0000      1.0079
  219   2 H    1       0.130000    6.770000   31.687997       1.0000      1.0079
  220   1 O    8      -6.430000   41.580002   35.347999       6.0000     15.9994
  221   2 H    1      -7.130001   41.200005   34.718000       1.0000      1.0079
  222   2 H    1      -5.910000   42.200005   34.847997       1.0000      1.0079
  223   1 O    8       2.330000   43.120003   39.718000       6.0000     15.9994
  224   2 H    1       2.790000   43.120003   38.817998       1.0000      1.0079
  225   2 H    1       2.980000   43.570004   40.378000       1.0000      1.0079
  226   1 O    8      -3.220000    6.360001   33.357997       6.0000     15.9994
  227   2 H    1     -11.630001   21.150000   32.318000       1.0000      1.0079
  228   2 H    1      -2.560000    5.650000   33.457998       1.0000      1.0079
  229   1 O    8       1.830000    4.590000   36.817998       6.0000     15.9994
  230   2 H    1      -6.560000   20.100000   36.527999       1.0000      1.0079
  231   2 H    1      -5.810000   18.690001   36.377998       1.0000      1.0079
  232   1 O    8      -0.060000   -5.010000   36.328000       6.0000     15.9994
  233   2 H    1       0.860000   -4.860000   36.667999       1.0000      1.0079
  234   2 H    1       0.120000   -5.390000   35.427999       1.0000      1.0079
  235   1 O    8      11.410000   28.700001   37.228000       6.0000     15.9994
  236   2 H    1      11.690001   27.950001   36.658000       1.0000      1.0079
  237   2 H    1      12.070000   29.460001   37.067998       1.0000      1.0079
  238   1 O    8     -29.230001   16.900002   37.007999       6.0000     15.9994
  239   2 H    1     -28.740002   17.850000   37.088001       1.0000      1.0079
  240   2 H    1     -28.890001   16.450001   37.867997       1.0000      1.0079
  241   1 O    8       6.770000    3.370000   36.447997       6.0000     15.9994
  242   2 H    1       7.470000    2.670000   36.257999       1.0000      1.0079
  243   2 H    1       7.120000    4.300000   36.187999       1.0000      1.0079
  244   1 O    8       6.050000   -1.820000   29.298000       6.0000     15.9994
  245   2 H    1       6.810000   -1.220000   29.467998       1.0000      1.0079
  246   2 H    1       5.380001   -1.590000   29.937999       1.0000      1.0079
  247   1 O    8     -13.630000    8.610001   29.237998       6.0000     15.9994
  248   2 H    1     -14.440001    9.180000   29.357997       1.0000      1.0079
  249   2 H    1     -13.650000    7.710000   29.708000       1.0000      1.0079
  250   1 O    8      10.140000  -26.230001   36.977998       6.0000     15.9994
  251   2 H    1      11.070000  -26.530001   37.187999       1.0000      1.0079
  252   2 H    1       9.760000  -27.050001   36.607999       1.0000      1.0079
  253   1 O    8       2.330000   -9.830000   29.937999       6.0000     15.9994
  254   2 H    1       2.750000   -9.760000   29.048000       1.0000      1.0079
  255   2 H    1       2.140000   -8.930000   30.277995       1.0000      1.0079
  256   1 O    8      -1.750000   18.800001   30.437999       6.0000     15.9994
  257   2 H    1      -1.680000   18.590000   31.427997       1.0000      1.0079
  258   2 H    1      -1.310000   19.680000   30.277995       1.0000      1.0079
  259   1 O    8      -3.400000   -5.080000   35.507999       6.0000     15.9994
  260   2 H    1      -4.020000   -4.400000   35.947999       1.0000      1.0079
  261   2 H    1      -2.500000   -4.640000   35.307998       1.0000      1.0079
  262   1 O    8      25.730001    2.880000   29.527999       6.0000     15.9994
  263   2 H    1      26.410000    3.610000   29.658000       1.0000      1.0079
  264   2 H    1      24.890001    3.350000   29.798000       1.0000      1.0079
  265   1 O    8      38.070000   -5.430000   29.787998       6.0000     15.9994
  266   2 H    1      37.690002   -4.980001   30.587999       1.0000      1.0079
  267   2 H    1      37.700001   -5.030000   28.947997       1.0000      1.0079
  268   1 O    8       0.940000  -18.310001   36.337999       6.0000     15.9994
  269   2 H    1       0.600000  -19.250000   36.428001       1.0000      1.0079
  270   2 H    1       0.920000  -18.040001   37.327998       1.0000      1.0079
  271   1 O    8      -4.070000   13.460001   33.747999       6.0000     15.9994
  272   2 H    1      -3.450000   12.750001   33.998000       1.0000      1.0079
  273   2 H    1      -3.830000   14.140000   34.477998       1.0000      1.0079
  274   1 O    8     -15.410002   11.380000   39.237998       6.0000     15.9994
  275   2 H    1     -16.100002   11.170001   39.907998       1.0000      1.0079
  276   2 H    1     -15.000001   12.240001   39.527999       1.0000      1.0079
  277   1 O    8       8.390000   -0.180000   33.487998       6.0000     15.9994
  278   2 H    1       0.340000   14.820002   32.657998       1.0000      1.0079
  279   2 H    1       8.880001   -1.040000   33.627998       1.0000      1.0079
  280   1 O    8     -25.340002    1.130000   35.738000       6.0000     15.9994
  281   2 H    1     -25.290001    0.840000   34.787999       1.0000      1.0079
  282   2 H    1     -25.389999    0.240000   36.187999       1.0000      1.0079
  283   1 O    8       7.950000   -7.180000   29.937999       6.0000     15.9994
  284   2 H    1       7.900000   -6.860001   29.037998       1.0000      1.0079
  285   2 H    1       7.030000   -7.230001   30.127998       1.0000      1.0079
  286   1 O    8     -12.820001    3.960000   29.757999       6.0000     15.9994
  287   2 H    1     -11.870001    4.220000   29.857997       1.0000      1.0079
  288   2 H    1     -13.010001    4.160000   28.827998       1.0000      1.0079
  289   1 O    8      -9.940001   10.290001   29.208000       6.0000     15.9994
  290   2 H    1     -10.450001    9.430000   29.557998       1.0000      1.0079
  291   2 H    1     -10.380001   11.070000   29.597999       1.0000      1.0079
  292   1 O    8      -9.930000   25.030001   30.067996       6.0000     15.9994
  293   2 H    1     -10.320001   25.780001   29.548000       1.0000      1.0079
  294   2 H    1     -10.580001   24.310001   30.057998       1.0000      1.0079
  295   1 O    8      18.110001   10.230000   29.907996       6.0000     15.9994
  296   2 H    1      17.120001   10.210000   29.777999       1.0000      1.0079
  297   2 H    1      18.090002   10.050000   30.867997       1.0000      1.0079
  298   1 O    8      -0.760000   -0.610000   37.808000       6.0000     15.9994
  299   2 H    1      -1.210000   -1.290000   37.257999       1.0000      1.0079
  300   2 H    1      -1.540000   -0.130000   38.238000       1.0000      1.0079
  301   1 O    8       2.530000   27.299999   37.958000       6.0000     15.9994
  302   2 H    1       1.720000   27.060001   38.387998       1.0000      1.0079
  303   2 H    1       2.390000   27.200001   36.997999       1.0000      1.0079
  304   1 O    8       8.940001   -1.680000   29.658000       6.0000     15.9994
  305   2 H    1      -7.800000   -2.650000   29.807998       1.0000      1.0079
  306   2 H    1       9.730001   -1.470000   29.147998       1.0000      1.0079
  307   1 O    8     -11.210001    5.410000   33.857997       6.0000     15.9994
  308   2 H    1     -10.420000    4.830000   33.817998       1.0000      1.0079
  309   2 H    1     -12.020000    4.900000   34.068000       1.0000      1.0079
  310   1 O    8       2.320000    1.230000   29.717998       6.0000     15.9994
  311   2 H    1       2.670000    1.380000   30.617999       1.0000      1.0079
  312   2 H    1       3.030000    1.610000   29.167999       1.0000      1.0079
  313   3 Pt  78       1.710000    0.540000   26.817996      10.0000    195.0840
  314   3 Pt  78       4.370000    0.650000   26.947997      10.0000    195.0840
  315   3 Pt  78       7.120000    0.670000   26.897998      10.0000    195.0840
  316   3 Pt  78      10.150002    0.720000   26.747997      10.0000    195.0840
  317   3 Pt  78      12.970000    0.740000   26.737998      10.0000    195.0840
  318   3 Pt  78      15.740002    0.820000   26.807998      10.0000    195.0840
  319   3 Pt  78       3.100000    3.080000   26.647998      10.0000    195.0840
  320   3 Pt  78       5.850000    3.180000   26.698001      10.0000    195.0840
  321   3 Pt  78       8.730000    3.110000   26.677997      10.0000    195.0840
  322   3 Pt  78      11.480000    3.170000   26.657996      10.0000    195.0840
  323   3 Pt  78      14.250001    3.170000   26.798000      10.0000    195.0840
  324   3 Pt  78       0.290000    3.200000   26.787998      10.0000    195.0840
  325   3 Pt  78       4.420000    5.640000   26.798000      10.0000    195.0840
  326   3 Pt  78       7.230001    5.450000   26.867999      10.0000    195.0840
  327   3 Pt  78       9.980000    5.550000   26.857997      10.0000    195.0840
  328   3 Pt  78      12.850000    5.570001   26.838001      10.0000    195.0840
  329   3 Pt  78      -1.240000    5.540000   26.617999      10.0000    195.0840
  330   3 Pt  78       1.680000    5.570001   26.847999      10.0000    195.0840
  331   3 Pt  78       5.920000    7.930000   26.798000      10.0000    195.0840
  332   3 Pt  78       8.670000    7.950000   26.967998      10.0000    195.0840
  333   3 Pt  78      11.510000    8.000000   26.827998      10.0000    195.0840
  334   3 Pt  78      -2.540000    7.980001   26.717998      10.0000    195.0840
  335   3 Pt  78       0.240000    7.860000   26.937999      10.0000    195.0840
  336   3 Pt  78       2.860000    7.970000   26.917999      10.0000    195.0840
  337   3 Pt  78       7.190001   10.480001   26.917999      10.0000    195.0840
  338   3 Pt  78      10.010000   10.380001   27.007999      10.0000    195.0840
  339   3 Pt  78      -3.910000   10.420000   26.957996      10.0000    195.0840
  340   3 Pt  78      -1.110000   10.350000   26.817996      10.0000    195.0840
  341   3 Pt  78       1.720000   10.550001   26.768001      10.0000    195.0840
  342   3 Pt  78       4.490000   10.310000   26.757999      10.0000    195.0840
  343   3 Pt  78       8.640000   12.840000   26.978000      10.0000    195.0840
  344   3 Pt  78      -5.310000   12.750001   26.917999      10.0000    195.0840
  345   3 Pt  78      -2.620000   12.880001   26.998000      10.0000    195.0840
  346   3 Pt  78       0.120000   12.880001   26.667999      10.0000    195.0840
  347   3 Pt  78       3.050000   12.970000   26.857997      10.0000    195.0840
  348   3 Pt  78       5.950000   12.950001   26.717998      10.0000    195.0840
  349   3 Pt  78       0.250000    1.570000   24.537998      10.0000    195.0840
  350   3 Pt  78       3.080000    1.350000   24.447997      10.0000    195.0840
  351   3 Pt  78       5.920000    1.450000   24.437999      10.0000    195.0840
  352   3 Pt  78       8.740000    1.470000   24.487998      10.0000    195.0840
  353   3 Pt  78      11.510000    1.560000   24.377998      10.0000    195.0840
  354   3 Pt  78      14.370001    1.470000   24.417999      10.0000    195.0840
  355   3 Pt  78       1.580000    4.000000   24.428001      10.0000    195.0840
  356   3 Pt  78       4.400000    3.930000   24.447997      10.0000    195.0840
  357   3 Pt  78       7.200000    4.040000   24.437999      10.0000    195.0840
  358   3 Pt  78      10.010000    3.930000   24.367999      10.0000    195.0840
  359   3 Pt  78      12.820001    3.980000   24.307998      10.0000    195.0840
  360   3 Pt  78      -1.200000    3.910000   24.447997      10.0000    195.0840
  361   3 Pt  78       3.060000    6.350000   24.417999      10.0000    195.0840
  362   3 Pt  78       5.940001    6.350000   24.527999      10.0000    195.0840
  363   3 Pt  78       8.650001    6.420000   24.498000      10.0000    195.0840
  364   3 Pt  78      11.470001    6.360001   24.557998      10.0000    195.0840
  365   3 Pt  78      -2.590000    6.350000   24.437999      10.0000    195.0840
  366   3 Pt  78       0.260000    6.460000   24.437999      10.0000    195.0840
  367   3 Pt  78       4.430000    8.860001   24.457996      10.0000    195.0840
  368   3 Pt  78       7.240000    8.900001   24.517997      10.0000    195.0840
  369   3 Pt  78      10.060000    8.810000   24.548000      10.0000    195.0840
  370   3 Pt  78      -3.920000    8.790001   24.527999      10.0000    195.0840
  371   3 Pt  78      -1.150000    8.760000   24.397998      10.0000    195.0840
  372   3 Pt  78       1.740000    8.830000   24.517997      10.0000    195.0840
  373   3 Pt  78       5.850000   11.330000   24.397998      10.0000    195.0840
  374   3 Pt  78       8.650001   11.240001   24.597999      10.0000    195.0840
  375   3 Pt  78      -5.400000   11.120001   24.708000      10.0000    195.0840
  376   3 Pt  78      -2.540000   11.210001   24.568000      10.0000    195.0840
  377   3 Pt  78       0.250000   11.180000   24.408000      10.0000    195.0840
  378   3 Pt  78       3.050000   11.280001   24.437999      10.0000    195.0840
  379   3 Pt  78       7.350000   13.650000   24.467998      10.0000    195.0840
  380   3 Pt  78      -6.690001   13.540001   24.507999      10.0000    195.0840
  381   3 Pt  78      -3.960000   13.560000   24.557998      10.0000    195.0840
  382   3 Pt  78      -1.040000   13.740001   24.447997      10.0000    195.0840
  383   3 Pt  78       1.680000   13.670001   24.428001      10.0000    195.0840
  384   3 Pt  78       4.590000   13.690001   24.447997      10.0000    195.0840
  385   3 Pt  78      -8.260000   14.580001   22.197997      10.0000    195.0840
  386   3 Pt  78      -5.350000   14.440001   22.277999      10.0000    195.0840
  387   3 Pt  78      -2.610000   14.430000   22.117999      10.0000    195.0840
  388   3 Pt  78       0.150000   14.310001   22.088001      10.0000    195.0840
  389   3 Pt  78       2.990000   14.470000   22.097999      10.0000    195.0840
  390   3 Pt  78       5.850000   14.540001   21.987998      10.0000    195.0840
  391   3 Pt  78       1.570000    2.470000   22.187999      10.0000    195.0840
  392   3 Pt  78       4.410000    2.360000   22.137996      10.0000    195.0840
  393   3 Pt  78       7.210000    2.290000   22.117999      10.0000    195.0840
  394   3 Pt  78      10.000000    2.180000   22.107997      10.0000    195.0840
  395   3 Pt  78      12.930001    2.260000   22.097999      10.0000    195.0840
  396   3 Pt  78      -1.200000    2.330000   22.127998      10.0000    195.0840
  397   3 Pt  78       3.080000    4.790000   22.177997      10.0000    195.0840
  398   3 Pt  78       5.810000    4.770000   22.158000      10.0000    195.0840
  399   3 Pt  78       8.710001    4.880000   22.088001      10.0000    195.0840
  400   3 Pt  78      11.430000    4.730000   22.117999      10.0000    195.0840
  401   3 Pt  78      -2.610000    4.690000   22.067996      10.0000    195.0840
  402   3 Pt  78       0.190000    4.770000   22.117999      10.0000    195.0840
  403   3 Pt  78       4.470000    7.250000   22.197997      10.0000    195.0840
  404   3 Pt  78       7.250000    7.160000   22.167999      10.0000    195.0840
  405   3 Pt  78      10.050000    7.290000   22.187999      10.0000    195.0840
  406   3 Pt  78      -4.110000    7.150001   22.197997      10.0000    195.0840
  407   3 Pt  78      -1.170000    7.190001   22.077998      10.0000    195.0840
  408   3 Pt  78       1.640000    7.170000   22.147998      10.0000    195.0840
  409   3 Pt  78       5.790000    9.720000   22.147998      10.0000    195.0840
  410   3 Pt  78       8.680000    9.620001   22.277999      10.0000    195.0840
  411   3 Pt  78      -5.380001    9.700001   22.277999      10.0000    195.0840
  412   3 Pt  78      -2.640000    9.530001   22.237998      10.0000    195.0840
  413   3 Pt  78       0.360000    9.590000   22.147998      10.0000    195.0840
  414   3 Pt  78       3.010000    9.670001   22.097999      10.0000    195.0840
  415   3 Pt  78       7.260000   12.140001   22.137996      10.0000    195.0840
  416   3 Pt  78      -6.950001   12.080001   22.237998      10.0000    195.0840
  417   3 Pt  78      -4.020000   12.060001   22.147998      10.0000    195.0840
  418   3 Pt  78      -1.180000   11.990000   22.147998      10.0000    195.0840
  419   3 Pt  78       1.610000   12.090001   22.067996      10.0000    195.0840
  420   3 Pt  78       4.340000   12.130001   22.077998      10.0000    195.0840
  421   3 Pt  78       1.590000    0.740000   20.010000      10.0000    195.0840
  422   3 Pt  78       4.350000    0.620000   19.960000      10.0000    195.0840
  423   3 Pt  78       7.130001    0.640000   19.820000      10.0000    195.0840
  424   3 Pt  78       9.900001    0.740000   19.790000      10.0000    195.0840
  425   3 Pt  78      12.830001    0.650000   19.740000      10.0000    195.0840
  426   3 Pt  78      15.530001    0.670000   19.810000      10.0000    195.0840
  427   3 Pt  78       3.060000    3.040000   19.890000      10.0000    195.0840
  428   3 Pt  78       5.740000    3.120000   19.740000      10.0000    195.0840
  429   3 Pt  78       8.490001    3.250000   19.770000      10.0000    195.0840
  430   3 Pt  78      11.340000    3.130000   19.810000      10.0000    195.0840
  431   3 Pt  78      14.210001    3.070000   19.730000      10.0000    195.0840
  432   3 Pt  78       0.180000    3.070000   19.840000      10.0000    195.0840
  433   3 Pt  78       4.310000    5.620000   19.830000      10.0000    195.0840
  434   3 Pt  78       7.120000    5.670000   19.830000      10.0000    195.0840
  435   3 Pt  78       9.980000    5.680000   19.810000      10.0000    195.0840
  436   3 Pt  78      12.760000    5.490000   19.860000      10.0000    195.0840
  437   3 Pt  78      -1.150000    5.560000   19.860000      10.0000    195.0840
  438   3 Pt  78       1.650000    5.490000   19.860000      10.0000    195.0840
  439   3 Pt  78       5.790000    8.050001   19.820000      10.0000    195.0840
  440   3 Pt  78       8.580000    8.050001   19.850000      10.0000    195.0840
  441   3 Pt  78      11.420001    7.990000   19.900000      10.0000    195.0840
  442   3 Pt  78      -2.670000    7.950000   19.850000      10.0000    195.0840
  443   3 Pt  78       0.230000    7.900000   19.830000      10.0000    195.0840
  444   3 Pt  78       3.000000    8.010000   19.840000      10.0000    195.0840
  445   3 Pt  78       7.180000   10.530001   19.880000      10.0000    195.0840
  446   3 Pt  78       9.990001   10.450001   19.920000      10.0000    195.0840
  447   3 Pt  78      -4.020000   10.460000   19.900000      10.0000    195.0840
  448   3 Pt  78      -1.240000   10.330000   19.750000      10.0000    195.0840
  449   3 Pt  78       1.490000   10.470000   19.760000      10.0000    195.0840
  450   3 Pt  78       4.370000   10.390000   19.850000      10.0000    195.0840
  451   3 Pt  78       8.570001   12.920000   19.860000      10.0000    195.0840
  452   3 Pt  78      -5.550000   12.840000   20.090000      10.0000    195.0840
  453   3 Pt  78      -2.610000   12.800001   19.810000      10.0000    195.0840
  454   3 Pt  78       0.050000   12.820001   19.780000      10.0000    195.0840
  455   3 Pt  78       2.870000   12.910000   19.730000      10.0000    195.0840
  456   3 Pt  78       5.730000   12.860001   19.790000      10.0000    195.0840
  457   3 Pt  78       0.080000    1.610000   17.550000      10.0000    195.0840
  458   3 Pt  78       2.920000    1.460000   17.530000      10.0000    195.0840
  459   3 Pt  78       5.760000    1.470000   17.520000      10.0000    195.0840
  460   3 Pt  78       8.530001    1.500000   17.480000      10.0000    195.0840
  461   3 Pt  78      11.280001    1.440000   17.470000      10.0000    195.0840
  462   3 Pt  78      14.120001    1.530000   17.500000      10.0000    195.0840
  463   3 Pt  78       1.600000    3.920000   17.530000      10.0000    195.0840
  464   3 Pt  78       4.410000    4.070000   17.570000      10.0000    195.0840
  465   3 Pt  78       7.140000    4.130000   17.460000      10.0000    195.0840
  466   3 Pt  78      10.020000    4.050000   17.440000      10.0000    195.0840
  467   3 Pt  78      12.720001    4.010000   17.510000      10.0000    195.0840
  468   3 Pt  78      -1.290000    4.000000   17.470000      10.0000    195.0840
  469   3 Pt  78       2.920000    6.410000   17.450000      10.0000    195.0840
  470   3 Pt  78       5.660000    6.490001   17.510000      10.0000    195.0840
  471   3 Pt  78       8.550000    6.390000   17.510000      10.0000    195.0840
  472   3 Pt  78      11.420001    6.440001   17.530000      10.0000    195.0840
  473   3 Pt  78      -2.630000    6.420000   17.510000      10.0000    195.0840
  474   3 Pt  78       0.220000    6.350000   17.570000      10.0000    195.0840
  475   3 Pt  78       4.290000    8.880001   17.440000      10.0000    195.0840
  476   3 Pt  78       7.140000    8.840000   17.620000      10.0000    195.0840
  477   3 Pt  78       9.990001    8.850000   17.750000      10.0000    195.0840
  478   3 Pt  78      -4.060000    8.780001   17.590000      10.0000    195.0840
  479   3 Pt  78      -1.200000    8.720000   17.570000      10.0000    195.0840
  480   3 Pt  78       1.530000    8.870000   17.510000      10.0000    195.0840
  481   3 Pt  78       5.810000   11.280001   17.510000      10.0000    195.0840
  482   3 Pt  78       8.530001   11.320001   17.590000      10.0000    195.0840
  483   3 Pt  78      -5.490000   11.190001   17.660000      10.0000    195.0840
  484   3 Pt  78      -2.660000   11.180000   17.630000      10.0000    195.0840
  485   3 Pt  78       0.080000   11.280001   17.550000      10.0000    195.0840
  486   3 Pt  78       2.980000   11.200000   17.460000      10.0000    195.0840
  487   3 Pt  78       7.210000   13.790001   17.450000      10.0000    195.0840
  488   3 Pt  78      -6.910000   13.690001   17.670000      10.0000    195.0840
  489   3 Pt  78      -4.140000   13.650000   17.670000      10.0000    195.0840
  490   3 Pt  78      -1.380000   13.730000   17.480000      10.0000    195.0840
  491   3 Pt  78       1.510000   13.630000   17.430000      10.0000    195.0840
  492   3 Pt  78       4.250000   13.660001   17.420000      10.0000    195.0840
  493   3 Pt  78      -8.400001   14.490002   15.090000      10.0000    195.0840
  494   3 Pt  78      -5.550000   14.510001   15.310000      10.0000    195.0840
  495   3 Pt  78      -2.820000   14.480001   15.000000      10.0000    195.0840
  496   3 Pt  78       0.010000   14.520000   15.240000      10.0000    195.0840
  497   3 Pt  78       2.810000   14.570000   15.099999      10.0000    195.0840
  498   3 Pt  78       5.640000   14.510001   15.210000      10.0000    195.0840
  499   3 Pt  78       1.360000    2.260000   15.130000      10.0000    195.0840
  500   3 Pt  78       4.240000    2.270000   15.280000      10.0000    195.0840
  501   3 Pt  78       7.060000    2.370000   15.170000      10.0000    195.0840
  502   3 Pt  78       9.810000    2.430000   15.159999      10.0000    195.0840
  503   3 Pt  78      12.700001    2.370000   15.220000      10.0000    195.0840
  504   3 Pt  78      -1.350000    2.380000   15.230000      10.0000    195.0840
  505   3 Pt  78       2.840000    4.720000   15.180000      10.0000    195.0840
[...]
 flops    13 x    13 x    96           4407346944       0.0%    100.0%      0.0%
 flops    13 x    13 x   108           4958265312       0.0%    100.0%      0.0%
 flops     5 x    32 x    13           5468935680       0.0%    100.0%      0.0%
 flops    13 x    32 x     5           5468935680       0.0%    100.0%      0.0%
 flops    20 x    13 x    96           5901342720       0.0%    100.0%      0.0%
 flops    13 x    20 x    96           5926502400       0.0%    100.0%      0.0%
 flops    20 x     5 x    96           6367334400       0.0%    100.0%      0.0%
 flops     5 x    20 x    96           6370022400       0.0%    100.0%      0.0%
 flops    13 x    32 x    13           6436342016       0.0%    100.0%      0.0%
 flops    20 x    13 x   108           6639010560       0.0%    100.0%      0.0%
 flops    13 x    20 x   108           6667315200       0.0%    100.0%      0.0%
 flops    20 x     5 x   108           7163251200       0.0%    100.0%      0.0%
 flops     5 x    20 x   108           7166275200       0.0%    100.0%      0.0%
 flops    13 x    32 x    20           8730076160       0.0%    100.0%      0.0%
 flops    20 x    32 x    13           8730076160       0.0%    100.0%      0.0%
 flops     5 x    32 x    20           9401382400       0.0%    100.0%      0.0%
 flops    20 x    32 x     5           9401382400       0.0%    100.0%      0.0%
 flops    20 x    20 x    96          50396774400       0.0%    100.0%      0.0%
 flops     5 x     5 x   128          54523750400       0.0%    100.0%      0.0%
 flops    20 x    20 x   108          56696371200       0.0%    100.0%      0.0%
 flops     5 x    13 x   128          69136005120       0.0%    100.0%      0.0%
 flops    13 x     5 x   128          69175142400       0.0%    100.0%      0.0%
 flops    20 x    32 x    20          74052403200       0.0%    100.0%      0.0%
 flops    13 x    13 x   128          82270476288       0.0%    100.0%      0.0%
 flops    20 x    13 x   128         110158397440       0.0%    100.0%      0.0%
 flops    13 x    20 x   128         110628044800       0.0%    100.0%      0.0%
 flops    20 x     5 x   128         118856908800       0.0%    100.0%      0.0%
 flops     5 x    20 x   128         118907084800       0.0%    100.0%      0.0%
 flops    20 x    20 x   128         940739788800       0.0%    100.0%      0.0%
 flops inhomo. stacks                           0       0.0%      0.0%      0.0%
 flops total                         1.997787E+12       0.0%    100.0%      0.0%
 flops max/rank                     18.858353E+09       0.0%    100.0%      0.0%
 matmuls inhomo. stacks                         0       0.0%      0.0%      0.0%
 matmuls total                           59306282       0.0%    100.0%      0.0%
 number of processed stacks                538708       0.0%    100.0%      0.0%
 average stack size                                     0.0     110.1       0.0
 marketing flops                     4.106754E+12
 -------------------------------------------------------------------------------
 # multiplications                             29
 max memory usage/rank               1.599271E+09
 # max total images/rank                        2
 # max 3D layers                                1
 # MPI messages exchanged                  107648
 MPI messages size (bytes):
  total size                        70.762758E+09
  min size                         294.144000E+03
  max size                           2.262936E+06
  average size                     657.353188E+03
 MPI breakdown and total messages size (bytes):
             size <=      128                   0                        0
       128 < size <=     8192                   0                        0
      8192 < size <=    32768                   0                        0
     32768 < size <=   131072                   0                        0
    131072 < size <=  4194304              107648              70762758208
   4194304 < size <= 16777216                   0                        0
  16777216 < size                               0                        0
 -------------------------------------------------------------------------------

 *** WARNING in dbcsr_mm.F:290 :: Using a non-square number of MPI ranks ***
 *** might lead to poor performance. Used ranks: 128 Suggested: 121 256  ***

 -------------------------------------------------------------------------------
 -                                                                             -
 -                      DBCSR MESSAGE PASSING PERFORMANCE                      -
 -                                                                             -
 -------------------------------------------------------------------------------
 ROUTINE             CALLS      AVE VOLUME [Bytes]
 MP_Bcast               46                     12.
 MP_Allreduce          306                     14.
 MP_Alltoall           805                 597865.
 MP_ISend             1856                 310038.
 MP_IRecv             1856                 304200.
 -------------------------------------------------------------------------------

 -------------------------------------------------------------------------------
 -                                                                             -
 -                                DBM STATISTICS                               -
 -                                                                             -
 -------------------------------------------------------------------------------
    M  x    N  x    K                                          COUNT     PERCENT
 -------------------------------------------------------------------------------

 -------------------------------------------------------------------------------
 -                                                                             -
 -                                GRID STATISTICS                              -
 -                                                                             -
 -------------------------------------------------------------------------------
 LP    KERNEL             BACKEND                              COUNT     PERCENT
 4     collocate general  REF                               11025126      21.45%
 4     integrate general  REF                               10912832      21.23%
 3     collocate general  REF                                7993188      15.55%
 3     integrate general  REF                                7939735      15.44%
 2     collocate general  REF                                6549957      12.74%
 2     integrate general  REF                                6307366      12.27%
 5     integrate general  REF                                 408338       0.79%
 0     collocate general  REF                                 135168       0.26%
 0     integrate general  REF                                  67584       0.13%
 1     integrate general  REF                                  67584       0.13%
 -------------------------------------------------------------------------------

 MEMORY| Estimated peak process memory [MiB]                                1787

 -------------------------------------------------------------------------------
 ----                             MULTIGRID INFO                            ----
 -------------------------------------------------------------------------------
 count for grid        1:        1102243          cutoff [a.u.]          200.00
 count for grid        2:        1097497          cutoff [a.u.]           66.67
 count for grid        3:         725689          cutoff [a.u.]           22.22
 count for grid        4:         566941          cutoff [a.u.]            7.41
 total gridlevel count  :        3492370

 -------------------------------------------------------------------------------
 -                                                                             -
 -                         MESSAGE PASSING PERFORMANCE                         -
 -                                                                             -
 -------------------------------------------------------------------------------

 ROUTINE             CALLS      AVE VOLUME [Bytes]
 MP_Group                4
 MP_Bcast             2189                 309749.
 MP_Allreduce         3140                  35283.
 MP_Sync                60
 MP_Alltoall          1642               16745070.
 MP_SendRecv           508                   6108.
 MP_ISendRecv        13716                  61740.
 MP_Wait             24486
 MP_comm_split          28
 MP_ISend            10156                 256615.
 MP_IRecv            10156                 256615.
 MP_Recv               124                1718272.
 MP_Write_All            3                1797408.
 -------------------------------------------------------------------------------


 -------------------------------------------------------------------------------
 -                                                                             -
 -                           R E F E R E N C E S                               -
 -                                                                             -
 -------------------------------------------------------------------------------
 
 CP2K version 2022.1, the CP2K developers group (2022).
 CP2K is freely available from https://www.cp2k.org/ .

 Kuehne,Thomas D.; Iannuzzi,Marcella; Del Ben,Mauro;
 Rybkin,Vladimir V.; Seewald,Patrick; Stein,Frederick; Laino,Teodoro;
 Khaliullin,Rustam Z.; Schuett,Ole; Schiffmann,Florian; Golze,Dorothea;
 Wilhelm,Jan; Chulkov,Sergey; Bani-Hashemian,Mohammad Hossein;
 Weber,Valery; Borstnik,Urban; Taillefumier,Mathieu;
 Jakobovits,Alice Shoshana; Lazzaro,Alfio; Pabst,Hans; Mueller,Tiziano;
 Schade,Robert; Guidon,Manuel; Andermatt,Samuel; Holmberg,Nico;
 Schenter,Gregory K.; Hehn,Anna; Bussy,Augustin; Belleflamme,Fabian;
 Tabacchi,Gloria; Gloess,Andreas; Lass,Michael; Bethune,Iain;
 Mundy,Christopher J.; Plessl,Christian; Watkins,Matt;
 VandeVondele,Joost; Krack,Matthias; Hutter,Juerg. 
 The Journal of Chemical Physics, 152 (19), (2020). 
 CP2K: An electronic structure and molecular dynamics software package -
 Quickstep: Efficient and accurate electronic structure calculations.
 https://doi.org/10.1063/5.0007045

 Goerigk, Lars; Hansen, Andreas; Bauer, Christoph; Ehrlich, Stephan;
 Najibi, Asim; Grimme, Stefan. , 19 (48), (2017). 
 A look at the density functional theory zoo with the advanced GMTKN55 database
 for general main group thermochemistry, kinetics and noncovalent interactions.
 https://doi.org/10.1039/C7CP04913G

 Bani-Hashemian, MH; Bruck, S; Luisier, M; VandeVondele, J. 
 JOURNAL OF CHEMICAL PHYSICS, 144 (4), 044113 (2016). 
 A generalized Poisson solver for first-principles device simulations.
 https://doi.org/10.1063/1.4940796

 Schuett, Ole; Messmer, Peter; Hutter, Juerg; VandeVondele, Joost. 
 Electronic Structure Calculations on Graphics Processing Units, John
 Wiley & Sons, Ltd, 173-190 (2016). 
 GPU-Accelerated Sparse Matrix-Matrix Multiplication for
 Linear Scaling Density Functional Theory.
 https://doi.org/10.1002/9781118670712.ch8

 Heinecke, A; Henry, G; Hutchinson, M; Pabst, H. 
 Proceedings of Intl. Supercomputing Conference, 981-991 (2016). 
 LIBXSMM: Accelerating Small Matrix Multiplications
 by Runtime Code Generation.
 https://doi.org/10.1109/SC.2016.83

 Borstnik, U; VandeVondele, J; Weber, V; Hutter, J. 
 PARALLEL COMPUTING, 40 (5-6), 47-58 (2014). 
 Sparse matrix multiplication: The distributed block-compressed sparse
 row library.
 https://doi.org/10.1016/j.parco.2014.03.012

 Hutter, J; Iannuzzi, M; Schiffmann, F; VandeVondele, J. 
 WIREs Comput Mol Sci., 4 (1), 15-25 (2014). 
 CP2K: atomistic simulations of condensed matter systems.
 https://doi.org/10.1002/wcms.1159

 Marek, A; Blum, V; Johanni, R; Havu, V; Lang, B; Auckenthaler, T;
 Heinecke, A; Bungartz, H; Lederer, H. 
 Journal of Physics: Condensed Matter, 26 (21), (2014). 
 The ELPA library: scalable parallel eigenvalue solutions for
 electronic structure
 theory and computational science.
 https://doi.org/10.1088/0953-8984/26/21/213201

 Grimme, S; Ehrlich, S; Goerigk, L. 
 JOURNAL OF COMPUTATIONAL CHEMISTRY, 32, 1456 (2011). 
 Effect of the damping function in dispersion corrected density functional theory.
 https://doi.org/10.1002/jcc.21759

 Grimme, S; Antony, J; Ehrlich, S; Krieg, H. 
 JOURNAL OF CHEMICAL PHYSICS, 132 (15), 154104 (2010). 
 A consistent and accurate ab initio parametrization of density
 functional dispersion correction (DFT-D) for the 94 elements H-Pu.
 https://doi.org/10.1063/1.3382344

 VandeVondele, J; Hutter, J. 
 JOURNAL OF CHEMICAL PHYSICS, 127 (11), 114105 (2007). 
 Gaussian basis sets for accurate calculations on molecular systems in
 gas and condensed phases.
 https://doi.org/10.1063/1.2770708

 Krack, M. 
 THEORETICAL CHEMISTRY ACCOUNTS, 114 (1-3), 145-152 (2005). 
 Pseudopotentials for H to Kr optimized for gradient-corrected
 exchange-correlation functionals.
 https://doi.org/10.1007/s00214-005-0655-y

 VandeVondele, J; Krack, M; Mohamed, F; Parrinello, M; Chassaing, T;
 Hutter, J. COMPUTER PHYSICS COMMUNICATIONS, 167 (2), 103-128 (2005). 
 QUICKSTEP: Fast and accurate density functional calculations using a
 mixed Gaussian and plane waves approach.
 https://doi.org/10.1016/j.cpc.2004.12.014

 Frigo, M; Johnson, SG. 
 PROCEEDINGS OF THE IEEE, 93 (2), 216-231 (2005). 
 The design and implementation of FFTW3.
 https://doi.org/10.1109/JPROC.2004.840301

 Hartwigsen, C; Goedecker, S; Hutter, J. 
 PHYSICAL REVIEW B, 58 (7), 3641-3662 (1998). 
 Relativistic separable dual-space Gaussian pseudopotentials from H to Rn.
 https://doi.org/10.1103/PhysRevB.58.3641

 Lippert, G; Hutter, J; Parrinello, M. 
 MOLECULAR PHYSICS, 92 (3), 477-487 (1997). 
 A hybrid Gaussian and plane wave density functional scheme.
 https://doi.org/10.1080/002689797170220

 Perdew, JP; Burke, K; Ernzerhof, M. 
 PHYSICAL REVIEW LETTERS, 77 (18), 3865-3868 (1996). 
 Generalized gradient approximation made simple.
 https://doi.org/10.1103/PhysRevLett.77.3865

 Goedecker, S; Teter, M; Hutter, J. 
 PHYSICAL REVIEW B, 54 (3), 1703-1710 (1996). 
 Separable dual-space Gaussian pseudopotentials.
 https://doi.org/10.1103/PhysRevB.54.1703


 -------------------------------------------------------------------------------
 -                                                                             -
 -                                T I M I N G                                  -
 -                                                                             -
 -------------------------------------------------------------------------------
 SUBROUTINE                       CALLS  ASD         SELF TIME        TOTAL TIME
                                MAXIMUM       AVERAGE  MAXIMUM  AVERAGE  MAXIMUM
 CP2K                                 1  1.0    0.020    0.033  195.453  195.455
 qs_forces                            1  2.0    0.002    0.002  195.083  195.085
 qs_energies                          1  3.0    0.000    0.001  188.929  188.933
 scf_env_do_scf                       1  4.0    0.000    0.001  179.846  179.994
 scf_env_do_scf_inner_loop           26  5.0    0.002    0.004  179.842  179.990
 rebuild_ks_matrix                   27  6.9    0.000    0.000   97.423   97.441
 qs_ks_build_kohn_sham_matrix        27  7.9    0.004    0.005   97.423   97.441
 qs_ks_update_qs_env                 26  6.0    0.000    0.000   93.370   93.387
 pw_transfer                       1408 12.2    0.102    0.132   61.392   62.690
 fft_wrap_pw1pw2                   1408 13.2    0.014    0.017   61.290   62.557
 fft_wrap_pw1pw2_200               1246 14.4    4.146    4.956   60.453   61.663
 qs_scf_new_mos                      26  6.0    0.001    0.003   52.728   52.798
 pw_poisson_solve                    27  8.9    0.003    0.006   52.518   52.541
 fft3d_ps                          1408 15.2   17.700   19.640   49.246   51.152
 eigensolver                         26  7.0    0.002    0.003   49.812   49.960
 implicit_poisson_solver_mixed_      27  9.9    1.116    1.361   49.550   49.593
 cp_fm_diag_elpa                     28  8.1    0.000    0.000   35.434   35.522
 cp_fm_redistribute_end              28  9.1    4.715   35.123    4.774   35.154
 derive_fft                         162 12.1    0.010    0.012   34.794   34.896
 cp_fm_diag_elpa_base                28  9.0   29.939   34.377   30.214   34.668
 mp_alltoall_z22v                  1408 17.2   26.367   32.870   26.367   32.870
 qs_rho_update_rho_low               27  6.0    0.000    0.000   30.612   30.623
 calculate_rho_elec                  27  7.0    0.052    0.065   30.612   30.622
 sum_up_and_integrate                27  8.9    0.146    0.178   30.019   30.038
 integrate_v_rspace                  27  9.9    0.001    0.002   29.872   29.935
 apply_P_operator                   135 11.1    0.721    0.802   29.727   29.822
 grid_collocate_task_list            27  8.0   20.226   24.092   20.226   24.092
 grid_integrate_task_list            27 10.9   18.892   21.917   18.892   21.917
 x_to_yz                            811 16.4    3.449    4.393   20.064   20.946
 rs_pw_transfer                     220 10.4    0.003    0.003   13.156   16.620
 cp_fm_triangular_multiply           78  8.0   15.974   16.129   15.974   16.129
 yz_to_x                            435 16.4    1.189    1.398   10.838   14.883
 qs_vxc_create                       27  8.9    0.001    0.001   13.289   13.455
 xc_vxc_pw_create                    27  9.9    0.231    0.289   13.288   13.454
 density_rs2pw                       27  8.0    0.002    0.002    9.724   13.271
 xc_pw_derive                       162 11.9    0.002    0.003    9.317   10.326
 mp_waitany                       10156 12.3    5.603    9.165    5.603    9.165
 rs_pw_transfer_RS2PW_200            29  9.9    1.899    2.142    5.693    9.115
 apply_poisson_operator_fft          27 10.9    0.000    0.000    8.681    8.833
 apply_inv_laplace_operator_fft      83 11.6    0.208    0.269    8.041    8.339
 potential_pw2rs                     27 10.9    0.008    0.009    7.649    7.709
 mp_alltoall_d11v                   400 10.3    4.172    7.383    4.172    7.383
 xc_pw_divergence                    27 10.9    0.001    0.001    6.295    7.079
 xc_rho_set_and_dset_create          27 10.9    0.134    0.157    6.494    6.888
 rs_gather_matrices                  27 10.9    0.034    0.045    3.319    6.496
 ps_implicit_compute_error_fft       54 10.9    0.340    0.416    5.841    6.272
 ps_implicit_compute_veps            27 10.9    0.157    0.193    5.948    6.055
 pw_scatter_p                       892 15.3    5.021    5.930    5.021    5.930
 scf_post_calculation_gpw             1  4.0    0.000    0.001    5.751    5.757
 write_available_results              1  5.0    0.000    0.000    5.750    5.756
 rs_pw_transfer_PW2RS_200            29 12.6    2.183    2.300    4.566    4.690
 pw_derive                          648 13.0    4.112    4.345    4.112    4.345
 gspace_mixing                       25  6.0    0.048    0.058    4.112    4.112
 qs_ks_update_qs_env_forces           1  3.0    0.000    0.000    4.095    4.096
 -------------------------------------------------------------------------------

 The number of warnings for this run is : 1
 
 -------------------------------------------------------------------------------
  **** **** ******  **  PROGRAM ENDED AT                 2023-12-02 15:42:48.705
 ***** ** ***  *** **   PROGRAM RAN ON                                     cu062
 **    ****   ******    PROGRAM RAN BY                                     jxzhu
 ***** **    ** ** **   PROGRAM PROCESS ID                                 28957
  **** **  *******  **  PROGRAM STOPPED IN /public/home/jxzhu/tmp_calc/2b4432348
                                           7d203aa235aa9778e6076857b597860/calc/
                                           001700.000/search_hi.000004
