 DBCSR| CPU Multiplication driver                                           XSMM
 DBCSR| Multrec recursion limit                                              512
 DBCSR| Multiplication stack size                                           1000
 DBCSR| Maximum elements for images                                    UNLIMITED
 DBCSR| Multiplicative factor virtual images                                   1
 DBCSR| Use multiplication densification                                       T
 DBCSR| Multiplication size stacks                                             3
 DBCSR| Use memory pool for CPU allocation                                     F
 DBCSR| Number of 3D layers                                               SINGLE
 DBCSR| Use MPI memory allocation                                              F
 DBCSR| Use RMA algorithm                                                      F
 DBCSR| Use Communication thread                                               T
 DBCSR| Communication thread load                                             87
 DBCSR| MPI: My node id                                                        0
 DBCSR| MPI: Number of nodes                                                  32
 DBCSR| OMP: Current number of threads                                         1
 DBCSR| OMP: Max number of threads                                             1
 DBCSR| Split modifier for TAS multiplication algorithm                  1.0E+00


  **** **** ******  **  PROGRAM STARTED AT               2023-12-03 02:06:20.897
 ***** ** ***  *** **   PROGRAM STARTED ON                                 cu042
 **    ****   ******    PROGRAM STARTED BY                                 jxzhu
 ***** **    ** ** **   PROGRAM PROCESS ID                                  2199
  **** **  *******  **  PROGRAM STARTED IN /public/home/jxzhu/tmp_calc/04c0855f9
                                           8753fac23fde4df51ba20f3741a9e9a/calc/
                                           task.001.000026

 CP2K| version string:                                       CP2K version 2022.1
 CP2K| source code revision number:                                  git:2caeb6f
 CP2K| cp2kflags: omp libint fftw3 libxc elpa parallel mpi3 scalapack cosma xsmm
 CP2K|             plumed2 spglib mkl sirius libvori libbqb
 CP2K| is freely available from                            https://www.cp2k.org/
 CP2K| Program compiled at                           Mon Jul 3 17:37:06 CST 2023
 CP2K| Program compiled on                                                 mu003
 CP2K| Program compiled for                                                local
 CP2K| Data directory path                             /public/home/jxzhu/basis/
 CP2K| Input file name                                                 input.inp
 
 GLOBAL| Force Environment number                                              1
 GLOBAL| Basis set file name                                        BASIS_MOLOPT
 GLOBAL| Potential file name                                      GTH_POTENTIALS
 GLOBAL| MM Potential file name                                     MM_POTENTIAL
 GLOBAL| Coordinate file name                                          coord.xyz
 GLOBAL| Method name                                                        CP2K
 GLOBAL| Project name                                                       cp2k
 GLOBAL| Run type                                                   ENERGY_FORCE
 GLOBAL| FFT library                                                       FFTW3
 GLOBAL| Diagonalization library                                            ELPA
 GLOBAL| Minimum number of eigenvectors for ELPA usage                        16
 GLOBAL| Orthonormality check for eigenvectors                          DISABLED
 GLOBAL| Matrix multiplication library                                     COSMA
 GLOBAL| All-to-all communication in single precision                          F
 GLOBAL| FFTs using library dependent lengths                                  T
 GLOBAL| Grid backend                                                       AUTO
 GLOBAL| Global print level                                               MEDIUM
 GLOBAL| MPI I/O enabled                                                       T
 GLOBAL| Total number of message passing processes                            32
 GLOBAL| Number of threads for this process                                    1
 GLOBAL| This output is from process                                           0
 GLOBAL| Stack size for threads created by OpenMP (OMP_STACKSIZE)        default
 GLOBAL| CPU model name                 Intel(R) Xeon(R) Gold 6338 CPU @ 2.00GHz
 GLOBAL| CPUID                                                              1003

 MEMORY| system memory details [Kb]
 MEMORY|                        rank 0           min           max       average
 MEMORY| MemTotal            263619172     263619172     263619172     263619172
 MEMORY| MemFree             172607372     172607372     172607372     172607372
 MEMORY| Buffers                  3320          3320          3320          3320
 MEMORY| Cached                8285064       8285064       8285064       8285064
 MEMORY| Slab                  1844724       1844724       1844724       1844724
 MEMORY| SReclaimable           245972        245972        245972        245972
 MEMORY| MemLikelyFree       181141728     181141728     181141728     181141728


 *** Fundamental physical constants (SI units) ***

 *** Literature: B. J. Mohr and B. N. Taylor,
 ***             CODATA recommended values of the fundamental physical
 ***             constants: 2006, Web Version 5.1
 ***             http://physics.nist.gov/constants

 Speed of light in vacuum [m/s]                             2.99792458000000E+08
 Magnetic constant or permeability of vacuum [N/A**2]       1.25663706143592E-06
 Electric constant or permittivity of vacuum [F/m]          8.85418781762039E-12
 Planck constant (h) [J*s]                                  6.62606896000000E-34
 Planck constant (h-bar) [J*s]                              1.05457162825177E-34
 Elementary charge [C]                                      1.60217648700000E-19
 Electron mass [kg]                                         9.10938215000000E-31
 Electron g factor [ ]                                     -2.00231930436220E+00
 Proton mass [kg]                                           1.67262163700000E-27
 Fine-structure constant                                    7.29735253760000E-03
 Rydberg constant [1/m]                                     1.09737315685270E+07
 Avogadro constant [1/mol]                                  6.02214179000000E+23
 Boltzmann constant [J/K]                                   1.38065040000000E-23
 Atomic mass unit [kg]                                      1.66053878200000E-27
 Bohr radius [m]                                            5.29177208590000E-11

 *** Conversion factors ***

 [u] -> [a.u.]                                              1.82288848426455E+03
 [Angstrom] -> [Bohr] = [a.u.]                              1.88972613288564E+00
 [a.u.] = [Bohr] -> [Angstrom]                              5.29177208590000E-01
 [a.u.] -> [s]                                              2.41888432650478E-17
 [a.u.] -> [fs]                                             2.41888432650478E-02
 [a.u.] -> [J]                                              4.35974393937059E-18
 [a.u.] -> [N]                                              8.23872205491840E-08
 [a.u.] -> [K]                                              3.15774647902944E+05
 [a.u.] -> [kJ/mol]                                         2.62549961709828E+03
 [a.u.] -> [kcal/mol]                                       6.27509468713739E+02
 [a.u.] -> [Pa]                                             2.94210107994716E+13
 [a.u.] -> [bar]                                            2.94210107994716E+08
 [a.u.] -> [atm]                                            2.90362800883016E+08
 [a.u.] -> [eV]                                             2.72113838565563E+01
 [a.u.] -> [Hz]                                             6.57968392072181E+15
 [a.u.] -> [1/cm] (wave numbers)                            2.19474631370540E+05
 [a.u./Bohr**2] -> [1/cm]                                   5.14048714338585E+03
 

 CELL_TOP| Volume [angstrom^3]:                                     12686.086737
 CELL_TOP| Vector a [angstrom    16.869     0.000     0.000   |a| =    16.869000
 CELL_TOP| Vector b [angstrom    -8.434    14.609     0.000   |b| =    16.868929
 CELL_TOP| Vector c [angstrom     0.000     0.000    51.478   |c| =    51.477900
 CELL_TOP| Angle (b,c), alpha [degree]:                                90.000000
 CELL_TOP| Angle (a,c), beta  [degree]:                                90.000000
 CELL_TOP| Angle (a,b), gamma [degree]:                               120.000140
 CELL_TOP| Numerically orthorhombic:                                          NO
 
 GENERATE|  Preliminary Number of Bonds generated:                             0
 GENERATE|  Achieved consistency in connectivity generation.

 CELL| Volume [angstrom^3]:                                         12686.086737
 CELL| Vector a [angstrom]:      16.869     0.000     0.000   |a| =    16.869000
 CELL| Vector b [angstrom]:      -8.434    14.609     0.000   |b| =    16.868929
 CELL| Vector c [angstrom]:       0.000     0.000    51.478   |c| =    51.477900
 CELL| Angle (b,c), alpha [degree]:                                    90.000000
 CELL| Angle (a,c), beta  [degree]:                                    90.000000
 CELL| Angle (a,b), gamma [degree]:                                   120.000140
 CELL| Numerically orthorhombic:                                              NO

 CELL_REF| Volume [angstrom^3]:                                     12686.086737
 CELL_REF| Vector a [angstrom    16.869     0.000     0.000   |a| =    16.869000
 CELL_REF| Vector b [angstrom    -8.434    14.609     0.000   |b| =    16.868929
 CELL_REF| Vector c [angstrom     0.000     0.000    51.478   |c| =    51.477900
 CELL_REF| Angle (b,c), alpha [degree]:                                90.000000
 CELL_REF| Angle (a,c), beta  [degree]:                                90.000000
 CELL_REF| Angle (a,b), gamma [degree]:                               120.000140
 CELL_REF| Numerically orthorhombic:                                          NO

 *******************************************************************************
 *******************************************************************************
 **                                                                           **
 **     #####                         ##              ##                      **
 **    ##   ##            ##          ##              ##                      **
 **   ##     ##                       ##            ######                    **
 **   ##     ##  ##   ##  ##   #####  ##  ##   ####   ##    #####    #####    **
 **   ##     ##  ##   ##  ##  ##      ## ##   ##      ##   ##   ##  ##   ##   **
 **   ##  ## ##  ##   ##  ##  ##      ####     ###    ##   ######   ######    **
 **    ##  ###   ##   ##  ##  ##      ## ##      ##   ##   ##       ##        **
 **     #######   #####   ##   #####  ##  ##  ####    ##    #####   ##        **
 **           ##                                                    ##        **
 **                                                                           **
 **                                                ... make the atoms dance   **
 **                                                                           **
 **            Copyright (C) by CP2K developers group (2000-2022)             **
 **                      J. Chem. Phys. 152, 194103 (2020)                    **
 **                                                                           **
 *******************************************************************************

 DFT| Spin restricted Kohn-Sham (RKS) calculation                            RKS
 DFT| Multiplicity                                                             1
 DFT| Number of spin states                                                    1
 DFT| Charge                                                                   0
 DFT| Self-interaction correction (SIC)                                       NO
 DFT| Cutoffs: density                                              1.000000E-10
 DFT|          gradient                                             1.000000E-10
 DFT|          tau                                                  1.000000E-10
 DFT|          cutoff_smoothing_range                               0.000000E+00
 DFT| XC density smoothing                                                  NONE
 DFT| XC derivatives                                                          PW

 FUNCTIONAL| PBE:
 FUNCTIONAL| J.P.Perdew, K.Burke, M.Ernzerhof, Phys. Rev. Letter, vol. 77, n 18,
 FUNCTIONAL|  pp. 3865-3868, (1996){spin unpolarized}                           

 vdW POTENTIAL|                                                   Pair Potential
 vdW POTENTIAL|          DFT-D3 (Version 3.1)
 vdW POTENTIAL|          Potential Form: S. Grimme et al, JCP 132: 154104 (2010)
 vdW POTENTIAL|          Zero Damping
 vdW POTENTIAL|          Cutoff Radius [Bohr]:                             20.00
 vdW POTENTIAL|          s6 Scaling Factor:                               1.0000
 vdW POTENTIAL|          sr6 Scaling Factor:                              1.2170
 vdW POTENTIAL|          s8 Scaling Factor:                               0.7220
 vdW POTENTIAL|          Cutoff for CN calculation:                   0.1000E-05

 QS| Method:                                                                 GPW
 QS| Density plane wave grid type                        NON-SPHERICAL FULLSPACE
 QS| Number of grid levels:                                                    4
 QS| Density cutoff [a.u.]:                                                200.0
 QS| Multi grid cutoff [a.u.]: 1) grid level                               200.0
 QS|                           2) grid level                                66.7
 QS|                           3) grid level                                22.2
 QS|                           4) grid level                                 7.4
 QS| Grid level progression factor:                                          3.0
 QS| Relative density cutoff [a.u.]:                                        20.0
 QS| Interaction thresholds: eps_pgf_orb:                                3.2E-07
 QS|                         eps_filter_matrix:                          0.0E+00
 QS|                         eps_core_charge:                            1.0E-15
 QS|                         eps_rho_gspace:                             1.0E-13
 QS|                         eps_rho_rspace:                             1.0E-13
 QS|                         eps_gvg_rspace:                             3.2E-07
 QS|                         eps_ppl:                                    1.0E-02
 QS|                         eps_ppnl:                                   3.2E-09


 ATOMIC KIND INFORMATION

  1. Atomic kind: Pt                                    Number of atoms:     216

     Orbital Basis Set                      DZVP-A5-Q10-323-MOL-T1-DERIVED_SET-1

       Number of orbital shell sets:                                           1
       Number of orbital shells:                                               6
       Number of primitive Cartesian functions:                                5
       Number of Cartesian basis functions:                                   23
       Number of spherical basis functions:                                   20
       Norm type:                                                              2

       Normalised Cartesian orbitals:

                        Set   Shell   Orbital            Exponent    Coefficient

                          1       1    2s                2.521825       0.177473
                                                         1.453920      -0.063399
                                                         0.614053      -0.407089
                                                         0.232656       0.262254
                                                         0.074788       0.047371

                          1       2    3s                2.521825      -0.049056
                                                         1.453920       0.044904
                                                         0.614053      -0.009756
                                                         0.232656      -0.144709
                                                         0.074788       0.144085

                          1       3    3px               2.521825      -0.317572
                                                         1.453920       0.534826
                                                         0.614053      -0.489458
                                                         0.232656       0.245631
                                                         0.074788       0.018221
                          1       3    3py               2.521825      -0.317572
                                                         1.453920       0.534826
                                                         0.614053      -0.489458
                                                         0.232656       0.245631
                                                         0.074788       0.018221
                          1       3    3pz               2.521825      -0.317572
                                                         1.453920       0.534826
                                                         0.614053      -0.489458
                                                         0.232656       0.245631
                                                         0.074788       0.018221

                          1       4    4dx2              2.521825       3.008522
                                                         1.453920      -1.224251
                                                         0.614053       0.225691
                                                         0.232656       0.125144
                                                         0.074788      -0.015348
                          1       4    4dxy              2.521825       5.210912
                                                         1.453920      -2.120465
                                                         0.614053       0.390909
                                                         0.232656       0.216756
                                                         0.074788      -0.026584
                          1       4    4dxz              2.521825       5.210912
                                                         1.453920      -2.120465
                                                         0.614053       0.390909
                                                         0.232656       0.216756
                                                         0.074788      -0.026584
                          1       4    4dy2              2.521825       3.008522
                                                         1.453920      -1.224251
                                                         0.614053       0.225691
                                                         0.232656       0.125144
                                                         0.074788      -0.015348
                          1       4    4dyz              2.521825       5.210912
                                                         1.453920      -2.120465
                                                         0.614053       0.390909
                                                         0.232656       0.216756
                                                         0.074788      -0.026584
                          1       4    4dz2              2.521825       3.008522
                                                         1.453920      -1.224251
                                                         0.614053       0.225691
                                                         0.232656       0.125144
                                                         0.074788      -0.015348

                          1       5    5dx2              2.521825       0.698026
                                                         1.453920      -1.511486
                                                         0.614053      -0.335394
                                                         0.232656      -0.025564
                                                         0.074788      -0.002699
                          1       5    5dxy              2.521825       1.209017
                                                         1.453920      -2.617970
                                                         0.614053      -0.580920
                                                         0.232656      -0.044277
                                                         0.074788      -0.004674
                          1       5    5dxz              2.521825       1.209017
                                                         1.453920      -2.617970
                                                         0.614053      -0.580920
                                                         0.232656      -0.044277
                                                         0.074788      -0.004674
                          1       5    5dy2              2.521825       0.698026
                                                         1.453920      -1.511486
                                                         0.614053      -0.335394
                                                         0.232656      -0.025564
                                                         0.074788      -0.002699
                          1       5    5dyz              2.521825       1.209017
                                                         1.453920      -2.617970
                                                         0.614053      -0.580920
                                                         0.232656      -0.044277
                                                         0.074788      -0.004674
                          1       5    5dz2              2.521825       0.698026
                                                         1.453920      -1.511486
                                                         0.614053      -0.335394
                                                         0.232656      -0.025564
                                                         0.074788      -0.002699

                          1       6    6dx2              2.521825       0.831079
                                                         1.453920      -0.709226
                                                         0.614053      -0.137351
                                                         0.232656       0.068642
                                                         0.074788       0.011745
                          1       6    6dxy              2.521825       1.439472
                                                         1.453920      -1.228415
                                                         0.614053      -0.237899
                                                         0.232656       0.118891
                                                         0.074788       0.020343
                          1       6    6dxz              2.521825       1.439472
                                                         1.453920      -1.228415
                                                         0.614053      -0.237899
                                                         0.232656       0.118891
                                                         0.074788       0.020343
                          1       6    6dy2              2.521825       0.831079
                                                         1.453920      -0.709226
                                                         0.614053      -0.137351
                                                         0.232656       0.068642
                                                         0.074788       0.011745
                          1       6    6dyz              2.521825       1.439472
                                                         1.453920      -1.228415
                                                         0.614053      -0.237899
                                                         0.232656       0.118891
                                                         0.074788       0.020343
                          1       6    6dz2              2.521825       0.831079
                                                         1.453920      -0.709226
                                                         0.614053      -0.137351
                                                         0.232656       0.068642
                                                         0.074788       0.011745

       Atomic covalent radius [Angstrom]:                                  1.300

       Atomic van der Waals radius [Angstrom]:                             1.750

     GTH Potential information for                                   GTH-PBE-q10

       Description:                       Goedecker-Teter-Hutter pseudopotential
                                           Goedecker et al., PRB 54, 1703 (1996)
                                          Hartwigsen et al., PRB 58, 3641 (1998)
                                                      Krack, TCA 114, 145 (2005)

       Gaussian exponent of the core charge distribution:               1.317676
       Electronic configuration (s p d ...):                           1   0   9

       Parameters of the local part of the GTH pseudopotential:

                          rloc        C1          C2          C3          C4
                        0.616000   11.313635

       Parameters of the non-local part of the GTH pseudopotential:

                   l      r(l)      h(i,j,l)

                   0    0.550904    4.733491   -1.784594
                                   -1.784594    2.303901
                   1    0.674138    2.534798   -1.778066
                                   -1.778066    2.103836
                   2    0.457392   -7.264011    2.558665
                                    2.558665   -2.901253


 MOLECULE KIND INFORMATION


 All atoms are their own molecule, skipping detailed information


 TOTAL NUMBERS AND MAXIMUM NUMBERS

  Total number of            - Atomic kinds:                                   1
                             - Atoms:                                        216
                             - Shell sets:                                   216
                             - Shells:                                      1296
                             - Primitive Cartesian functions:               1080
                             - Cartesian basis functions:                   4968
                             - Spherical basis functions:                   4320

  Maximum angular momentum of- Orbital basis functions:                        2
                             - Local part of the GTH pseudopotential:          0
                             - Non-local part of the GTH pseudopotential:      4


 MODULE QUICKSTEP:  ATOMIC COORDINATES IN angstrom

 Atom  Kind  Element       X           Y           Z          Z(eff)       Mass
    1   1 Pt  78       2.344774    0.429470   19.984931      10.0000    195.0840
    2   1 Pt  78       5.044774    0.459470   19.914932      10.0000    195.0840
    3   1 Pt  78       7.824774    0.479470   19.954933      10.0000    195.0840
    4   1 Pt  78      10.604774    0.449470   20.134933      10.0000    195.0840
    5   1 Pt  78      13.454773    0.419470   20.054931      10.0000    195.0840
    6   1 Pt  78      16.304775    0.429470   20.014934      10.0000    195.0840
    7   1 Pt  78       3.694774    2.889470   19.974933      10.0000    195.0840
    8   1 Pt  78       6.524774    2.869470   19.914932      10.0000    195.0840
    9   1 Pt  78       9.324774    2.819471   19.824932      10.0000    195.0840
   10   1 Pt  78      12.004774    2.949471   20.044933      10.0000    195.0840
   11   1 Pt  78      14.834773    2.909470   19.994933      10.0000    195.0840
   12   1 Pt  78       0.674774    2.839471   20.014934      10.0000    195.0840
   13   1 Pt  78       5.004774    5.259471   19.954933      10.0000    195.0840
   14   1 Pt  78       7.784774    5.509471   20.044933      10.0000    195.0840
   15   1 Pt  78      10.584774    5.249471   20.124935      10.0000    195.0840
   16   1 Pt  78      13.454773    5.449471   19.934936      10.0000    195.0840
   17   1 Pt  78      -0.635227    5.449471   19.994933      10.0000    195.0840
   18   1 Pt  78       2.064774    5.149471   19.864936      10.0000    195.0840
   19   1 Pt  78       6.324774    7.859471   20.074935      10.0000    195.0840
   20   1 Pt  78       9.184774    7.709471   20.094936      10.0000    195.0840
   21   1 Pt  78      11.984774    7.749472   19.934936      10.0000    195.0840
   22   1 Pt  78      -2.015227    7.729471   19.964935      10.0000    195.0840
   23   1 Pt  78       0.854774    7.759471   19.854934      10.0000    195.0840
   24   1 Pt  78       3.504774    7.819471   19.784934      10.0000    195.0840
   25   1 Pt  78       7.844774   10.189470   19.804935      10.0000    195.0840
   26   1 Pt  78      10.564774   10.099471   19.734935      10.0000    195.0840
   27   1 Pt  78      -3.575227   10.159470   19.844932      10.0000    195.0840
   28   1 Pt  78      -0.675226   10.219471   20.034934      10.0000    195.0840
   29   1 Pt  78       2.134774   10.209471   20.134933      10.0000    195.0840
   30   1 Pt  78       5.044774   10.209471   19.804935      10.0000    195.0840
   31   1 Pt  78       9.214774   12.539471   19.944934      10.0000    195.0840
   32   1 Pt  78      -4.865226   12.599471   20.014934      10.0000    195.0840
   33   1 Pt  78      -2.055227   12.669471   20.144935      10.0000    195.0840
   34   1 Pt  78       0.774774   12.639471   19.914932      10.0000    195.0840
   35   1 Pt  78       3.674774   12.669471   20.004936      10.0000    195.0840
   36   1 Pt  78       6.444774   12.669471   19.944934      10.0000    195.0840
   37   1 Pt  78       0.884774    1.229470   22.184932      10.0000    195.0840
   38   1 Pt  78       3.624774    1.359470   22.264934      10.0000    195.0840
   39   1 Pt  78       6.334774    1.099470   22.354934      10.0000    195.0840
   40   1 Pt  78       9.034774    1.259470   22.404933      10.0000    195.0840
   41   1 Pt  78      12.014775    1.159471   22.454933      10.0000    195.0840
   42   1 Pt  78      14.784773    1.299471   22.374935      10.0000    195.0840
   43   1 Pt  78       2.144774    3.749471   22.234935      10.0000    195.0840
   44   1 Pt  78       5.104774    3.749471   22.324932      10.0000    195.0840
   45   1 Pt  78       7.744774    3.659471   22.284934      10.0000    195.0840
   46   1 Pt  78      10.614774    3.539471   22.444934      10.0000    195.0840
   47   1 Pt  78      13.424775    3.689471   22.374935      10.0000    195.0840
   48   1 Pt  78      -0.625227    3.619470   22.364936      10.0000    195.0840
   49   1 Pt  78       3.584774    6.129471   22.174934      10.0000    195.0840
   50   1 Pt  78       6.364774    6.239471   22.314933      10.0000    195.0840
   51   1 Pt  78       9.184774    6.179470   22.354934      10.0000    195.0840
   52   1 Pt  78      12.004774    6.089471   22.354934      10.0000    195.0840
   53   1 Pt  78      -2.065227    6.179470   22.354934      10.0000    195.0840
   54   1 Pt  78       0.804774    6.139471   22.254932      10.0000    195.0840
   55   1 Pt  78       4.954774    8.709471   22.284934      10.0000    195.0840
   56   1 Pt  78       7.644774    8.719471   22.274932      10.0000    195.0840
   57   1 Pt  78      10.634774    8.519471   22.264934      10.0000    195.0840
   58   1 Pt  78      -3.465227    8.469471   22.264934      10.0000    195.0840
   59   1 Pt  78      -0.595227    8.489471   22.314933      10.0000    195.0840
   60   1 Pt  78       2.234774    8.609470   22.324932      10.0000    195.0840
   61   1 Pt  78       6.294774   11.149471   22.334934      10.0000    195.0840
   62   1 Pt  78       9.194774   10.979471   22.124935      10.0000    195.0840
   63   1 Pt  78      -4.905227   11.009471   22.214935      10.0000    195.0840
   64   1 Pt  78      -2.145227   10.909471   22.274932      10.0000    195.0840
   65   1 Pt  78       0.804774   10.919472   22.404933      10.0000    195.0840
   66   1 Pt  78       3.614774   11.089471   22.364936      10.0000    195.0840
   67   1 Pt  78       7.744774   13.529470   22.284934      10.0000    195.0840
   68   1 Pt  78      -6.285227   13.459471   22.304935      10.0000    195.0840
   69   1 Pt  78      -3.515227   13.379471   22.294937      10.0000    195.0840
   70   1 Pt  78      -0.705226   13.209471   22.294937      10.0000    195.0840
   71   1 Pt  78       2.104774   13.349470   22.414932      10.0000    195.0840
   72   1 Pt  78       4.954774   13.419472   22.404933      10.0000    195.0840
   73   1 Pt  78      -7.765227   14.269470   24.534934      10.0000    195.0840
   74   1 Pt  78      -4.905227   14.169471   24.484935      10.0000    195.0840
   75   1 Pt  78      -2.075227   14.139472   24.594932      10.0000    195.0840
   76   1 Pt  78       0.734774   14.089471   24.654933      10.0000    195.0840
   77   1 Pt  78       3.564774   14.239471   24.614936      10.0000    195.0840
   78   1 Pt  78       6.324774   14.259472   24.724933      10.0000    195.0840
   79   1 Pt  78       2.084774    2.089471   24.544937      10.0000    195.0840
   80   1 Pt  78       5.004774    2.119470   24.604934      10.0000    195.0840
   81   1 Pt  78       7.824774    2.079471   24.734931      10.0000    195.0840
   82   1 Pt  78      10.584774    1.929470   24.674934      10.0000    195.0840
   83   1 Pt  78      13.424775    2.019471   24.784934      10.0000    195.0840
   84   1 Pt  78      -0.655227    1.979471   24.664932      10.0000    195.0840
   85   1 Pt  78       3.624774    4.499471   24.554935      10.0000    195.0840
   86   1 Pt  78       6.414773    4.509471   24.584934      10.0000    195.0840
   87   1 Pt  78       9.284773    4.439471   24.704933      10.0000    195.0840
   88   1 Pt  78      11.964775    4.409470   24.674934      10.0000    195.0840
   89   1 Pt  78      -2.055227    4.429470   24.584934      10.0000    195.0840
   90   1 Pt  78       0.744774    4.439471   24.564933      10.0000    195.0840
   91   1 Pt  78       4.924774    7.039471   24.614936      10.0000    195.0840
   92   1 Pt  78       7.784774    6.889471   24.614936      10.0000    195.0840
   93   1 Pt  78      10.544774    6.999471   24.604934      10.0000    195.0840
   94   1 Pt  78      -3.615226    6.909470   24.644935      10.0000    195.0840
   95   1 Pt  78      -0.655227    6.899471   24.724933      10.0000    195.0840
   96   1 Pt  78       2.124774    6.879471   24.564933      10.0000    195.0840
   97   1 Pt  78       6.304774    9.419471   24.664932      10.0000    195.0840
   98   1 Pt  78       9.194774    9.339471   24.474933      10.0000    195.0840
   99   1 Pt  78      -4.915227    9.369471   24.524932      10.0000    195.0840
  100   1 Pt  78      -2.085227    9.219471   24.604934      10.0000    195.0840
  101   1 Pt  78       0.834774    9.269470   24.664932      10.0000    195.0840
  102   1 Pt  78       3.574774    9.389471   24.754936      10.0000    195.0840
  103   1 Pt  78       7.734774   11.779471   24.624935      10.0000    195.0840
  104   1 Pt  78      -6.405227   11.809471   24.504936      10.0000    195.0840
  105   1 Pt  78      -3.415227   11.729471   24.624935      10.0000    195.0840
  106   1 Pt  78      -0.705226   11.679471   24.644935      10.0000    195.0840
  107   1 Pt  78       2.074774   11.849471   24.704933      10.0000    195.0840
  108   1 Pt  78       4.934774   11.839472   24.714935      10.0000    195.0840
  109   1 Pt  78       2.154774    0.399470   26.802932      10.0000    195.0840
  110   1 Pt  78       4.974774    0.349470   26.812932      10.0000    195.0840
  111   1 Pt  78       7.754774    0.339470   26.952932      10.0000    195.0840
  112   1 Pt  78      10.444774    0.339470   26.952932      10.0000    195.0840
  113   1 Pt  78      13.284774    0.359470   26.952932      10.0000    195.0840
  114   1 Pt  78      16.084773    0.359470   26.932932      10.0000    195.0840
  115   1 Pt  78       3.554774    2.779471   26.862932      10.0000    195.0840
  116   1 Pt  78       6.274774    2.839471   27.002932      10.0000    195.0840
  117   1 Pt  78       9.064774    2.889470   26.922932      10.0000    195.0840
  118   1 Pt  78      11.894775    2.799470   27.032932      10.0000    195.0840
  119   1 Pt  78      14.774775    2.779471   26.992932      10.0000    195.0840
  120   1 Pt  78       0.704774    2.789471   26.972932      10.0000    195.0840
  121   1 Pt  78       4.904774    5.309471   26.842932      10.0000    195.0840
  122   1 Pt  78       7.684774    5.389470   26.882932      10.0000    195.0840
  123   1 Pt  78      10.504775    5.369470   27.002932      10.0000    195.0840
  124   1 Pt  78      13.244774    5.179471   26.922932      10.0000    195.0840
  125   1 Pt  78      -0.735227    5.189471   26.862932      10.0000    195.0840
  126   1 Pt  78       2.174774    5.099471   26.902932      10.0000    195.0840
  127   1 Pt  78       6.304774    7.759471   27.012932      10.0000    195.0840
  128   1 Pt  78       9.104774    7.779470   26.942932      10.0000    195.0840
  129   1 Pt  78      11.964775    7.689471   26.922932      10.0000    195.0840
  130   1 Pt  78      -2.145227    7.639471   26.932932      10.0000    195.0840
  131   1 Pt  78       0.734774    7.569471   26.992932      10.0000    195.0840
  132   1 Pt  78       3.514774    7.689471   26.922932      10.0000    195.0840
  133   1 Pt  78       7.744774   10.179472   26.802932      10.0000    195.0840
  134   1 Pt  78      10.534774   10.109470   26.742932      10.0000    195.0840
  135   1 Pt  78      -3.485227   10.079471   26.842932      10.0000    195.0840
  136   1 Pt  78      -0.725226    9.999472   26.982932      10.0000    195.0840
  137   1 Pt  78       2.044774   10.129472   27.032932      10.0000    195.0840
  138   1 Pt  78       4.904774   10.149471   26.882932      10.0000    195.0840
  139   1 Pt  78       9.114774   12.619470   26.912932      10.0000    195.0840
  140   1 Pt  78      -4.995226   12.529471   26.742932      10.0000    195.0840
  141   1 Pt  78      -2.115227   12.509471   26.922932      10.0000    195.0840
  142   1 Pt  78       0.624774   12.459471   27.032932      10.0000    195.0840
  143   1 Pt  78       3.454774   12.559471   27.012932      10.0000    195.0840
  144   1 Pt  78       6.294774   12.599471   27.002932      10.0000    195.0840
  145   1 Pt  78       0.554774    1.219470   29.202933      10.0000    195.0840
  146   1 Pt  78       3.564774    1.139470   29.062933      10.0000    195.0840
  147   1 Pt  78       6.334774    1.099470   29.262933      10.0000    195.0840
  148   1 Pt  78       9.104774    1.179470   29.352932      10.0000    195.0840
  149   1 Pt  78      11.964775    1.139470   29.282932      10.0000    195.0840
  150   1 Pt  78      14.674775    1.069471   29.182933      10.0000    195.0840
  151   1 Pt  78       2.094773    3.469470   29.162933      10.0000    195.0840
  152   1 Pt  78       4.904774    3.609471   29.282932      10.0000    195.0840
  153   1 Pt  78       7.644774    3.629470   29.332932      10.0000    195.0840
  154   1 Pt  78      10.474774    3.599471   29.312932      10.0000    195.0840
  155   1 Pt  78      13.304774    3.579471   29.272932      10.0000    195.0840
  156   1 Pt  78      -0.775226    3.539471   29.262933      10.0000    195.0840
  157   1 Pt  78       3.434774    6.029470   29.232933      10.0000    195.0840
  158   1 Pt  78       6.294774    6.059471   29.312932      10.0000    195.0840
  159   1 Pt  78       9.124773    6.069471   29.322932      10.0000    195.0840
  160   1 Pt  78      11.904774    6.009471   29.232933      10.0000    195.0840
  161   1 Pt  78      -2.125227    5.969471   29.122932      10.0000    195.0840
  162   1 Pt  78       0.644774    5.859471   29.192932      10.0000    195.0840
  163   1 Pt  78       4.804774    8.529470   29.242932      10.0000    195.0840
  164   1 Pt  78       7.644774    8.449471   29.212932      10.0000    195.0840
  165   1 Pt  78      10.404774    8.589471   29.092932      10.0000    195.0840
  166   1 Pt  78      -3.545227    8.449471   29.302932      10.0000    195.0840
  167   1 Pt  78      -0.695226    8.499471   29.312932      10.0000    195.0840
  168   1 Pt  78       1.984774    8.429471   29.122932      10.0000    195.0840
  169   1 Pt  78       6.174774   10.929471   29.102932      10.0000    195.0840
  170   1 Pt  78       9.044774   10.879471   29.142932      10.0000    195.0840
  171   1 Pt  78      -4.875227   10.779470   29.022932      10.0000    195.0840
  172   1 Pt  78      -2.195227   10.899470   29.222932      10.0000    195.0840
  173   1 Pt  78       0.654774   10.889471   29.342932      10.0000    195.0840
  174   1 Pt  78       3.424774   10.869471   29.272932      10.0000    195.0840
  175   1 Pt  78       7.644774   13.329471   29.182933      10.0000    195.0840
  176   1 Pt  78      -6.285227   13.459471   29.122932      10.0000    195.0840
  177   1 Pt  78      -3.505227   13.289472   29.232933      10.0000    195.0840
  178   1 Pt  78      -0.715226   13.329471   29.302932      10.0000    195.0840
  179   1 Pt  78       2.074774   13.309471   29.342932      10.0000    195.0840
  180   1 Pt  78       4.784774   13.289472   29.232933      10.0000    195.0840
  181   1 Pt  78      -7.725227   14.039471   31.422932      10.0000    195.0840
  182   1 Pt  78      -4.985227   14.149471   31.662933      10.0000    195.0840
  183   1 Pt  78      -2.115227   14.209472   31.552932      10.0000    195.0840
  184   1 Pt  78       0.644774   14.199470   31.702933      10.0000    195.0840
  185   1 Pt  78       3.474774   14.139472   31.682933      10.0000    195.0840
  186   1 Pt  78       6.294774   14.109471   31.602933      10.0000    195.0840
  187   1 Pt  78       2.114774    1.839471   31.532932      10.0000    195.0840
  188   1 Pt  78       4.794774    1.999470   31.542933      10.0000    195.0840
  189   1 Pt  78       7.734774    1.969471   31.592933      10.0000    195.0840
  190   1 Pt  78      10.504775    1.909470   31.722933      10.0000    195.0840
  191   1 Pt  78      13.344775    1.879470   31.652933      10.0000    195.0840
  192   1 Pt  78      -0.765227    1.789471   31.562933      10.0000    195.0840
  193   1 Pt  78       3.454774    4.359471   31.592933      10.0000    195.0840
  194   1 Pt  78       6.194774    4.369470   31.652933      10.0000    195.0840
  195   1 Pt  78       9.054774    4.399471   31.572932      10.0000    195.0840
  196   1 Pt  78      12.054774    4.349471   31.562933      10.0000    195.0840
  197   1 Pt  78      -2.095226    4.409470   31.692933      10.0000    195.0840
  198   1 Pt  78       0.724774    4.219471   31.532932      10.0000    195.0840
  199   1 Pt  78       4.754774    6.829471   31.642933      10.0000    195.0840
  200   1 Pt  78       7.554774    6.869470   31.522933      10.0000    195.0840
  201   1 Pt  78      10.554774    6.909470   31.472933      10.0000    195.0840
  202   1 Pt  78      -3.525227    6.829471   31.542933      10.0000    195.0840
  203   1 Pt  78      -0.735227    6.679470   31.422932      10.0000    195.0840
  204   1 Pt  78       1.974774    6.729471   31.492932      10.0000    195.0840
  205   1 Pt  78       6.204774    9.239471   31.512933      10.0000    195.0840
  206   1 Pt  78       8.944774    9.389471   31.422932      10.0000    195.0840
  207   1 Pt  78      -4.975227    9.309471   31.482932      10.0000    195.0840
  208   1 Pt  78      -2.175227    9.239471   31.642933      10.0000    195.0840
  209   1 Pt  78       0.614774    9.329471   31.482932      10.0000    195.0840
  210   1 Pt  78       3.324774    9.319471   31.632932      10.0000    195.0840
  211   1 Pt  78       7.574774   11.759472   31.592933      10.0000    195.0840
  212   1 Pt  78      -6.335227   11.679471   31.362933      10.0000    195.0840
  213   1 Pt  78      -3.565227   11.699470   31.542933      10.0000    195.0840
  214   1 Pt  78      -0.915227   11.659471   31.732933      10.0000    195.0840
  215   1 Pt  78       2.034774   11.779471   31.742933      10.0000    195.0840
  216   1 Pt  78       4.784774   11.709472   31.482932      10.0000    195.0840




 SCF PARAMETERS         Density guess:                                   RESTART
                        --------------------------------------------------------
                        max_scf:                                             500
                        max_scf_history:                                       0
                        max_diis:                                              4
                        --------------------------------------------------------
                        eps_scf:                                        1.00E-06
                        eps_scf_history:                                0.00E+00
                        eps_diis:                                       1.00E-01
                        eps_eigval:                                     1.00E-05
                        --------------------------------------------------------
                        level_shift [a.u.]:                             0.000000
                        added MOs                                       500    0
                        --------------------------------------------------------
                        Mixing method:                            BROYDEN_MIXING
                                                charge density mixing in g-space
                        --------------------------------------------------------
                        Smear method:                                FERMI_DIRAC
                        Electronic temperature [K]:                        300.0
                        Electronic temperature [a.u.]:                  9.50E-04
                        Accuracy threshold:                             1.00E-10
                        --------------------------------------------------------
                        No outer SCF

 PW_GRID| Information for grid number                                          1
 PW_GRID| Grid distributed over                                    32 processors
 PW_GRID| Real space group dimensions                                    32    1
 PW_GRID| the grid is blocked:                                                NO
 PW_GRID| Cutoff [a.u.]                                                    200.0
 PW_GRID| spherical cutoff:                                                   NO
 PW_GRID|   Bounds   1           -105     104                Points:         210
 PW_GRID|   Bounds   2           -105     104                Points:         210
 PW_GRID|   Bounds   3           -315     314                Points:         630
 PW_GRID| Volume element (a.u.^3)  0.3081E-02     Volume (a.u.^3)     85609.9578
 PW_GRID| Grid span                                                    FULLSPACE
 PW_GRID|   Distribution                         Average         Max         Min
 PW_GRID|   G-Vectors                           868218.8      868350      868140
 PW_GRID|   G-Rays                                4134.4        4135        4134
 PW_GRID|   Real Space Points                   868218.8      926100      793800

 PW_GRID| Information for grid number                                          2
 PW_GRID| Number of the reference grid                                         1
 PW_GRID| Grid distributed over                                    32 processors
 PW_GRID| Real space group dimensions                                    32    1
 PW_GRID| the grid is blocked:                                                NO
 PW_GRID| Cutoff [a.u.]                                                     66.7
 PW_GRID| spherical cutoff:                                                   NO
 PW_GRID|   Bounds   1            -60      59                Points:         120
 PW_GRID|   Bounds   2            -60      59                Points:         120
 PW_GRID|   Bounds   3           -180     179                Points:         360
 PW_GRID| Volume element (a.u.^3)  0.1651E-01     Volume (a.u.^3)     85609.9578
 PW_GRID| Grid span                                                    FULLSPACE
 PW_GRID|   Distribution                         Average         Max         Min
 PW_GRID|   G-Vectors                           162000.0      162840      161280
 PW_GRID|   G-Rays                                1350.0        1357        1344
 PW_GRID|   Real Space Points                   162000.0      172800      129600

 PW_GRID| Information for grid number                                          3
 PW_GRID| Number of the reference grid                                         1
 PW_GRID| Grid distributed over                                    32 processors
 PW_GRID| Real space group dimensions                                    32    1
 PW_GRID| the grid is blocked:                                                NO
 PW_GRID| Cutoff [a.u.]                                                     22.2
 PW_GRID| spherical cutoff:                                                   NO
 PW_GRID|   Bounds   1            -35      34                Points:          70
 PW_GRID|   Bounds   2            -35      34                Points:          70
 PW_GRID|   Bounds   3           -105     104                Points:         210
 PW_GRID| Volume element (a.u.^3)  0.8320E-01     Volume (a.u.^3)     85609.9578
 PW_GRID| Grid span                                                    FULLSPACE
 PW_GRID|   Distribution                         Average         Max         Min
 PW_GRID|   G-Vectors                            32156.2       32340       31990
 PW_GRID|   G-Rays                                 459.4         462         457
 PW_GRID|   Real Space Points                    32156.2       44100       29400

 PW_GRID| Information for grid number                                          4
 PW_GRID| Number of the reference grid                                         1
 PW_GRID| Grid distributed over                                    32 processors
 PW_GRID| Real space group dimensions                                    32    1
 PW_GRID| the grid is blocked:                                                NO
 PW_GRID| Cutoff [a.u.]                                                      7.4
 PW_GRID| spherical cutoff:                                                   NO
 PW_GRID|   Bounds   1            -20      19                Points:          40
 PW_GRID|   Bounds   2            -20      19                Points:          40
 PW_GRID|   Bounds   3            -60      59                Points:         120
 PW_GRID| Volume element (a.u.^3)  0.4459         Volume (a.u.^3)     85609.9578
 PW_GRID| Grid span                                                    FULLSPACE
 PW_GRID|   Distribution                         Average         Max         Min
 PW_GRID|   G-Vectors                             6000.0        6120        5920
 PW_GRID|   G-Rays                                 150.0         153         148
 PW_GRID|   Real Space Points                     6000.0        9600        4800

 POISSON| Solver                                          IMPLICIT (GENERALIZED)
 POISSON| Boundary Condition                                PERIODIC & DIRICHLET
 POISSON| Maximum number of iterations                                        30
 POISSON| Convergence threshold                                         1.00E-08
 POISSON| Dielectric Constant                                              80.00
 POISSON| Relaxation parameter                                          1.00E+00

 RS_GRID| Information for grid number                                          1
 RS_GRID|   Bounds   1           -105     104                Points:         210
 RS_GRID|   Bounds   2           -105     104                Points:         210
 RS_GRID|   Bounds   3           -315     314                Points:         630
 RS_GRID| Real space distribution over                                 32 groups
 RS_GRID| Real space distribution along direction                              3
 RS_GRID| Border size                                                         54
 RS_GRID|   Distribution                         Average         Max         Min
 RS_GRID|   Planes                                 127.7         128         127

 RS_GRID| Information for grid number                                          2
 RS_GRID|   Bounds   1            -60      59                Points:         120
 RS_GRID|   Bounds   2            -60      59                Points:         120
 RS_GRID|   Bounds   3           -180     179                Points:         360
 RS_GRID| Real space distribution over                                 32 groups
 RS_GRID| Real space distribution along direction                              3
 RS_GRID| Border size                                                         36
 RS_GRID|   Distribution                         Average         Max         Min
 RS_GRID|   Planes                                  83.2          84          83

 RS_GRID| Information for grid number                                          3
 RS_GRID|   Bounds   1            -35      34                Points:          70
 RS_GRID|   Bounds   2            -35      34                Points:          70
 RS_GRID|   Bounds   3           -105     104                Points:         210
 RS_GRID| Real space fully replicated
 RS_GRID| Group size                                                           1

 RS_GRID| Information for grid number                                          4
 RS_GRID|   Bounds   1            -20      19                Points:          40
 RS_GRID|   Bounds   2            -20      19                Points:          40
 RS_GRID|   Bounds   3            -60      59                Points:         120
 RS_GRID| Real space fully replicated
 RS_GRID| Group size                                                           1

 Number of electrons:                                                       2160
 Number of occupied orbitals:                                               1080
 Number of molecular orbitals:                                              1580

 Number of orbital functions:                                               4320
 Number of independent orbital functions:                                   4320

 Extrapolation method: initial_guess


 SCF WAVEFUNCTION OPTIMIZATION

  Step     Update method      Time    Convergence         Total energy    Change
  ------------------------------------------------------------------------------

  POISSON| IMPLICIT (GENERALIZED) SOLVER ---------------------------------------
  POISSON| Preparing Dirichlet regions ...
  POISSON| Dirichlet region    1
  POISSON|     type : axis-aligned planar
  POISSON|     applied potential :   0.0000E+00  [Eh/e]
  POISSON| Dirichlet region    2
  POISSON|     type : axis-aligned planar
  POISSON|     applied potential :   0.0000E+00  [Eh/e]
  POISSON| ... Done. 
  ------------------------------------------------------------------------------

  POISSON|   iter        pres error      nabs error        E_hartree    delta E
  POISSON|      1        0.1111E-05      0.3302E-01    1991.9482310517  0.20E+04
  POISSON|      2        0.1135E-14      0.1111E-05    1991.9482310517  0.23E-10
  POISSON| Poisson solver converged in 2 iterations.
     1 NoMix/Diag. 0.30E+00   11.2     0.16142487     -5670.8822834323 -5.67E+03
  POISSON|   iter        pres error      nabs error        E_hartree    delta E
  POISSON|      1        0.3778E-04      0.3283E-01    1991.8962423201 -0.52E-01
  POISSON|      2        0.7507E-15      0.3778E-04    1991.8962423201  0.23E-10
  POISSON| Poisson solver converged in 2 iterations.
     2 Broy./Diag. 0.30E+00   13.2     0.22281880     -5671.3661702097 -4.84E-01
  POISSON|   iter        pres error      nabs error        E_hartree    delta E
  POISSON|      1        0.9160E-04      0.4396E-03    1992.0655689382  0.17E+00
  POISSON|      2        0.1637E-16      0.9160E-04    1992.0655689382  0.91E-12
  POISSON| Poisson solver converged in 2 iterations.
     3 Broy./Diag. 0.30E+00   13.3     0.14982838     -5675.6827010354 -4.32E+00
  POISSON|   iter        pres error      nabs error        E_hartree    delta E
  POISSON|      1        0.8829E-04      0.3575E-03    1992.1122968988  0.47E-01
  POISSON|      2        0.3883E-17      0.8829E-04    1992.1122968988  0.23E-12
  POISSON| Poisson solver converged in 2 iterations.
     4 Broy./Diag. 0.30E+00   13.3     0.13964554     -5672.8799790035  2.80E+00
  POISSON|   iter        pres error      nabs error        E_hartree    delta E
  POISSON|      1        0.3873E-04      0.1541E-03    1992.2392479164  0.13E+00
  POISSON|      2        0.2886E-17      0.3873E-04    1992.2392479164  0.18E-11
  POISSON| Poisson solver converged in 2 iterations.
     5 Broy./Diag. 0.30E+00   13.3     0.08447483     -5672.6759064515  2.04E-01
  POISSON|   iter        pres error      nabs error        E_hartree    delta E
  POISSON|      1        0.4616E-05      0.4936E-04    1992.3664509336  0.13E+00
  POISSON|      2        0.1842E-17      0.4616E-05    1992.3664509336  0.91E-12
  POISSON| Poisson solver converged in 2 iterations.
     6 Broy./Diag. 0.30E+00   13.4     0.03841423     -5673.0452658151 -3.69E-01
  POISSON|   iter        pres error      nabs error        E_hartree    delta E
  POISSON|      1        0.7674E-06      0.3094E-04    1992.4752728748  0.11E+00
  POISSON|      2        0.5465E-18      0.7674E-06    1992.4752728748 -0.23E-12
  POISSON| Poisson solver converged in 2 iterations.
     7 Broy./Diag. 0.30E+00   13.4     0.03161675     -5672.2919638885  7.53E-01
  POISSON|   iter        pres error      nabs error        E_hartree    delta E
  POISSON|      1        0.8274E-07      0.2651E-04    1992.5719383219  0.97E-01
  POISSON|      2        0.3653E-18      0.8274E-07    1992.5719383219 -0.23E-12
  POISSON| Poisson solver converged in 2 iterations.
     8 Broy./Diag. 0.30E+00   13.5     0.02348203     -5672.2896615410  2.30E-03
  POISSON|   iter        pres error      nabs error        E_hartree    delta E
  POISSON|      1        0.5663E-06      0.1269E-04    1992.6002104225  0.28E-01
  POISSON|      2        0.7408E-19      0.5663E-06    1992.6002104225 -0.23E-12
  POISSON| Poisson solver converged in 2 iterations.
     9 Broy./Diag. 0.30E+00   13.5     0.01872255     -5672.2722275113  1.74E-02
  POISSON|   iter        pres error      nabs error        E_hartree    delta E
  POISSON|      1        0.4788E-06      0.5428E-05    1992.6119113858  0.12E-01
  POISSON|      2        0.1559E-19      0.4788E-06    1992.6119113858 -0.68E-12
  POISSON| Poisson solver converged in 2 iterations.
    10 Broy./Diag. 0.30E+00   13.6     0.00617966     -5672.2334605399  3.88E-02
  POISSON|   iter        pres error      nabs error        E_hartree    delta E
  POISSON|      1        0.1702E-07      0.4462E-05    1992.6177046152  0.58E-02
  POISSON|      2        0.3364E-19      0.1702E-07    1992.6177046152 -0.45E-12
  POISSON| Poisson solver converged in 2 iterations.
    11 Broy./Diag. 0.30E+00   13.5     0.00394819     -5672.2266969266  6.76E-03
  POISSON|   iter        pres error      nabs error        E_hartree    delta E
  POISSON|      1        0.2353E-06      0.5074E-05    1992.6219932954  0.43E-02
  POISSON|      2        0.1375E-18      0.2353E-06    1992.6219932954 -0.45E-12
  POISSON| Poisson solver converged in 2 iterations.
    12 Broy./Diag. 0.30E+00   13.5     0.00243109     -5672.2232178576  3.48E-03
  POISSON|   iter        pres error      nabs error        E_hartree    delta E
  POISSON|      1        0.1131E-06      0.3387E-05    1992.6266183094  0.46E-02
  POISSON|      2        0.3522E-20      0.1131E-06    1992.6266183094 -0.45E-12
  POISSON| Poisson solver converged in 2 iterations.
    13 Broy./Diag. 0.30E+00   13.5     0.00140613     -5672.2463448640 -2.31E-02
  POISSON|   iter        pres error      nabs error        E_hartree    delta E
  POISSON|      1        0.1952E-06      0.1688E-05    1992.6273094363  0.69E-03
  POISSON|      2        0.1620E-19      0.1952E-06    1992.6273094363  0.23E-12
  POISSON| Poisson solver converged in 2 iterations.
    14 Broy./Diag. 0.30E+00   13.5     0.00120226     -5672.2390689747  7.28E-03
  POISSON|   iter        pres error      nabs error        E_hartree    delta E
  POISSON|      1        0.9863E-06      0.4051E-05    1992.6266249283 -0.68E-03
  POISSON|      2        0.6497E-19      0.9863E-06    1992.6266249283  0.00E+00
  POISSON| Poisson solver converged in 2 iterations.
    15 Broy./Diag. 0.30E+00   13.5     0.00198757     -5672.2334648406  5.60E-03
  POISSON|   iter        pres error      nabs error        E_hartree    delta E
  POISSON|      1        0.7727E-06      0.3367E-05    1992.6269524181  0.33E-03
  POISSON|      2        0.8334E-20      0.7727E-06    1992.6269524181 -0.23E-12
  POISSON| Poisson solver converged in 2 iterations.
    16 Broy./Diag. 0.30E+00   13.5     0.00189703     -5672.2304177307  3.05E-03
  POISSON|   iter        pres error      nabs error        E_hartree    delta E
  POISSON|      1        0.6796E-07      0.1389E-05    1992.6269138084 -0.39E-04
  POISSON|      2        0.2681E-20      0.6796E-07    1992.6269138084 -0.23E-12
  POISSON| Poisson solver converged in 2 iterations.
    17 Broy./Diag. 0.30E+00   13.5     0.00052907     -5672.2477510287 -1.73E-02
  POISSON|   iter        pres error      nabs error        E_hartree    delta E
  POISSON|      1        0.2150E-07      0.1127E-05    1992.6269827406  0.69E-04
  POISSON|      2        0.2981E-19      0.2150E-07    1992.6269827406  0.00E+00
  POISSON| Poisson solver converged in 2 iterations.
    18 Broy./Diag. 0.30E+00   13.5     0.00044420     -5672.2380594091  9.69E-03
  POISSON|   iter        pres error      nabs error        E_hartree    delta E
  POISSON|      1        0.2791E-07      0.1219E-05    1992.6270506179  0.68E-04
  POISSON|      2        0.3381E-19      0.2791E-07    1992.6270506179 -0.23E-12
  POISSON| Poisson solver converged in 2 iterations.
    19 Broy./Diag. 0.30E+00   13.5     0.00037382     -5672.2410429224 -2.98E-03
  POISSON|   iter        pres error      nabs error        E_hartree    delta E
  POISSON|      1        0.9071E-08      0.9881E-06    1992.6273838905  0.33E-03
  POISSON| Poisson solver converged in 1 iteration. 
    20 Broy./Diag. 0.30E+00   12.1     0.00033625     -5672.2423892735 -1.35E-03
  POISSON|   iter        pres error      nabs error        E_hartree    delta E
  POISSON|      1        0.1025E-08      0.6923E-06    1992.6277551671  0.37E-03
  POISSON| Poisson solver converged in 1 iteration. 
    21 Broy./Diag. 0.30E+00   12.2     0.00022761     -5672.2416437333  7.46E-04
  POISSON|   iter        pres error      nabs error        E_hartree    delta E
  POISSON|      1        0.6309E-08      0.7120E-06    1992.6281618021  0.41E-03
  POISSON| Poisson solver converged in 1 iteration. 
    22 Broy./Diag. 0.30E+00   12.2     0.00016929     -5672.2403715055  1.27E-03
  POISSON|   iter        pres error      nabs error        E_hartree    delta E
  POISSON|      1        0.2052E-07      0.7426E-06    1992.6285348329  0.37E-03
  POISSON|      2        0.2748E-19      0.2052E-07    1992.6285348329 -0.23E-12
  POISSON| Poisson solver converged in 2 iterations.
    23 Broy./Diag. 0.30E+00   13.5     0.00011698     -5672.2396984749  6.73E-04
  POISSON|   iter        pres error      nabs error        E_hartree    delta E
  POISSON|      1        0.1859E-07      0.5859E-06    1992.6287642945  0.23E-03
  POISSON|      2        0.2035E-19      0.1859E-07    1992.6287642945 -0.23E-12
  POISSON| Poisson solver converged in 2 iterations.
    24 Broy./Diag. 0.30E+00   13.5     0.00009406     -5672.2405076947 -8.09E-04
  POISSON|   iter        pres error      nabs error        E_hartree    delta E
  POISSON|      1        0.4344E-07      0.5511E-06    1992.6289492946  0.19E-03
  POISSON|      2        0.1488E-19      0.4344E-07    1992.6289492946  0.23E-12
  POISSON| Poisson solver converged in 2 iterations.
    25 Broy./Diag. 0.30E+00   13.5     0.00013849     -5672.2404543758  5.33E-05
  POISSON|   iter        pres error      nabs error        E_hartree    delta E
  POISSON|      1        0.8272E-07      0.3384E-06    1992.6289729468  0.24E-04
  POISSON|      2        0.2923E-20      0.8272E-07    1992.6289729468  0.00E+00
  POISSON| Poisson solver converged in 2 iterations.
    26 Broy./Diag. 0.30E+00   13.6     0.00017765     -5672.2402750034  1.79E-04
  POISSON|   iter        pres error      nabs error        E_hartree    delta E
  POISSON|      1        0.1881E-07      0.9159E-06    1992.6290631128  0.90E-04
  POISSON|      2        0.3425E-19      0.1881E-07    1992.6290631128  0.00E+00
  POISSON| Poisson solver converged in 2 iterations.
    27 Broy./Diag. 0.30E+00   13.6     0.00013614     -5672.2390469211  1.23E-03
  POISSON|   iter        pres error      nabs error        E_hartree    delta E
  POISSON|      1        0.1160E-07      0.4741E-06    1992.6291027263  0.40E-04
  POISSON|      2        0.1666E-19      0.1160E-07    1992.6291027263 -0.23E-12
  POISSON| Poisson solver converged in 2 iterations.
    28 Broy./Diag. 0.30E+00   13.6     0.00009961     -5672.2408218827 -1.77E-03
  POISSON|   iter        pres error      nabs error        E_hartree    delta E
  POISSON|      1        0.7791E-08      0.4873E-06    1992.6291145878  0.12E-04
  POISSON| Poisson solver converged in 1 iteration. 
    29 Broy./Diag. 0.30E+00   12.1     0.00006835     -5672.2403107256  5.11E-04
  POISSON|   iter        pres error      nabs error        E_hartree    delta E
  POISSON|      1        0.7208E-08      0.4288E-06    1992.6290884037 -0.26E-04
  POISSON| Poisson solver converged in 1 iteration. 
    30 Broy./Diag. 0.30E+00   12.1     0.00005455     -5672.2402953792  1.53E-05
  POISSON|   iter        pres error      nabs error        E_hartree    delta E
  POISSON|      1        0.1188E-07      0.4256E-06    1992.6290375331 -0.51E-04
  POISSON|      2        0.1855E-19      0.1188E-07    1992.6290375331  0.23E-12
  POISSON| Poisson solver converged in 2 iterations.
    31 Broy./Diag. 0.30E+00   13.6     0.00005127     -5672.2405995581 -3.04E-04
  POISSON|   iter        pres error      nabs error        E_hartree    delta E
  POISSON|      1        0.4181E-08      0.4246E-06    1992.6290219712 -0.16E-04
  POISSON| Poisson solver converged in 1 iteration. 
    32 Broy./Diag. 0.30E+00   12.1     0.00003742     -5672.2412135840 -6.14E-04
  POISSON|   iter        pres error      nabs error        E_hartree    delta E
  POISSON|      1        0.2865E-08      0.2750E-06    1992.6290009255 -0.21E-04
  POISSON| Poisson solver converged in 1 iteration. 
    33 Broy./Diag. 0.30E+00   12.1     0.00003053     -5672.2409119072  3.02E-04
  POISSON|   iter        pres error      nabs error        E_hartree    delta E
  POISSON|      1        0.3401E-08      0.2299E-06    1992.6290032103  0.23E-05
  POISSON| Poisson solver converged in 1 iteration. 
    34 Broy./Diag. 0.30E+00   12.1     0.00002664     -5672.2409430636 -3.12E-05
  POISSON|   iter        pres error      nabs error        E_hartree    delta E
  POISSON|      1        0.9912E-08      0.1569E-06    1992.6290266371  0.23E-04
  POISSON| Poisson solver converged in 1 iteration. 
    35 Broy./Diag. 0.30E+00   12.2     0.00003449     -5672.2411321205 -1.89E-04
  POISSON|   iter        pres error      nabs error        E_hartree    delta E
  POISSON|      1        0.2072E-07      0.1084E-06    1992.6290291976  0.26E-05
  POISSON|      2        0.1576E-20      0.2072E-07    1992.6290291976  0.00E+00
  POISSON| Poisson solver converged in 2 iterations.
    36 Broy./Diag. 0.30E+00   13.5     0.00004448     -5672.2410866697  4.55E-05
  POISSON|   iter        pres error      nabs error        E_hartree    delta E
  POISSON|      1        0.1484E-07      0.1582E-06    1992.6290840419  0.55E-04
  POISSON|      2        0.7412E-20      0.1484E-07    1992.6290840419  0.00E+00
  POISSON| Poisson solver converged in 2 iterations.
    37 Broy./Diag. 0.30E+00   13.5     0.00003554     -5672.2411998625 -1.13E-04
  POISSON|   iter        pres error      nabs error        E_hartree    delta E
  POISSON|      1        0.1838E-09      0.1654E-06    1992.6291313419  0.47E-04
  POISSON| Poisson solver converged in 1 iteration. 
    38 Broy./Diag. 0.30E+00   12.2     0.00001579     -5672.2409346970  2.65E-04
  POISSON|   iter        pres error      nabs error        E_hartree    delta E
  POISSON|      1        0.1085E-08      0.9388E-07    1992.6291654244  0.34E-04
  POISSON| Poisson solver converged in 1 iteration. 
    39 Broy./Diag. 0.30E+00   12.1     0.00001783     -5672.2409747822 -4.01E-05
  POISSON|   iter        pres error      nabs error        E_hartree    delta E
  POISSON|      1        0.9894E-09      0.1063E-06    1992.6292073919  0.42E-04
  POISSON| Poisson solver converged in 1 iteration. 
    40 Broy./Diag. 0.30E+00   12.1     0.00001635     -5672.2409905466 -1.58E-05
  POISSON|   iter        pres error      nabs error        E_hartree    delta E
  POISSON|      1        0.3694E-09      0.1209E-06    1992.6292455730  0.38E-04
  POISSON| Poisson solver converged in 1 iteration. 
    41 Broy./Diag. 0.30E+00   12.1     0.00001265     -5672.2409108741  7.97E-05
  POISSON|   iter        pres error      nabs error        E_hartree    delta E
  POISSON|      1        0.1499E-08      0.9013E-07    1992.6292582306  0.13E-04
  POISSON| Poisson solver converged in 1 iteration. 
    42 Broy./Diag. 0.30E+00   12.2     0.00000889     -5672.2408060317  1.05E-04
  POISSON|   iter        pres error      nabs error        E_hartree    delta E
  POISSON|      1        0.4759E-09      0.8150E-07    1992.6292717511  0.14E-04
  POISSON| Poisson solver converged in 1 iteration. 
    43 Broy./Diag. 0.30E+00   12.1     0.00000820     -5672.2409557216 -1.50E-04
  POISSON|   iter        pres error      nabs error        E_hartree    delta E
  POISSON|      1        0.5280E-10      0.7475E-07    1992.6292734910  0.17E-05
  POISSON| Poisson solver converged in 1 iteration. 
    44 Broy./Diag. 0.30E+00   12.2     0.00000724     -5672.2409016273  5.41E-05
  POISSON|   iter        pres error      nabs error        E_hartree    delta E
  POISSON|      1        0.1580E-08      0.4963E-07    1992.6292668533 -0.66E-05
  POISSON| Poisson solver converged in 1 iteration. 
    45 Broy./Diag. 0.30E+00   12.2     0.00000980     -5672.2408616530  4.00E-05
  POISSON|   iter        pres error      nabs error        E_hartree    delta E
  POISSON|      1        0.6271E-08      0.5101E-07    1992.6292671550  0.30E-06
  POISSON| Poisson solver converged in 1 iteration. 
    46 Broy./Diag. 0.30E+00   12.2     0.00001401     -5672.2409290410 -6.74E-05
  POISSON|   iter        pres error      nabs error        E_hartree    delta E
  POISSON|      1        0.4817E-08      0.5698E-07    1992.6292533922 -0.14E-04
  POISSON| Poisson solver converged in 1 iteration. 
    47 Broy./Diag. 0.30E+00   12.2     0.00001353     -5672.2409008474  2.82E-05
  POISSON|   iter        pres error      nabs error        E_hartree    delta E
  POISSON|      1        0.1298E-08      0.6497E-07    1992.6292440681 -0.93E-05
  POISSON| Poisson solver converged in 1 iteration. 
    48 Broy./Diag. 0.30E+00   12.1     0.00000578     -5672.2409619337 -6.11E-05
  POISSON|   iter        pres error      nabs error        E_hartree    delta E
  POISSON|      1        0.2394E-09      0.4191E-07    1992.6292354234 -0.86E-05
  POISSON| Poisson solver converged in 1 iteration. 
    49 Broy./Diag. 0.30E+00   12.1     0.00000665     -5672.2409409772  2.10E-05
  POISSON|   iter        pres error      nabs error        E_hartree    delta E
  POISSON|      1        0.2551E-09      0.5804E-07    1992.6292258268 -0.96E-05
  POISSON| Poisson solver converged in 1 iteration. 
    50 Broy./Diag. 0.30E+00   12.2     0.00000606     -5672.2409553269 -1.43E-05
  POISSON|   iter        pres error      nabs error        E_hartree    delta E
  POISSON|      1        0.2236E-09      0.5403E-07    1992.6292220158 -0.38E-05
  POISSON| Poisson solver converged in 1 iteration. 
    51 Broy./Diag. 0.30E+00   12.2     0.00000451     -5672.2409798698 -2.45E-05
  POISSON|   iter        pres error      nabs error        E_hartree    delta E
  POISSON|      1        0.3464E-09      0.3090E-07    1992.6292242198  0.22E-05
  POISSON| Poisson solver converged in 1 iteration. 
    52 Broy./Diag. 0.30E+00   12.1     0.00000351     -5672.2409789663  9.03E-07
  POISSON|   iter        pres error      nabs error        E_hartree    delta E
  POISSON|      1        0.2491E-09      0.4049E-07    1992.6292282100  0.40E-05
  POISSON| Poisson solver converged in 1 iteration. 
    53 Broy./Diag. 0.30E+00   12.1     0.00000311     -5672.2409323303  4.66E-05
  POISSON|   iter        pres error      nabs error        E_hartree    delta E
  POISSON|      1        0.1040E-09      0.2894E-07    1992.6292352907  0.71E-05
  POISSON| Poisson solver converged in 1 iteration. 
    54 Broy./Diag. 0.30E+00   12.1     0.00000280     -5672.2409579494 -2.56E-05
  POISSON|   iter        pres error      nabs error        E_hartree    delta E
  POISSON|      1        0.4229E-09      0.2193E-07    1992.6292424953  0.72E-05
  POISSON| Poisson solver converged in 1 iteration. 
    55 Broy./Diag. 0.30E+00   12.1     0.00000359     -5672.2409458573  1.21E-05
  POISSON|   iter        pres error      nabs error        E_hartree    delta E
  POISSON|      1        0.1400E-08      0.1391E-07    1992.6292443065  0.18E-05
  POISSON| Poisson solver converged in 1 iteration. 
    56 Broy./Diag. 0.30E+00   12.2     0.00000502     -5672.2409235956  2.23E-05
  POISSON|   iter        pres error      nabs error        E_hartree    delta E
  POISSON|      1        0.1079E-08      0.2227E-07    1992.6292509074  0.66E-05
  POISSON| Poisson solver converged in 1 iteration. 
    57 Broy./Diag. 0.30E+00   12.2     0.00000262     -5672.2409311797 -7.58E-06
  POISSON|   iter        pres error      nabs error        E_hartree    delta E
  POISSON|      1        0.7307E-09      0.1672E-07    1992.6292557455  0.48E-05
  POISSON| Poisson solver converged in 1 iteration. 
    58 Broy./Diag. 0.30E+00   12.2     0.00000204     -5672.2409300651  1.11E-06
  POISSON|   iter        pres error      nabs error        E_hartree    delta E
  POISSON|      1        0.1486E-09      0.1145E-07    1992.6292590549  0.33E-05
  POISSON| Poisson solver converged in 1 iteration. 
    59 Broy./Diag. 0.30E+00   12.1     0.00000224     -5672.2409299768  8.83E-08
  POISSON|   iter        pres error      nabs error        E_hartree    delta E
  POISSON|      1        0.7749E-11      0.1291E-07    1992.6292617427  0.27E-05
  POISSON| Poisson solver converged in 1 iteration. 
    60 Broy./Diag. 0.30E+00   12.2     0.00000179     -5672.2409318741 -1.90E-06
  POISSON|   iter        pres error      nabs error        E_hartree    delta E
  POISSON|      1        0.1139E-09      0.9622E-08    1992.6292627192  0.98E-06
  POISSON| Poisson solver converged in 1 iteration. 
    61 Broy./Diag. 0.30E+00   12.2     0.00000103     -5672.2409313817  4.92E-07
  POISSON|   iter        pres error      nabs error        E_hartree    delta E
  POISSON|      1        0.3115E-10      0.9905E-08    1992.6292627852  0.66E-07
  POISSON| Poisson solver converged in 1 iteration. 
    62 Broy./Diag. 0.30E+00   12.2     0.00000082     -5672.2409368698 -5.49E-06

  *** SCF run converged in    62 steps ***


  Electronic density on regular grids:      -2159.9999999992        0.0000000008
  Core density on regular grids:             2159.9999999995       -0.0000000005
  Total charge density on r-space grids:        0.0000000003
  Total charge density g-space grids:           0.0000000003

  Overlap energy of the core charge distribution:               0.00003386621556
  Self energy of the core charge distribution:              -9891.63555570741482
  Core Hamiltonian energy:                                   3202.93475574047625
  Hartree energy:                                            1992.62926278522991
  Electric enthalpy:                                         1992.62926278522991
  Exchange-correlation energy:                               -971.41898907105542
  Dispersion energy:                                           -4.71628836611419
  Electronic entropic energy:                                  -0.03415610524989
  Fermi energy:                                                -0.20847648157195

  Total energy:                                             -5672.24093686984270

 The electron density is written in cube file format to the file:

 cp2k-ELECTRON_DENSITY-1_0.cube

 !-----------------------------------------------------------------------------!
                     Mulliken Population Analysis

 #  Atom  Element  Kind  Atomic population                           Net charge
       1     Pt       1         10.061390                             -0.061390
       2     Pt       1         10.033299                             -0.033299
       3     Pt       1         10.041284                             -0.041284
       4     Pt       1         10.048214                             -0.048214
       5     Pt       1         10.049190                             -0.049190
       6     Pt       1         10.055856                             -0.055856
       7     Pt       1         10.057725                             -0.057725
       8     Pt       1         10.052118                             -0.052118
       9     Pt       1         10.025697                             -0.025697
      10     Pt       1         10.066899                             -0.066899
      11     Pt       1         10.058904                             -0.058904
      12     Pt       1         10.053172                             -0.053172
      13     Pt       1         10.066948                             -0.066948
      14     Pt       1         10.052019                             -0.052019
      15     Pt       1         10.057539                             -0.057539
      16     Pt       1         10.042241                             -0.042241
      17     Pt       1         10.040690                             -0.040690
      18     Pt       1         10.045248                             -0.045248
      19     Pt       1         10.053371                             -0.053371
      20     Pt       1         10.041175                             -0.041175
      21     Pt       1         10.025507                             -0.025507
      22     Pt       1         10.038385                             -0.038385
      23     Pt       1         10.028505                             -0.028505
[...]
    191      1      Pt         -0.00004902     0.00844361    -0.00473788
    192      1      Pt          0.00525051     0.01708334     0.00385609
    193      1      Pt         -0.00460721     0.00045626    -0.00360262
    194      1      Pt          0.00918749     0.00557011     0.00230705
    195      1      Pt          0.00707334     0.00300446     0.00258073
    196      1      Pt         -0.01800105     0.00084075     0.00524201
    197      1      Pt         -0.00149423    -0.01827991    -0.01203948
    198      1      Pt         -0.01140903     0.00280620    -0.00080732
    199      1      Pt         -0.00128373     0.00312599    -0.00776655
    200      1      Pt          0.01270598    -0.00434647     0.01506515
    201      1      Pt         -0.00657843    -0.00252563     0.00476148
    202      1      Pt          0.00237407    -0.00401245    -0.00046661
    203      1      Pt         -0.00460857     0.01505717     0.00946217
    204      1      Pt          0.00971920     0.01302538     0.00196450
    205      1      Pt         -0.00845488     0.01093180     0.00259175
    206      1      Pt          0.01275109    -0.01312554     0.00870078
    207      1      Pt         -0.00553266    -0.00364793     0.00069455
    208      1      Pt         -0.00031548    -0.00010017    -0.00464747
    209      1      Pt          0.00112469    -0.00755329     0.02463827
    210      1      Pt          0.00840997    -0.01117182    -0.01083457
    211      1      Pt          0.00256646    -0.01028789    -0.01439294
    212      1      Pt         -0.00056973     0.00414748    -0.00060342
    213      1      Pt         -0.01055480     0.00215645    -0.00089385
    214      1      Pt          0.02072494     0.01033262    -0.00958703
    215      1      Pt         -0.00932887    -0.00186687    -0.00668214
    216      1      Pt          0.00861702    -0.00348568     0.01388678
 SUM OF ATOMIC FORCES          -0.00001193    -0.00001618     0.00006829     0.00007118

 -------------------------------------------------------------------------------
 -                                                                             -
 -                                DBCSR STATISTICS                             -
 -                                                                             -
 -------------------------------------------------------------------------------
 COUNTER                                    TOTAL       BLAS       SMM       ACC
 flops    20 x    12 x    20            447897600       0.0%    100.0%      0.0%
 flops    20 x    32 x    20          58525286400       0.0%    100.0%      0.0%
 flops    20 x    20 x   204         244784332800       0.0%    100.0%      0.0%
 flops    20 x    20 x   224         268782796800       0.0%    100.0%      0.0%
 flops    20 x    20 x   192        1382311526400       0.0%    100.0%      0.0%
 flops inhomo. stacks                           0       0.0%      0.0%      0.0%
 flops total                         1.954852E+12       0.0%    100.0%      0.0%
 flops max/rank                     62.737357E+09       0.0%    100.0%      0.0%
 matmuls inhomo. stacks                         0       0.0%      0.0%      0.0%
 matmuls total                           14332032       0.0%    100.0%      0.0%
 number of processed stacks                 18816       0.0%    100.0%      0.0%
 average stack size                                     0.0     761.7       0.0
 marketing flops                     2.782563E+12
 -------------------------------------------------------------------------------
 # multiplications                             65
 max memory usage/rank               1.813578E+09
 # max total images/rank                        2
 # max 3D layers                                1
 # MPI messages exchanged                   27040
 MPI messages size (bytes):
  total size                        36.155982E+09
  min size                         829.440000E+03
  max size                           4.665600E+06
  average size                       1.337130E+06
 MPI breakdown and total messages size (bytes):
             size <=      128                   0                        0
       128 < size <=     8192                   0                        0
      8192 < size <=    32768                   0                        0
     32768 < size <=   131072                   0                        0
    131072 < size <=  4194304               26816              35110886400
   4194304 < size <= 16777216                 224               1045094400
  16777216 < size                               0                        0
 -------------------------------------------------------------------------------

 *** WARNING in dbcsr_mm.F:290 :: Using a non-square number of MPI ranks ***
 *** might lead to poor performance. Used ranks: 32 Suggested: 36 64     ***

 -------------------------------------------------------------------------------
 -                                                                             -
 -                      DBCSR MESSAGE PASSING PERFORMANCE                      -
 -                                                                             -
 -------------------------------------------------------------------------------
 ROUTINE             CALLS      AVE VOLUME [Bytes]
 MP_Bcast                6                     12.
 MP_Allreduce          478                      9.
 MP_Alltoall          1801                1275169.
 MP_ISend             2080                 578664.
 MP_IRecv             2080                 561679.
 -------------------------------------------------------------------------------

 -------------------------------------------------------------------------------
 -                                                                             -
 -                                DBM STATISTICS                               -
 -                                                                             -
 -------------------------------------------------------------------------------
    M  x    N  x    K                                          COUNT     PERCENT
 -------------------------------------------------------------------------------

 -------------------------------------------------------------------------------
 -                                                                             -
 -                                GRID STATISTICS                              -
 -                                                                             -
 -------------------------------------------------------------------------------
 LP    KERNEL             BACKEND                              COUNT     PERCENT
 4     collocate general  REF                               21513366      49.97%
 4     integrate general  REF                               21171884      49.17%
 5     integrate general  REF                                 341482       0.79%
 0     collocate general  REF                                  13824       0.03%
 0     integrate general  REF                                   6912       0.02%
 1     integrate general  REF                                   6912       0.02%
 -------------------------------------------------------------------------------

 MEMORY| Estimated peak process memory [MiB]                                2143

 -------------------------------------------------------------------------------
 ----                             MULTIGRID INFO                            ----
 -------------------------------------------------------------------------------
 count for grid        1:          17589          cutoff [a.u.]          200.00
 count for grid        2:         177934          cutoff [a.u.]           66.67
 count for grid        3:         110038          cutoff [a.u.]           22.22
 count for grid        4:         155575          cutoff [a.u.]            7.41
 total gridlevel count  :         461136

 -------------------------------------------------------------------------------
 -                                                                             -
 -                         MESSAGE PASSING PERFORMANCE                         -
 -                                                                             -
 -------------------------------------------------------------------------------

 ROUTINE             CALLS      AVE VOLUME [Bytes]
 MP_Group                4
 MP_Bcast             1768                 164714.
 MP_Allreduce         1600                   1580.
 MP_Sync                68
 MP_Alltoall          3081               49364064.
 MP_SendRecv           124                  14976.
 MP_ISendRecv         7812                 214800.
 MP_Wait             18942
 MP_comm_split           1
 MP_ISend             9980                 715119.
 MP_IRecv             9980                 715119.
 MP_Recv               192                1105920.
 MP_Write_All            3                4213860.
 -------------------------------------------------------------------------------


 -------------------------------------------------------------------------------
 -                                                                             -
 -                           R E F E R E N C E S                               -
 -                                                                             -
 -------------------------------------------------------------------------------
 
 CP2K version 2022.1, the CP2K developers group (2022).
 CP2K is freely available from https://www.cp2k.org/ .

 Kuehne,Thomas D.; Iannuzzi,Marcella; Del Ben,Mauro;
 Rybkin,Vladimir V.; Seewald,Patrick; Stein,Frederick; Laino,Teodoro;
 Khaliullin,Rustam Z.; Schuett,Ole; Schiffmann,Florian; Golze,Dorothea;
 Wilhelm,Jan; Chulkov,Sergey; Bani-Hashemian,Mohammad Hossein;
 Weber,Valery; Borstnik,Urban; Taillefumier,Mathieu;
 Jakobovits,Alice Shoshana; Lazzaro,Alfio; Pabst,Hans; Mueller,Tiziano;
 Schade,Robert; Guidon,Manuel; Andermatt,Samuel; Holmberg,Nico;
 Schenter,Gregory K.; Hehn,Anna; Bussy,Augustin; Belleflamme,Fabian;
 Tabacchi,Gloria; Gloess,Andreas; Lass,Michael; Bethune,Iain;
 Mundy,Christopher J.; Plessl,Christian; Watkins,Matt;
 VandeVondele,Joost; Krack,Matthias; Hutter,Juerg. 
 The Journal of Chemical Physics, 152 (19), (2020). 
 CP2K: An electronic structure and molecular dynamics software package -
 Quickstep: Efficient and accurate electronic structure calculations.
 https://doi.org/10.1063/5.0007045

 Goerigk, Lars; Hansen, Andreas; Bauer, Christoph; Ehrlich, Stephan;
 Najibi, Asim; Grimme, Stefan. , 19 (48), (2017). 
 A look at the density functional theory zoo with the advanced GMTKN55 database
 for general main group thermochemistry, kinetics and noncovalent interactions.
 https://doi.org/10.1039/C7CP04913G

 Bani-Hashemian, MH; Bruck, S; Luisier, M; VandeVondele, J. 
 JOURNAL OF CHEMICAL PHYSICS, 144 (4), 044113 (2016). 
 A generalized Poisson solver for first-principles device simulations.
 https://doi.org/10.1063/1.4940796

 Schuett, Ole; Messmer, Peter; Hutter, Juerg; VandeVondele, Joost. 
 Electronic Structure Calculations on Graphics Processing Units, John
 Wiley & Sons, Ltd, 173-190 (2016). 
 GPU-Accelerated Sparse Matrix-Matrix Multiplication for
 Linear Scaling Density Functional Theory.
 https://doi.org/10.1002/9781118670712.ch8

 Heinecke, A; Henry, G; Hutchinson, M; Pabst, H. 
 Proceedings of Intl. Supercomputing Conference, 981-991 (2016). 
 LIBXSMM: Accelerating Small Matrix Multiplications
 by Runtime Code Generation.
 https://doi.org/10.1109/SC.2016.83

 Borstnik, U; VandeVondele, J; Weber, V; Hutter, J. 
 PARALLEL COMPUTING, 40 (5-6), 47-58 (2014). 
 Sparse matrix multiplication: The distributed block-compressed sparse
 row library.
 https://doi.org/10.1016/j.parco.2014.03.012

 Hutter, J; Iannuzzi, M; Schiffmann, F; VandeVondele, J. 
 WIREs Comput Mol Sci., 4 (1), 15-25 (2014). 
 CP2K: atomistic simulations of condensed matter systems.
 https://doi.org/10.1002/wcms.1159

 Marek, A; Blum, V; Johanni, R; Havu, V; Lang, B; Auckenthaler, T;
 Heinecke, A; Bungartz, H; Lederer, H. 
 Journal of Physics: Condensed Matter, 26 (21), (2014). 
 The ELPA library: scalable parallel eigenvalue solutions for
 electronic structure
 theory and computational science.
 https://doi.org/10.1088/0953-8984/26/21/213201

 Grimme, S; Ehrlich, S; Goerigk, L. 
 JOURNAL OF COMPUTATIONAL CHEMISTRY, 32, 1456 (2011). 
 Effect of the damping function in dispersion corrected density functional theory.
 https://doi.org/10.1002/jcc.21759

 Grimme, S; Antony, J; Ehrlich, S; Krieg, H. 
 JOURNAL OF CHEMICAL PHYSICS, 132 (15), 154104 (2010). 
 A consistent and accurate ab initio parametrization of density
 functional dispersion correction (DFT-D) for the 94 elements H-Pu.
 https://doi.org/10.1063/1.3382344

 VandeVondele, J; Hutter, J. 
 JOURNAL OF CHEMICAL PHYSICS, 127 (11), 114105 (2007). 
 Gaussian basis sets for accurate calculations on molecular systems in
 gas and condensed phases.
 https://doi.org/10.1063/1.2770708

 Krack, M. 
 THEORETICAL CHEMISTRY ACCOUNTS, 114 (1-3), 145-152 (2005). 
 Pseudopotentials for H to Kr optimized for gradient-corrected
 exchange-correlation functionals.
 https://doi.org/10.1007/s00214-005-0655-y

 VandeVondele, J; Krack, M; Mohamed, F; Parrinello, M; Chassaing, T;
 Hutter, J. COMPUTER PHYSICS COMMUNICATIONS, 167 (2), 103-128 (2005). 
 QUICKSTEP: Fast and accurate density functional calculations using a
 mixed Gaussian and plane waves approach.
 https://doi.org/10.1016/j.cpc.2004.12.014

 Frigo, M; Johnson, SG. 
 PROCEEDINGS OF THE IEEE, 93 (2), 216-231 (2005). 
 The design and implementation of FFTW3.
 https://doi.org/10.1109/JPROC.2004.840301

 Hartwigsen, C; Goedecker, S; Hutter, J. 
 PHYSICAL REVIEW B, 58 (7), 3641-3662 (1998). 
 Relativistic separable dual-space Gaussian pseudopotentials from H to Rn.
 https://doi.org/10.1103/PhysRevB.58.3641

 Lippert, G; Hutter, J; Parrinello, M. 
 MOLECULAR PHYSICS, 92 (3), 477-487 (1997). 
 A hybrid Gaussian and plane wave density functional scheme.
 https://doi.org/10.1080/002689797170220

 Perdew, JP; Burke, K; Ernzerhof, M. 
 PHYSICAL REVIEW LETTERS, 77 (18), 3865-3868 (1996). 
 Generalized gradient approximation made simple.
 https://doi.org/10.1103/PhysRevLett.77.3865

 Goedecker, S; Teter, M; Hutter, J. 
 PHYSICAL REVIEW B, 54 (3), 1703-1710 (1996). 
 Separable dual-space Gaussian pseudopotentials.
 https://doi.org/10.1103/PhysRevB.54.1703


 -------------------------------------------------------------------------------
 -                                                                             -
 -                                T I M I N G                                  -
 -                                                                             -
 -------------------------------------------------------------------------------
 SUBROUTINE                       CALLS  ASD         SELF TIME        TOTAL TIME
                                MAXIMUM       AVERAGE  MAXIMUM  AVERAGE  MAXIMUM
 CP2K                                 1  1.0    0.020    0.038  817.138  817.140
 qs_forces                            1  2.0    0.001    0.001  816.731  816.733
 qs_energies                          1  3.0    0.000    0.000  802.449  802.452
 scf_env_do_scf                       1  4.0    0.000    0.001  791.912  791.996
 scf_env_do_scf_inner_loop           62  5.0    0.003    0.007  791.909  791.993
 rebuild_ks_matrix                   63  7.0    0.000    0.000  505.222  505.250
 qs_ks_build_kohn_sham_matrix        63  8.0    0.009    0.012  505.222  505.250
 qs_ks_update_qs_env                 62  6.0    0.000    0.001  495.442  495.470
 pw_transfer                       2940 12.1    0.226    0.326  282.766  285.706
 fft_wrap_pw1pw2                   2940 13.1    0.032    0.040  282.541  285.436
 fft_wrap_pw1pw2_200               2562 14.4   24.048   27.045  279.805  282.640
 pw_poisson_solve                    63  9.0    0.019    0.028  242.171  242.213
 implicit_poisson_solver_mixed_      63 10.0    6.512    7.025  227.741  227.870
 fft3d_ps                          2940 15.1  120.374  129.318  210.518  214.739
 qs_rho_update_rho_low               63  6.0    0.000    0.001  191.215  191.231
 calculate_rho_elec                  63  7.0    0.345    0.372  191.215  191.230
 sum_up_and_integrate                63  9.0    0.982    1.067  180.346  180.384
 integrate_v_rspace                  63 10.0    0.002    0.002  179.365  179.488
 grid_collocate_task_list            63  8.0   84.740  165.728   84.740  165.728
 derive_fft                         310 12.1    0.022    0.025  160.255  161.400
 grid_integrate_task_list            63 11.0   78.637  154.273   78.637  154.273
 rs_pw_transfer                     508 10.5    0.006    0.006  105.716  132.309
 density_rs2pw                       63  8.0    0.004    0.005  104.714  131.598
 apply_P_operator                   247 11.2    2.312    2.656  130.191  130.994
 mp_waitany                        9980 12.4   88.197  114.748   88.197  114.748
 rs_pw_transfer_RS2PW_200            65 10.0    3.632    4.177   86.633  113.224
 mp_alltoall_d11v                   898 10.3   77.631  102.417   77.631  102.417
 rs_gather_matrices                  63 11.0    0.244    0.273   76.455  101.238
 qs_scf_new_mos                      62  6.0    0.006    0.010   78.223   78.306
 qs_vxc_create                       63  9.0    0.002    0.003   74.379   75.250
 xc_vxc_pw_create                    63 10.0    1.668    2.083   74.377   75.249
 eigensolver                         62  7.0    0.005    0.008   70.489   70.594
 x_to_yz                           1842 16.3   40.204   46.226   61.852   64.595
 mp_alltoall_z22v                  2940 17.1   38.401   58.318   38.401   58.318
 xc_pw_derive                       378 12.0    0.006    0.008   50.124   52.981
 apply_poisson_operator_fft          63 11.0    0.001    0.001   47.722   47.963
 cp_fm_diag_elpa                     63  8.0    0.001    0.001   44.752   44.861
 cp_fm_diag_elpa_base                63  9.0   43.808   43.940   44.646   44.721
 yz_to_x                           1098 15.8   11.469   12.125   28.221   39.690
 xc_rho_set_and_dset_create          63 11.0    0.724    0.890   38.808   39.609
 apply_inv_laplace_operator_fft     157 11.6    1.318    1.418   34.639   35.730
 pw_scatter_p                      1842 15.3   31.125   34.872   31.125   34.872
 xc_pw_divergence                    63 11.0    0.003    0.004   32.908   34.785
 ps_implicit_compute_veps            63 11.0    0.758    0.896   33.139   33.819
 gspace_mixing                       61  6.0    0.334    0.362   29.600   29.600
 pw_derive                         1308 13.1   24.863   25.787   24.863   25.787
 cp_fm_triangular_multiply          186  8.0   24.986   25.237   24.986   25.237
 potential_pw2rs                     63 11.0    0.050    0.057   24.260   24.382
 ps_implicit_compute_error_fft       92 10.9    1.704    1.821   22.617   24.198
 broyden_mixing                      61  7.0   21.608   21.916   22.170   22.257
 pw_gather_p                       1098 14.8   16.537   16.943   16.537   16.943
 -------------------------------------------------------------------------------

 The number of warnings for this run is : 1
 
 -------------------------------------------------------------------------------
  **** **** ******  **  PROGRAM ENDED AT                 2023-12-03 02:19:59.361
 ***** ** ***  *** **   PROGRAM RAN ON                                     cu042
 **    ****   ******    PROGRAM RAN BY                                     jxzhu
 ***** **    ** ** **   PROGRAM PROCESS ID                                  2199
  **** **  *******  **  PROGRAM STOPPED IN /public/home/jxzhu/tmp_calc/04c0855f9
                                           8753fac23fde4df51ba20f3741a9e9a/calc/
                                           task.001.000026
