 DBCSR| CPU Multiplication driver                                           XSMM
 DBCSR| Multrec recursion limit                                              512
 DBCSR| Multiplication stack size                                           1000
 DBCSR| Maximum elements for images                                    UNLIMITED
 DBCSR| Multiplicative factor virtual images                                   1
 DBCSR| Use multiplication densification                                       T
 DBCSR| Multiplication size stacks                                             3
 DBCSR| Use memory pool for CPU allocation                                     F
 DBCSR| Number of 3D layers                                               SINGLE
 DBCSR| Use MPI memory allocation                                              F
 DBCSR| Use RMA algorithm                                                      F
 DBCSR| Use Communication thread                                               T
 DBCSR| Communication thread load                                             87
 DBCSR| MPI: My node id                                                        0
 DBCSR| MPI: Number of nodes                                                  64
 DBCSR| OMP: Current number of threads                                         1
 DBCSR| OMP: Max number of threads                                             1
 DBCSR| Split modifier for TAS multiplication algorithm                  1.0E+00


  **** **** ******  **  PROGRAM STARTED AT               2023-11-27 00:05:48.773
 ***** ** ***  *** **   PROGRAM STARTED ON                                 cu054
 **    ****   ******    PROGRAM STARTED BY                                 jxzhu
 ***** **    ** ** **   PROGRAM PROCESS ID                                 50083
  **** **  *******  **  PROGRAM STARTED IN /public/home/jxzhu/tmp_calc/af2075565
                                           805657d94fa4669dad6f4b174b0a4fb/calc/
                                           003000.000/pbc

 CP2K| version string:                                       CP2K version 2022.1
 CP2K| source code revision number:                                  git:2caeb6f
 CP2K| cp2kflags: omp libint fftw3 libxc elpa parallel mpi3 scalapack cosma xsmm
 CP2K|             plumed2 spglib mkl sirius libvori libbqb
 CP2K| is freely available from                            https://www.cp2k.org/
 CP2K| Program compiled at                           Mon Jul 3 17:37:06 CST 2023
 CP2K| Program compiled on                                                 mu003
 CP2K| Program compiled for                                                local
 CP2K| Data directory path                             /public/home/jxzhu/basis/
 CP2K| Input file name                                                 input.inp
 
 GLOBAL| Force Environment number                                              1
 GLOBAL| Basis set file name                                        BASIS_MOLOPT
 GLOBAL| Potential file name                                      GTH_POTENTIALS
 GLOBAL| MM Potential file name                                     MM_POTENTIAL
 GLOBAL| Coordinate file name                                          coord.xyz
 GLOBAL| Method name                                                        CP2K
 GLOBAL| Project name                                                       cp2k
 GLOBAL| Run type                                                   ENERGY_FORCE
 GLOBAL| FFT library                                                       FFTW3
 GLOBAL| Diagonalization library                                            ELPA
 GLOBAL| Minimum number of eigenvectors for ELPA usage                        16
 GLOBAL| Orthonormality check for eigenvectors                          DISABLED
 GLOBAL| Matrix multiplication library                                     COSMA
 GLOBAL| All-to-all communication in single precision                          F
 GLOBAL| FFTs using library dependent lengths                                  F
 GLOBAL| Grid backend                                                       AUTO
 GLOBAL| Global print level                                               MEDIUM
 GLOBAL| MPI I/O enabled                                                       T
 GLOBAL| Total number of message passing processes                            64
 GLOBAL| Number of threads for this process                                    1
 GLOBAL| This output is from process                                           0
 GLOBAL| Stack size for threads created by OpenMP (OMP_STACKSIZE)        default
 GLOBAL| CPU model name                 Intel(R) Xeon(R) Gold 6338 CPU @ 2.00GHz
 GLOBAL| CPUID                                                              1003

 MEMORY| system memory details [Kb]
 MEMORY|                        rank 0           min           max       average
 MEMORY| MemTotal            263619172     263619172     263619172     263619172
 MEMORY| MemFree             209829360     209829360     209832336     209830113
 MEMORY| Buffers                  3320          3320          3320          3320
 MEMORY| Cached                4810424       4810424       4810424       4810424
 MEMORY| Slab                  1882416       1882416       1882416       1882416
 MEMORY| SReclaimable           246528        246528        246528        246528
 MEMORY| MemLikelyFree       214889632     214889632     214892608     214890385


 *** Fundamental physical constants (SI units) ***

 *** Literature: B. J. Mohr and B. N. Taylor,
 ***             CODATA recommended values of the fundamental physical
 ***             constants: 2006, Web Version 5.1
 ***             http://physics.nist.gov/constants

 Speed of light in vacuum [m/s]                             2.99792458000000E+08
 Magnetic constant or permeability of vacuum [N/A**2]       1.25663706143592E-06
 Electric constant or permittivity of vacuum [F/m]          8.85418781762039E-12
 Planck constant (h) [J*s]                                  6.62606896000000E-34
 Planck constant (h-bar) [J*s]                              1.05457162825177E-34
 Elementary charge [C]                                      1.60217648700000E-19
 Electron mass [kg]                                         9.10938215000000E-31
 Electron g factor [ ]                                     -2.00231930436220E+00
 Proton mass [kg]                                           1.67262163700000E-27
 Fine-structure constant                                    7.29735253760000E-03
 Rydberg constant [1/m]                                     1.09737315685270E+07
 Avogadro constant [1/mol]                                  6.02214179000000E+23
 Boltzmann constant [J/K]                                   1.38065040000000E-23
 Atomic mass unit [kg]                                      1.66053878200000E-27
 Bohr radius [m]                                            5.29177208590000E-11

 *** Conversion factors ***

 [u] -> [a.u.]                                              1.82288848426455E+03
 [Angstrom] -> [Bohr] = [a.u.]                              1.88972613288564E+00
 [a.u.] = [Bohr] -> [Angstrom]                              5.29177208590000E-01
 [a.u.] -> [s]                                              2.41888432650478E-17
 [a.u.] -> [fs]                                             2.41888432650478E-02
 [a.u.] -> [J]                                              4.35974393937059E-18
 [a.u.] -> [N]                                              8.23872205491840E-08
 [a.u.] -> [K]                                              3.15774647902944E+05
 [a.u.] -> [kJ/mol]                                         2.62549961709828E+03
 [a.u.] -> [kcal/mol]                                       6.27509468713739E+02
 [a.u.] -> [Pa]                                             2.94210107994716E+13
 [a.u.] -> [bar]                                            2.94210107994716E+08
 [a.u.] -> [atm]                                            2.90362800883016E+08
 [a.u.] -> [eV]                                             2.72113838565563E+01
 [a.u.] -> [Hz]                                             6.57968392072181E+15
 [a.u.] -> [1/cm] (wave numbers)                            2.19474631370540E+05
 [a.u./Bohr**2] -> [1/cm]                                   5.14048714338585E+03
 

 CELL_TOP| Volume [angstrom^3]:                                     10221.806009
 CELL_TOP| Vector a [angstrom    16.869     0.000     0.000   |a| =    16.869000
 CELL_TOP| Vector b [angstrom    -8.434    14.609     0.000   |b| =    16.869015
 CELL_TOP| Vector c [angstrom     0.000     0.000    41.478   |c| =    41.478000
 CELL_TOP| Angle (b,c), alpha [degree]:                                90.000000
 CELL_TOP| Angle (a,c), beta  [degree]:                                90.000000
 CELL_TOP| Angle (a,b), gamma [degree]:                               119.999970
 CELL_TOP| Numerically orthorhombic:                                          NO
 
 GENERATE|  Preliminary Number of Bonds generated:                             0
 GENERATE|  Achieved consistency in connectivity generation.

 CELL| Volume [angstrom^3]:                                         10221.806009
 CELL| Vector a [angstrom]:      16.869     0.000     0.000   |a| =    16.869000
 CELL| Vector b [angstrom]:      -8.434    14.609     0.000   |b| =    16.869015
 CELL| Vector c [angstrom]:       0.000     0.000    41.478   |c| =    41.478000
 CELL| Angle (b,c), alpha [degree]:                                    90.000000
 CELL| Angle (a,c), beta  [degree]:                                    90.000000
 CELL| Angle (a,b), gamma [degree]:                                   119.999970
 CELL| Numerically orthorhombic:                                              NO

 CELL_REF| Volume [angstrom^3]:                                     10221.806009
 CELL_REF| Vector a [angstrom    16.869     0.000     0.000   |a| =    16.869000
 CELL_REF| Vector b [angstrom    -8.434    14.609     0.000   |b| =    16.869015
 CELL_REF| Vector c [angstrom     0.000     0.000    41.478   |c| =    41.478000
 CELL_REF| Angle (b,c), alpha [degree]:                                90.000000
 CELL_REF| Angle (a,c), beta  [degree]:                                90.000000
 CELL_REF| Angle (a,b), gamma [degree]:                               119.999970
 CELL_REF| Numerically orthorhombic:                                          NO

 *******************************************************************************
 *******************************************************************************
 **                                                                           **
 **     #####                         ##              ##                      **
 **    ##   ##            ##          ##              ##                      **
 **   ##     ##                       ##            ######                    **
 **   ##     ##  ##   ##  ##   #####  ##  ##   ####   ##    #####    #####    **
 **   ##     ##  ##   ##  ##  ##      ## ##   ##      ##   ##   ##  ##   ##   **
 **   ##  ## ##  ##   ##  ##  ##      ####     ###    ##   ######   ######    **
 **    ##  ###   ##   ##  ##  ##      ## ##      ##   ##   ##       ##        **
 **     #######   #####   ##   #####  ##  ##  ####    ##    #####   ##        **
 **           ##                                                    ##        **
 **                                                                           **
 **                                                ... make the atoms dance   **
 **                                                                           **
 **            Copyright (C) by CP2K developers group (2000-2022)             **
 **                      J. Chem. Phys. 152, 194103 (2020)                    **
 **                                                                           **
 *******************************************************************************

 DFT| Spin restricted Kohn-Sham (RKS) calculation                            RKS
 DFT| Multiplicity                                                             1
 DFT| Number of spin states                                                    1
 DFT| Charge                                                                   0
 DFT| Self-interaction correction (SIC)                                       NO
 DFT| Cutoffs: density                                              1.000000E-10
 DFT|          gradient                                             1.000000E-10
 DFT|          tau                                                  1.000000E-10
 DFT|          cutoff_smoothing_range                               0.000000E+00
 DFT| XC density smoothing                                                  NONE
 DFT| XC derivatives                                                          PW

 FUNCTIONAL| PBE:
 FUNCTIONAL| J.P.Perdew, K.Burke, M.Ernzerhof, Phys. Rev. Letter, vol. 77, n 18,
 FUNCTIONAL|  pp. 3865-3868, (1996){spin unpolarized}                           

 vdW POTENTIAL|                                                   Pair Potential
 vdW POTENTIAL|          DFT-D3 (Version 3.1)
 vdW POTENTIAL|          Potential Form: S. Grimme et al, JCP 132: 154104 (2010)
 vdW POTENTIAL|          Zero Damping
 vdW POTENTIAL|          Cutoff Radius [Bohr]:                             20.00
 vdW POTENTIAL|          s6 Scaling Factor:                               1.0000
 vdW POTENTIAL|          sr6 Scaling Factor:                              1.2170
 vdW POTENTIAL|          s8 Scaling Factor:                               0.7220
 vdW POTENTIAL|          Cutoff for CN calculation:                   0.1000E-05

 QS| Method:                                                                 GPW
 QS| Density plane wave grid type                        NON-SPHERICAL FULLSPACE
 QS| Number of grid levels:                                                    4
 QS| Density cutoff [a.u.]:                                                200.0
 QS| Multi grid cutoff [a.u.]: 1) grid level                               200.0
 QS|                           2) grid level                                66.7
 QS|                           3) grid level                                22.2
 QS|                           4) grid level                                 7.4
 QS| Grid level progression factor:                                          3.0
 QS| Relative density cutoff [a.u.]:                                        20.0
 QS| Interaction thresholds: eps_pgf_orb:                                3.2E-07
 QS|                         eps_filter_matrix:                          0.0E+00
 QS|                         eps_core_charge:                            1.0E-15
 QS|                         eps_rho_gspace:                             1.0E-13
 QS|                         eps_rho_rspace:                             1.0E-13
 QS|                         eps_gvg_rspace:                             3.2E-07
 QS|                         eps_ppl:                                    1.0E-02
 QS|                         eps_ppnl:                                   3.2E-09


 ATOMIC KIND INFORMATION

  1. Atomic kind: O                                     Number of atoms:     230

     Orbital Basis Set                                        DZVP-MOLOPT-SR-GTH

       Number of orbital shell sets:                                           1
       Number of orbital shells:                                               5
       Number of primitive Cartesian functions:                                5
       Number of Cartesian basis functions:                                   14
       Number of spherical basis functions:                                   13
       Norm type:                                                              2

       Normalised Cartesian orbitals:

                        Set   Shell   Orbital            Exponent    Coefficient

                          1       1    2s               10.389228       0.396646
                                                         3.849621       0.208811
                                                         1.388401      -0.301641
                                                         0.496955      -0.274061
                                                         0.162492      -0.033677

                          1       2    3s               10.389228       0.303673
                                                         3.849621       0.240943
                                                         1.388401      -0.313066
                                                         0.496955      -0.043055
                                                         0.162492       0.213991

                          1       3    3px              10.389228      -1.530415
                                                         3.849621      -1.371928
                                                         1.388401      -0.761951
                                                         0.496955      -0.253695
                                                         0.162492      -0.035541
                          1       3    3py              10.389228      -1.530415
                                                         3.849621      -1.371928
                                                         1.388401      -0.761951
                                                         0.496955      -0.253695
                                                         0.162492      -0.035541
                          1       3    3pz              10.389228      -1.530415
                                                         3.849621      -1.371928
                                                         1.388401      -0.761951
                                                         0.496955      -0.253695
                                                         0.162492      -0.035541

                          1       4    4px              10.389228      -0.565392
                                                         3.849621      -0.038231
                                                         1.388401      -0.382373
                                                         0.496955       0.179070
                                                         0.162492       0.122714
                          1       4    4py              10.389228      -0.565392
                                                         3.849621      -0.038231
                                                         1.388401      -0.382373
                                                         0.496955       0.179070
                                                         0.162492       0.122714
                          1       4    4pz              10.389228      -0.565392
                                                         3.849621      -0.038231
                                                         1.388401      -0.382373
                                                         0.496955       0.179070
                                                         0.162492       0.122714

                          1       5    4dx2             10.389228       1.867377
                                                         3.849621       0.670994
                                                         1.388401       1.353441
                                                         0.496955       0.273538
                                                         0.162492       0.006620
                          1       5    4dxy             10.389228       3.234392
                                                         3.849621       1.162195
                                                         1.388401       2.344229
                                                         0.496955       0.473781
                                                         0.162492       0.011466
                          1       5    4dxz             10.389228       3.234392
                                                         3.849621       1.162195
                                                         1.388401       2.344229
                                                         0.496955       0.473781
                                                         0.162492       0.011466
                          1       5    4dy2             10.389228       1.867377
                                                         3.849621       0.670994
                                                         1.388401       1.353441
                                                         0.496955       0.273538
                                                         0.162492       0.006620
                          1       5    4dyz             10.389228       3.234392
                                                         3.849621       1.162195
                                                         1.388401       2.344229
                                                         0.496955       0.473781
                                                         0.162492       0.011466
                          1       5    4dz2             10.389228       1.867377
                                                         3.849621       0.670994
                                                         1.388401       1.353441
                                                         0.496955       0.273538
                                                         0.162492       0.006620

       Atomic covalent radius [Angstrom]:                                  0.730

       Atomic van der Waals radius [Angstrom]:                             1.520

     GTH Potential information for                                    GTH-PBE-q6

       Description:                       Goedecker-Teter-Hutter pseudopotential
                                           Goedecker et al., PRB 54, 1703 (1996)
                                          Hartwigsen et al., PRB 58, 3641 (1998)
                                                      Krack, TCA 114, 145 (2005)

       Gaussian exponent of the core charge distribution:               8.360253
       Electronic configuration (s p d ...):                               2   4

       Parameters of the local part of the GTH pseudopotential:

                          rloc        C1          C2          C3          C4
                        0.244554  -16.667215    2.487311

       Parameters of the non-local part of the GTH pseudopotential:

                   l      r(l)      h(i,j,l)

                   0    0.220956   18.337458
                   1    0.211332

  2. Atomic kind: H                                     Number of atoms:     460

     Orbital Basis Set                                        DZVP-MOLOPT-SR-GTH

       Number of orbital shell sets:                                           1
       Number of orbital shells:                                               3
       Number of primitive Cartesian functions:                                5
       Number of Cartesian basis functions:                                    5
       Number of spherical basis functions:                                    5
       Norm type:                                                              2

       Normalised Cartesian orbitals:

                        Set   Shell   Orbital            Exponent    Coefficient

                          1       1    2s               10.068468      -0.133023
                                                         2.680223      -0.177618
                                                         0.791502      -0.258419
                                                         0.239116      -0.107525
                                                         0.082193      -0.014019

                          1       2    3s               10.068468       0.344673
                                                         2.680223       1.819821
                                                         0.791502      -0.999069
                                                         0.239116       0.017430
                                                         0.082193       0.082660

                          1       3    3px              10.068468       0.155326
                                                         2.680223       0.367157
                                                         0.791502       0.311480
                                                         0.239116       0.080105
                                                         0.082193       0.033440
                          1       3    3py              10.068468       0.155326
                                                         2.680223       0.367157
                                                         0.791502       0.311480
                                                         0.239116       0.080105
                                                         0.082193       0.033440
                          1       3    3pz              10.068468       0.155326
                                                         2.680223       0.367157
                                                         0.791502       0.311480
                                                         0.239116       0.080105
                                                         0.082193       0.033440

       Atomic covalent radius [Angstrom]:                                  0.320

       Atomic van der Waals radius [Angstrom]:                             1.090

     GTH Potential information for                                    GTH-PBE-q1

       Description:                       Goedecker-Teter-Hutter pseudopotential
                                           Goedecker et al., PRB 54, 1703 (1996)
                                          Hartwigsen et al., PRB 58, 3641 (1998)
                                                      Krack, TCA 114, 145 (2005)

       Gaussian exponent of the core charge distribution:              12.500000
       Electronic configuration (s p d ...):                                   1

       Parameters of the local part of the GTH pseudopotential:

                          rloc        C1          C2          C3          C4
                        0.200000   -4.178900    0.724463

  3. Atomic kind: Pt                                    Number of atoms:     216

     Orbital Basis Set                      DZVP-A5-Q10-323-MOL-T1-DERIVED_SET-1

       Number of orbital shell sets:                                           1
       Number of orbital shells:                                               6
       Number of primitive Cartesian functions:                                5
       Number of Cartesian basis functions:                                   23
       Number of spherical basis functions:                                   20
       Norm type:                                                              2

       Normalised Cartesian orbitals:

                        Set   Shell   Orbital            Exponent    Coefficient

                          1       1    2s                2.521825       0.177473
                                                         1.453920      -0.063399
                                                         0.614053      -0.407089
                                                         0.232656       0.262254
                                                         0.074788       0.047371

                          1       2    3s                2.521825      -0.049056
                                                         1.453920       0.044904
                                                         0.614053      -0.009756
                                                         0.232656      -0.144709
                                                         0.074788       0.144085

                          1       3    3px               2.521825      -0.317572
                                                         1.453920       0.534826
                                                         0.614053      -0.489458
                                                         0.232656       0.245631
                                                         0.074788       0.018221
                          1       3    3py               2.521825      -0.317572
                                                         1.453920       0.534826
                                                         0.614053      -0.489458
                                                         0.232656       0.245631
                                                         0.074788       0.018221
                          1       3    3pz               2.521825      -0.317572
                                                         1.453920       0.534826
                                                         0.614053      -0.489458
                                                         0.232656       0.245631
                                                         0.074788       0.018221

                          1       4    4dx2              2.521825       3.008522
                                                         1.453920      -1.224251
                                                         0.614053       0.225691
                                                         0.232656       0.125144
                                                         0.074788      -0.015348
                          1       4    4dxy              2.521825       5.210912
                                                         1.453920      -2.120465
                                                         0.614053       0.390909
                                                         0.232656       0.216756
                                                         0.074788      -0.026584
                          1       4    4dxz              2.521825       5.210912
                                                         1.453920      -2.120465
                                                         0.614053       0.390909
                                                         0.232656       0.216756
                                                         0.074788      -0.026584
                          1       4    4dy2              2.521825       3.008522
                                                         1.453920      -1.224251
                                                         0.614053       0.225691
                                                         0.232656       0.125144
                                                         0.074788      -0.015348
                          1       4    4dyz              2.521825       5.210912
                                                         1.453920      -2.120465
                                                         0.614053       0.390909
                                                         0.232656       0.216756
                                                         0.074788      -0.026584
                          1       4    4dz2              2.521825       3.008522
                                                         1.453920      -1.224251
                                                         0.614053       0.225691
                                                         0.232656       0.125144
                                                         0.074788      -0.015348

                          1       5    5dx2              2.521825       0.698026
                                                         1.453920      -1.511486
                                                         0.614053      -0.335394
                                                         0.232656      -0.025564
                                                         0.074788      -0.002699
                          1       5    5dxy              2.521825       1.209017
                                                         1.453920      -2.617970
                                                         0.614053      -0.580920
                                                         0.232656      -0.044277
                                                         0.074788      -0.004674
                          1       5    5dxz              2.521825       1.209017
                                                         1.453920      -2.617970
                                                         0.614053      -0.580920
                                                         0.232656      -0.044277
                                                         0.074788      -0.004674
                          1       5    5dy2              2.521825       0.698026
                                                         1.453920      -1.511486
                                                         0.614053      -0.335394
                                                         0.232656      -0.025564
                                                         0.074788      -0.002699
                          1       5    5dyz              2.521825       1.209017
                                                         1.453920      -2.617970
                                                         0.614053      -0.580920
                                                         0.232656      -0.044277
                                                         0.074788      -0.004674
                          1       5    5dz2              2.521825       0.698026
                                                         1.453920      -1.511486
                                                         0.614053      -0.335394
                                                         0.232656      -0.025564
                                                         0.074788      -0.002699

                          1       6    6dx2              2.521825       0.831079
                                                         1.453920      -0.709226
                                                         0.614053      -0.137351
                                                         0.232656       0.068642
                                                         0.074788       0.011745
                          1       6    6dxy              2.521825       1.439472
                                                         1.453920      -1.228415
                                                         0.614053      -0.237899
                                                         0.232656       0.118891
                                                         0.074788       0.020343
                          1       6    6dxz              2.521825       1.439472
                                                         1.453920      -1.228415
                                                         0.614053      -0.237899
                                                         0.232656       0.118891
                                                         0.074788       0.020343
                          1       6    6dy2              2.521825       0.831079
                                                         1.453920      -0.709226
                                                         0.614053      -0.137351
                                                         0.232656       0.068642
                                                         0.074788       0.011745
                          1       6    6dyz              2.521825       1.439472
                                                         1.453920      -1.228415
                                                         0.614053      -0.237899
                                                         0.232656       0.118891
                                                         0.074788       0.020343
                          1       6    6dz2              2.521825       0.831079
                                                         1.453920      -0.709226
                                                         0.614053      -0.137351
                                                         0.232656       0.068642
                                                         0.074788       0.011745

       Atomic covalent radius [Angstrom]:                                  1.300

       Atomic van der Waals radius [Angstrom]:                             1.750

     GTH Potential information for                                   GTH-PBE-q10

       Description:                       Goedecker-Teter-Hutter pseudopotential
                                           Goedecker et al., PRB 54, 1703 (1996)
                                          Hartwigsen et al., PRB 58, 3641 (1998)
                                                      Krack, TCA 114, 145 (2005)

       Gaussian exponent of the core charge distribution:               1.317676
       Electronic configuration (s p d ...):                           1   0   9

       Parameters of the local part of the GTH pseudopotential:

                          rloc        C1          C2          C3          C4
                        0.616000   11.313635

       Parameters of the non-local part of the GTH pseudopotential:

                   l      r(l)      h(i,j,l)

                   0    0.550904    4.733491   -1.784594
                                   -1.784594    2.303901
                   1    0.674138    2.534798   -1.778066
                                   -1.778066    2.103836
                   2    0.457392   -7.264011    2.558665
                                    2.558665   -2.901253


 MOLECULE KIND INFORMATION


 All atoms are their own molecule, skipping detailed information


 TOTAL NUMBERS AND MAXIMUM NUMBERS

  Total number of            - Atomic kinds:                                   3
                             - Atoms:                                        906
                             - Shell sets:                                   906
                             - Shells:                                      3826
                             - Primitive Cartesian functions:               4530
                             - Cartesian basis functions:                  10488
                             - Spherical basis functions:                   9610

  Maximum angular momentum of- Orbital basis functions:                        2
                             - Local part of the GTH pseudopotential:          2
                             - Non-local part of the GTH pseudopotential:      4


 MODULE QUICKSTEP:  ATOMIC COORDINATES IN angstrom

 Atom  Kind  Element       X           Y           Z          Z(eff)       Mass
    1   1 O    8      11.680001    0.590000   11.500001       6.0000     15.9994
    2   2 H    1      11.510000    0.290000   10.530001       1.0000      1.0079
    3   2 H    1      11.530000    1.560000   11.520000       1.0000      1.0079
    4   1 O    8      16.040001    9.530001   14.170000       6.0000     15.9994
    5   2 H    1      15.230001    9.050000   13.920001       1.0000      1.0079
    6   2 H    1      15.840001   10.480001   13.890000       1.0000      1.0079
    7   1 O    8     -11.210001  -24.260002    7.890000       6.0000     15.9994
    8   2 H    1     -10.240001  -24.010000    8.100000       1.0000      1.0079
    9   2 H    1     -11.630001  -23.460003    8.310000       1.0000      1.0079
   10   1 O    8      32.320000    2.180000   19.920002       6.0000     15.9994
   11   2 H    1      32.270004    1.270000   19.480001       1.0000      1.0079
   12   2 H    1      31.940002    2.000000   20.810001       1.0000      1.0079
   13   1 O    8      15.630001  -21.260002   21.110001       6.0000     15.9994
   14   2 H    1      14.750000  -21.670000   20.840000       1.0000      1.0079
   15   2 H    1      16.180000  -22.080002   21.330002       1.0000      1.0079
   16   1 O    8      12.600001   26.770000   22.790001       6.0000     15.9994
   17   2 H    1      12.240001   25.940001   23.040001       1.0000      1.0079
   18   2 H    1      13.100000   26.780003   21.920002       1.0000      1.0079
   19   1 O    8     -16.800001    4.500000   27.050001       6.0000     15.9994
   20   2 H    1     -16.430000    5.000000   26.300001       1.0000      1.0079
   21   2 H    1     -17.140001    5.170000   27.780001       1.0000      1.0079
   22   1 O    8      20.540001   22.840002   11.320001       6.0000     15.9994
   23   2 H    1      20.870001   22.860001   10.410000       1.0000      1.0079
   24   2 H    1      28.440001    9.130000   11.550001       1.0000      1.0079
   25   1 O    8     -38.500000  -17.450001   25.830002       6.0000     15.9994
   26   2 H    1     -38.240002  -16.550001   26.150000       1.0000      1.0079
   27   2 H    1     -37.970001  -17.470001   24.980001       1.0000      1.0079
   28   1 O    8      32.000000   19.490002   26.049999       6.0000     15.9994
   29   2 H    1      32.510002   18.900002   26.660002       1.0000      1.0079
   30   2 H    1      31.040001   19.410002   26.270000       1.0000      1.0079
   31   1 O    8      26.610001   16.740000   20.710001       6.0000     15.9994
   32   2 H    1      27.060001   17.160000   19.900002       1.0000      1.0079
   33   2 H    1      25.680000   16.630001   20.310001       1.0000      1.0079
   34   1 O    8      -1.870000  -53.970001   15.730000       6.0000     15.9994
   35   2 H    1      -2.170000  -53.040005   15.700001       1.0000      1.0079
   36   2 H    1      -0.890000  -54.070000   15.620001       1.0000      1.0079
   37   1 O    8      -6.430000  -14.360001   27.310001       6.0000     15.9994
   38   2 H    1      -5.630000  -14.860001   27.299999       1.0000      1.0079
   39   2 H    1      -7.260000  -14.820002   27.180002       1.0000      1.0079
   40   1 O    8      42.350002   24.220001   16.750000       6.0000     15.9994
   41   2 H    1      41.760002   24.200001   15.950001       1.0000      1.0079
   42   2 H    1      42.540001   25.120001   17.050001       1.0000      1.0079
   43   1 O    8     -10.090000  -20.420000   32.650002       6.0000     15.9994
   44   2 H    1      -9.910001  -19.920002   33.470001       1.0000      1.0079
   45   2 H    1      -9.360001  -20.850000   32.250000       1.0000      1.0079
   46   1 O    8      11.310000   15.410002   32.280003       6.0000     15.9994
   47   2 H    1      11.180000   15.480001   31.300001       1.0000      1.0079
   48   2 H    1      10.540000   14.780001   32.490002       1.0000      1.0079
   49   1 O    8     -20.200001   25.320000   28.910000       6.0000     15.9994
   50   2 H    1     -19.580000   26.060001   28.950003       1.0000      1.0079
   51   2 H    1     -21.040001   25.750000   29.320002       1.0000      1.0079
   52   1 O    8     -18.460001   27.430000   28.810001       6.0000     15.9994
   53   2 H    1     -17.550001   27.130001   28.630001       1.0000      1.0079
   54   2 H    1     -18.920000   27.480001   27.960003       1.0000      1.0079
   55   1 O    8      -5.690000   -7.160000   27.360001       6.0000     15.9994
   56   2 H    1      -5.810000   -7.970000   26.810001       1.0000      1.0079
   57   2 H    1      -5.660000   -7.300000   28.300001       1.0000      1.0079
   58   1 O    8      24.040001    0.740000   12.510000       6.0000     15.9994
   59   2 H    1      23.330002    0.120000   12.740001       1.0000      1.0079
   60   2 H    1      24.910002    0.320000   12.770000       1.0000      1.0079
   61   1 O    8     -16.830002   47.440002   27.460001       6.0000     15.9994
   62   2 H    1     -16.020000   47.460003   26.920002       1.0000      1.0079
   63   2 H    1       0.300000   47.600002   28.410000       1.0000      1.0079
   64   1 O    8      31.060001  -29.260002   12.100000       6.0000     15.9994
   65   2 H    1      30.110001  -29.150002   11.830001       1.0000      1.0079
   66   2 H    1      48.370003  -29.950001   11.560000       1.0000      1.0079
   67   1 O    8      11.480000    4.410000   22.690001       6.0000     15.9994
   68   2 H    1       2.400000   18.480000   23.210001       1.0000      1.0079
   69   2 H    1      12.300000    4.180000   23.130001       1.0000      1.0079
   70   1 O    8       5.570001    3.540000   33.260002       6.0000     15.9994
   71   2 H    1       5.750000    4.530000   33.180000       1.0000      1.0079
   72   2 H    1       4.670000    3.410000   33.090004       1.0000      1.0079
   73   1 O    8     -15.500001    1.180000   29.950001       6.0000     15.9994
   74   2 H    1     -16.440001    0.800000   29.960001       1.0000      1.0079
   75   2 H    1     -15.180001    0.950000   29.040001       1.0000      1.0079
   76   1 O    8       4.860000    9.230001   26.710003       6.0000     15.9994
   77   2 H    1       4.850000    9.820001   27.490002       1.0000      1.0079
   78   2 H    1       4.200000    8.490001   26.860001       1.0000      1.0079
   79   1 O    8      -3.330000  -33.190002   16.380001       6.0000     15.9994
   80   2 H    1      -3.320000  -32.340004   15.820000       1.0000      1.0079
   81   2 H    1      -2.650000  -33.840000   16.020000       1.0000      1.0079
   82   1 O    8      26.440001  -26.140001   17.160000       6.0000     15.9994
   83   2 H    1      26.210001  -25.430002   16.490000       1.0000      1.0079
   84   2 H    1      27.310001  -26.430000   16.860001       1.0000      1.0079
   85   1 O    8      -5.130000   12.820001   29.670002       6.0000     15.9994
   86   2 H    1      -5.020000   12.200001   30.389999       1.0000      1.0079
   87   2 H    1      -4.300000   12.870001   29.280003       1.0000      1.0079
   88   1 O    8      10.530001   -7.080000    8.910000       6.0000     15.9994
   89   2 H    1      -6.430000   -7.210000    7.920001       1.0000      1.0079
   90   2 H    1      10.910001   -6.120000    8.980000       1.0000      1.0079
   91   1 O    8      -1.390000  -11.360001   11.430000       6.0000     15.9994
   92   2 H    1      -1.340000  -12.310000   11.850000       1.0000      1.0079
   93   2 H    1      -1.810000  -11.490001   10.500001       1.0000      1.0079
   94   1 O    8      13.770000   55.410004    9.150001       6.0000     15.9994
   95   2 H    1      14.300001   54.550003    9.250001       1.0000      1.0079
   96   2 H    1      13.660001   55.470005    8.130000       1.0000      1.0079
   97   1 O    8     -14.250001   -0.210000   20.410002       6.0000     15.9994
   98   2 H    1     -14.560001   -1.150000   20.470001       1.0000      1.0079
   99   2 H    1     -14.990001    0.420000   20.640001       1.0000      1.0079
  100   1 O    8       5.260000   -3.030000   20.100000       6.0000     15.9994
  101   2 H    1       5.390000   -2.060000   19.860001       1.0000      1.0079
  102   2 H    1       6.250000   -3.220000   20.140001       1.0000      1.0079
  103   1 O    8      37.430004   19.780001    8.790001       6.0000     15.9994
  104   2 H    1      37.000004   19.660000    7.930000       1.0000      1.0079
  105   2 H    1      21.260002   20.510002    8.660001       1.0000      1.0079
  106   1 O    8      -9.580001   16.639999    9.020000       6.0000     15.9994
  107   2 H    1      -8.730000   16.290001    8.600000       1.0000      1.0079
  108   2 H    1      -9.470000   16.600000   10.010000       1.0000      1.0079
  109   1 O    8      41.870003    5.610001   11.960001       6.0000     15.9994
  110   2 H    1      41.530003    4.640000   11.850000       1.0000      1.0079
  111   2 H    1      41.230003    6.180000   11.450001       1.0000      1.0079
  112   1 O    8     -41.920006    4.240000   19.640001       6.0000     15.9994
  113   2 H    1     -41.450001    3.810000   18.770000       1.0000      1.0079
  114   2 H    1     -41.570000    3.670000   20.370003       1.0000      1.0079
  115   1 O    8      25.900002   20.640001   13.080001       6.0000     15.9994
  116   2 H    1      25.830002   20.160000   14.000001       1.0000      1.0079
  117   2 H    1      24.970001   20.990002   12.950001       1.0000      1.0079
  118   1 O    8     -31.240002   22.390001   20.050001       6.0000     15.9994
  119   2 H    1     -31.670000   22.889999   20.810001       1.0000      1.0079
  120   2 H    1     -32.060001   21.970001   19.640001       1.0000      1.0079
  121   1 O    8       7.380000    1.430000   16.920000       6.0000     15.9994
  122   2 H    1       8.290001    1.740000   17.120001       1.0000      1.0079
  123   2 H    1       7.140000    0.930000   17.700001       1.0000      1.0079
  124   1 O    8     -18.170000   15.680000   21.500000       6.0000     15.9994
  125   2 H    1     -25.810001   29.760000   21.550003       1.0000      1.0079
  126   2 H    1     -17.800001   16.580002   21.639999       1.0000      1.0079
  127   1 O    8      -5.860000   -5.850000   15.670000       6.0000     15.9994
  128   2 H    1      -6.740000   -5.300000   15.830001       1.0000      1.0079
  129   2 H    1     -13.570002    9.380000   15.710001       1.0000      1.0079
  130   1 O    8      -7.940001   22.369999   18.890001       6.0000     15.9994
  131   2 H    1      -8.520000   22.440002   19.660000       1.0000      1.0079
  132   2 H    1      -8.390000   22.889999   18.150002       1.0000      1.0079
  133   1 O    8       4.480000   17.210001    8.450001       6.0000     15.9994
  134   2 H    1       4.390000   18.120001    8.680000       1.0000      1.0079
  135   2 H    1       5.440001   16.970001    8.460000       1.0000      1.0079
  136   1 O    8     -42.690002   11.700001   31.990002       6.0000     15.9994
  137   2 H    1     -42.320004   11.090001   31.300001       1.0000      1.0079
  138   2 H    1     -43.660004   11.780001   31.900002       1.0000      1.0079
  139   1 O    8     -11.380000   -2.710000   23.620003       6.0000     15.9994
  140   2 H    1     -11.600000   -1.920000   23.090000       1.0000      1.0079
  141   2 H    1     -10.760001   -3.320000   23.200001       1.0000      1.0079
  142   1 O    8       8.930000    5.460000   16.010000       6.0000     15.9994
  143   2 H    1       8.170000    5.850000   15.510001       1.0000      1.0079
  144   2 H    1       9.650001    5.860000   15.320001       1.0000      1.0079
  145   1 O    8     -24.430000   38.030003   22.430000       6.0000     15.9994
  146   2 H    1      -7.450001   37.750000   23.390003       1.0000      1.0079
  147   2 H    1     -25.360001   37.880001   22.240002       1.0000      1.0079
  148   1 O    8     -27.080002    5.110001   23.390003       6.0000     15.9994
  149   2 H    1     -27.870003    4.640000   23.010002       1.0000      1.0079
  150   2 H    1     -27.050001    4.790000   24.340000       1.0000      1.0079
  151   1 O    8     -15.710001   12.580000   23.710001       6.0000     15.9994
  152   2 H    1     -16.500000   12.490001   24.320002       1.0000      1.0079
  153   2 H    1     -15.560001   11.680001   23.390003       1.0000      1.0079
  154   1 O    8     -28.670002   -7.020000    9.080001       6.0000     15.9994
  155   2 H    1     -27.690001   -7.000000    9.190001       1.0000      1.0079
  156   2 H    1     -28.800001   -6.510000    8.220000       1.0000      1.0079
  157   1 O    8      28.230001  -10.580001    8.910000       6.0000     15.9994
  158   2 H    1      27.480001  -10.200001    9.470000       1.0000      1.0079
  159   2 H    1      28.420002  -10.040001    8.140000       1.0000      1.0079
  160   1 O    8      -1.750000   -5.190001    9.030001       6.0000     15.9994
  161   2 H    1      -1.940000   -5.790000    9.850000       1.0000      1.0079
  162   2 H    1      -2.120000   -5.680000    8.310000       1.0000      1.0079
  163   1 O    8      54.900002   -2.110000    9.000000       6.0000     15.9994
  164   2 H    1      55.810005   -2.150000    8.690001       1.0000      1.0079
  165   2 H    1      55.060001   -2.130000    9.970000       1.0000      1.0079
  166   1 O    8       4.930000   -7.940001   20.900002       6.0000     15.9994
  167   2 H    1       5.060000   -8.790001   20.470001       1.0000      1.0079
  168   2 H    1       4.010000   -7.680000   20.620001       1.0000      1.0079
  169   1 O    8     -46.350002  -13.850001   33.090004       6.0000     15.9994
  170   2 H    1     -28.530003  -13.410001   33.110001       1.0000      1.0079
  171   2 H    1     -30.090000  -13.070001   32.890003       1.0000      1.0079
  172   1 O    8      18.360001   -1.760000   15.540000       6.0000     15.9994
  173   2 H    1      18.100000   -2.130000   16.420000       1.0000      1.0079
  174   2 H    1      19.330002   -1.670000   15.620001       1.0000      1.0079
  175   1 O    8      14.640001  -31.960001   20.650002       6.0000     15.9994
  176   2 H    1      15.040001  -31.280003   19.980001       1.0000      1.0079
  177   2 H    1      14.230001  -32.710003   20.110001       1.0000      1.0079
  178   1 O    8      -7.800000   22.070000   30.410002       6.0000     15.9994
  179   2 H    1      -7.580000   22.980001   30.110001       1.0000      1.0079
  180   2 H    1      -6.830000   21.780003   30.640001       1.0000      1.0079
  181   1 O    8      36.310001   21.470001   14.880000       6.0000     15.9994
  182   2 H    1      36.040001   22.430000   14.980001       1.0000      1.0079
  183   2 H    1      36.330002   21.290001   13.900002       1.0000      1.0079
  184   1 O    8      23.510000  -14.440001   14.960001       6.0000     15.9994
  185   2 H    1      22.920000  -13.760000   14.540001       1.0000      1.0079
  186   2 H    1      23.980000  -14.860001   14.260001       1.0000      1.0079
  187   1 O    8     -21.510000   44.360004    9.170000       6.0000     15.9994
  188   2 H    1     -20.760002   44.970001    9.030001       1.0000      1.0079
  189   2 H    1     -21.250000   43.450005    8.810000       1.0000      1.0079
  190   1 O    8      26.260002   19.160002   15.170001       6.0000     15.9994
  191   2 H    1      26.510000   18.310001   14.610001       1.0000      1.0079
  192   2 H    1      26.960001   19.330002   15.860001       1.0000      1.0079
  193   1 O    8       4.690000   -6.690001   32.360001       6.0000     15.9994
  194   2 H    1       4.820000   -6.370000   33.270000       1.0000      1.0079
  195   2 H    1       5.640000   -6.840000   32.170002       1.0000      1.0079
  196   1 O    8     -30.470001  -11.100000   20.090000       6.0000     15.9994
  197   2 H    1     -29.660000  -10.700001   19.660000       1.0000      1.0079
  198   2 H    1     -30.440002  -10.680000   21.010000       1.0000      1.0079
  199   1 O    8     -24.920002   28.120001   21.350000       6.0000     15.9994
  200   2 H    1     -24.310001   28.510000   20.700001       1.0000      1.0079
  201   2 H    1     -24.410002   27.800003   22.139999       1.0000      1.0079
  202   1 O    8      26.800001    7.150001    8.940001       6.0000     15.9994
  203   2 H    1      26.700001    8.120001    8.690001       1.0000      1.0079
  204   2 H    1      27.750000    7.130001    9.120001       1.0000      1.0079
  205   1 O    8      21.580000   12.750001   14.750000       6.0000     15.9994
  206   2 H    1      13.110001   27.020000   13.870001       1.0000      1.0079
  207   2 H    1      22.280003   13.460001   14.870001       1.0000      1.0079
  208   1 O    8     -26.780003   -0.120000    9.560000       6.0000     15.9994
  209   2 H    1     -25.860003    0.230000    9.370001       1.0000      1.0079
  210   2 H    1     -26.950001    0.160000   10.480001       1.0000      1.0079
  211   1 O    8      17.990002    3.660000   30.720001       6.0000     15.9994
  212   2 H    1      18.200001    2.690000   30.360003       1.0000      1.0079
  213   2 H    1      18.890001    4.120000   30.720001       1.0000      1.0079
  214   1 O    8      31.780003    2.610000   26.220001       6.0000     15.9994
  215   2 H    1      31.180000    2.760000   26.980001       1.0000      1.0079
  216   2 H    1      32.590000    3.090000   26.510000       1.0000      1.0079
  217   1 O    8     -40.430000   32.410004   10.030001       6.0000     15.9994
  218   2 H    1     -40.100002   32.490002   10.960001       1.0000      1.0079
  219   2 H    1     -39.800003   33.010002    9.490001       1.0000      1.0079
  220   1 O    8      36.760002    3.200000   33.260002       6.0000     15.9994
  221   2 H    1      36.410004    2.300000   32.960003       1.0000      1.0079
  222   2 H    1      36.100002    3.700000   32.790001       1.0000      1.0079
  223   1 O    8      14.520000    7.310000   12.630000       6.0000     15.9994
  224   2 H    1      31.130001    7.150001   13.620001       1.0000      1.0079
  225   2 H    1      13.600000    7.590001   12.240001       1.0000      1.0079
  226   1 O    8      19.970001   53.880005    8.080000       6.0000     15.9994
  227   2 H    1      20.410002   54.800003    8.260000       1.0000      1.0079
  228   2 H    1      35.890003   54.170002    8.340000       1.0000      1.0079
  229   1 O    8     -24.080002   39.440002   33.240002       6.0000     15.9994
  230   2 H    1     -23.310001   39.950001   32.970001       1.0000      1.0079
  231   2 H    1     -24.890001   39.950001   33.049999       1.0000      1.0079
  232   1 O    8      15.460001    1.050000   32.730003       6.0000     15.9994
  233   2 H    1      16.270000    0.620000   33.040001       1.0000      1.0079
  234   2 H    1      15.690001    2.040000   32.730003       1.0000      1.0079
  235   1 O    8      -5.380001   35.630001   26.230001       6.0000     15.9994
  236   2 H    1      -5.970000   36.330002   25.800001       1.0000      1.0079
  237   2 H    1      -4.560000   36.060001   26.510000       1.0000      1.0079
  238   1 O    8      21.350000   14.720001   18.370001       6.0000     15.9994
  239   2 H    1      12.470001   28.740002   17.680000       1.0000      1.0079
  240   2 H    1      20.700001   15.030001   19.030001       1.0000      1.0079
  241   1 O    8       6.390000   -0.190000   19.070000       6.0000     15.9994
  242   2 H    1       5.440001    0.150000   18.820002       1.0000      1.0079
  243   2 H    1       6.570000    0.320000   19.890001       1.0000      1.0079
  244   1 O    8       9.230001    1.130000    8.750001       6.0000     15.9994
  245   2 H    1       9.820001    1.830000    9.220000       1.0000      1.0079
  246   2 H    1       9.200000    1.230000    7.810000       1.0000      1.0079
  247   1 O    8      13.170000    4.860000   32.500004       6.0000     15.9994
  248   2 H    1      12.840000    5.640000   33.040001       1.0000      1.0079
  249   2 H    1      14.000001    4.510000   32.890003       1.0000      1.0079
  250   1 O    8      25.100002  -15.890001    8.810000       6.0000     15.9994
  251   2 H    1      25.590000  -15.450001    9.540001       1.0000      1.0079
  252   2 H    1      25.440002  -15.700001    7.940001       1.0000      1.0079
  253   1 O    8      -5.950000   -2.150000   26.030003       6.0000     15.9994
  254   2 H    1      -6.210001   -1.970000   25.110001       1.0000      1.0079
  255   2 H    1      -6.240000   -3.040000   26.260002       1.0000      1.0079
  256   1 O    8      19.220001  -21.060001   12.980001       6.0000     15.9994
  257   2 H    1      18.600002  -21.880001   12.880001       1.0000      1.0079
  258   2 H    1      19.190002  -20.920000   13.980001       1.0000      1.0079
  259   1 O    8     -16.510000   26.880001   18.000000       6.0000     15.9994
  260   2 H    1     -16.090000   26.890001   18.890001       1.0000      1.0079
  261   2 H    1     -16.680000   25.970001   17.750000       1.0000      1.0079
  262   1 O    8      13.850001   17.170002   14.890001       6.0000     15.9994
  263   2 H    1      14.640001   16.840002   15.450001       1.0000      1.0079
  264   2 H    1      13.680000   16.440001   14.250001       1.0000      1.0079
  265   1 O    8      30.110001    2.510000   14.470000       6.0000     15.9994
  266   2 H    1      29.680002    3.150000   13.850001       1.0000      1.0079
  267   2 H    1      39.240002   17.800001   14.930000       1.0000      1.0079
  268   1 O    8      10.220001   -0.770000   28.280001       6.0000     15.9994
  269   2 H    1      10.380001   -1.200000   27.430000       1.0000      1.0079
  270   2 H    1       9.390000   -0.180000   28.160002       1.0000      1.0079
  271   1 O    8       0.710000   -0.220000   11.190001       6.0000     15.9994
  272   2 H    1       1.630000    0.100000   11.140001       1.0000      1.0079
  273   2 H    1       0.260000    0.490000   11.600000       1.0000      1.0079
  274   1 O    8      -5.810000   -2.850000   29.750002       6.0000     15.9994
  275   2 H    1      -6.210001   -2.020000   29.190002       1.0000      1.0079
  276   2 H    1      -5.700001   -2.370000   30.640001       1.0000      1.0079
  277   1 O    8      10.010000   16.610001    8.080000       6.0000     15.9994
  278   2 H    1      -6.450000   17.440001    8.520000       1.0000      1.0079
  279   2 H    1      10.660001   15.870001    8.230000       1.0000      1.0079
  280   1 O    8      43.300003  -18.550001   26.049999       6.0000     15.9994
  281   2 H    1      42.410004  -18.160002   25.730001       1.0000      1.0079
  282   2 H    1      44.160004  -18.150002   25.690001       1.0000      1.0079
  283   1 O    8       8.650001   -9.630001   18.750002       6.0000     15.9994
  284   2 H    1       0.480000    5.900001   18.560001       1.0000      1.0079
  285   2 H    1       7.630000   -9.620001   18.790001       1.0000      1.0079
  286   1 O    8     -18.050001   42.200005   25.389999       6.0000     15.9994
  287   2 H    1      -1.930000   41.910000   24.790001       1.0000      1.0079
  288   2 H    1     -18.360001   41.730003   26.170002       1.0000      1.0079
  289   1 O    8       5.300000   21.170002   23.500002       6.0000     15.9994
  290   2 H    1       4.970000   21.049999   22.580002       1.0000      1.0079
  291   2 H    1       4.640000   21.049999   24.170000       1.0000      1.0079
  292   1 O    8      24.050003   -8.400001   28.740002       6.0000     15.9994
  293   2 H    1      23.290001   -8.660001   29.310001       1.0000      1.0079
  294   2 H    1      24.790001   -7.930000   29.210003       1.0000      1.0079
  295   1 O    8       4.960000    8.450001   30.730001       6.0000     15.9994
  296   2 H    1       5.810000    8.280001   31.110001       1.0000      1.0079
  297   2 H    1       5.120000    9.270000   30.150002       1.0000      1.0079
  298   1 O    8       7.450001    7.400000   26.600000       6.0000     15.9994
  299   2 H    1       6.750000    7.980001   26.230001       1.0000      1.0079
  300   2 H    1       7.210000    6.430000   26.350002       1.0000      1.0079
  301   1 O    8     -17.600000    8.500000    8.910000       6.0000     15.9994
  302   2 H    1     -17.640001    9.030001    8.120001       1.0000      1.0079
  303   2 H    1     -16.720001    8.090000    9.040001       1.0000      1.0079
  304   1 O    8      12.830001   18.150002   22.190001       6.0000     15.9994
  305   2 H    1      13.240002   17.690001   21.440001       1.0000      1.0079
  306   2 H    1      12.370001   18.950001   21.740000       1.0000      1.0079
  307   1 O    8     -14.680000   20.620001   12.140001       6.0000     15.9994
  308   2 H    1     -15.610001   20.400002   11.800001       1.0000      1.0079
  309   2 H    1     -14.240000   21.430000   11.750001       1.0000      1.0079
  310   1 O    8     -13.830000   13.370000   31.960001       6.0000     15.9994
  311   2 H    1     -14.660001   13.790001   32.340004       1.0000      1.0079
  312   2 H    1     -13.210001   14.060000   32.350002       1.0000      1.0079
  313   1 O    8     -15.470000   11.950001    8.440001       6.0000     15.9994
  314   2 H    1     -16.490000   12.010001    8.500000       1.0000      1.0079
  315   2 H    1     -15.020000   12.790001    8.730000       1.0000      1.0079
  316   1 O    8       3.700000   -5.060000   30.330002       6.0000     15.9994
  317   2 H    1       4.140000   -5.660000   31.000002       1.0000      1.0079
  318   2 H    1       3.850000   -5.320000   29.410002       1.0000      1.0079
  319   1 O    8      -4.070000   -7.990000   11.940001       6.0000     15.9994
  320   2 H    1      -4.040000   -8.570001   12.740001       1.0000      1.0079
  321   2 H    1      -4.750000   -7.360001   12.360001       1.0000      1.0079
  322   1 O    8      44.030003  -19.800001   14.630001       6.0000     15.9994
  323   2 H    1      44.100002  -19.450001   13.690001       1.0000      1.0079
  324   2 H    1      43.050003  -19.790001   14.850000       1.0000      1.0079
  325   1 O    8     -22.930002    3.810000   26.080000       6.0000     15.9994
  326   2 H    1     -22.260000    3.600000   26.710003       1.0000      1.0079
  327   2 H    1     -22.670002    4.720000   25.820000       1.0000      1.0079
  328   1 O    8       3.690000   -5.020000   22.780001       6.0000     15.9994
  329   2 H    1       4.460000   -4.500000   23.100002       1.0000      1.0079
  330   2 H    1       3.760000   -5.950000   23.130001       1.0000      1.0079
  331   1 O    8     -21.630001   47.950001   29.830000       6.0000     15.9994
  332   2 H    1     -20.770000   47.520004   29.700001       1.0000      1.0079
  333   2 H    1     -22.280003   47.640003   29.150002       1.0000      1.0079
  334   1 O    8     -16.880001  -11.200000   22.090000       6.0000     15.9994
  335   2 H    1     -16.440001  -11.810001   22.730000       1.0000      1.0079
  336   2 H    1     -17.430000  -10.420000   22.670002       1.0000      1.0079
  337   1 O    8      11.570001   21.380001   29.930000       6.0000     15.9994
  338   2 H    1      20.700001    7.430000   30.040001       1.0000      1.0079
  339   2 H    1      -4.960000   20.430000   29.950001       1.0000      1.0079
  340   1 O    8      30.890003   17.060001    8.910000       6.0000     15.9994
  341   2 H    1      30.670002   17.990002    8.720000       1.0000      1.0079
  342   2 H    1      31.720001   16.840002    8.430000       1.0000      1.0079
  343   1 O    8      20.080002    6.050000   16.610001       6.0000     15.9994
  344   2 H    1      20.590000    6.060000   17.440001       1.0000      1.0079
  345   2 H    1      19.660000    6.930000   16.570000       1.0000      1.0079
  346   1 O    8       3.520000  -14.460001   22.800003       6.0000     15.9994
  347   2 H    1       4.440001  -14.120001   22.720001       1.0000      1.0079
  348   2 H    1       3.630000  -15.500001   22.900002       1.0000      1.0079
  349   1 O    8       0.650000   14.410001   32.370003       6.0000     15.9994
  350   2 H    1       0.200000   14.230001   33.270000       1.0000      1.0079
  351   2 H    1       0.090000   15.010000   31.830002       1.0000      1.0079
  352   1 O    8       2.820000   17.510000   32.470001       6.0000     15.9994
  353   2 H    1       2.410000   17.480000   31.570000       1.0000      1.0079
  354   2 H    1       3.390000   18.350000   32.430004       1.0000      1.0079
  355   1 O    8      11.900001    3.500000   12.100000       6.0000     15.9994
  356   2 H    1      11.480000    4.430000   12.170000       1.0000      1.0079
  357   2 H    1      12.720001    3.790000   11.590000       1.0000      1.0079
  358   1 O    8      23.500002    8.210000   11.230000       6.0000     15.9994
  359   2 H    1      23.630001    8.970000   11.870001       1.0000      1.0079
  360   2 H    1      22.670002    7.780001   11.430000       1.0000      1.0079
  361   1 O    8     -27.420002    8.040000   22.420002       6.0000     15.9994
  362   2 H    1     -27.450001    8.120001   21.410000       1.0000      1.0079
  363   2 H    1     -27.260000    7.100000   22.560001       1.0000      1.0079
  364   1 O    8      -1.190000   68.410004   22.990000       6.0000     15.9994
  365   2 H    1      -1.290000   67.870003   23.850002       1.0000      1.0079
  366   2 H    1      -1.520000   67.710007   22.310001       1.0000      1.0079
  367   1 O    8       5.530000   14.450001    8.650001       6.0000     15.9994
  368   2 H    1       6.120000   13.680000    8.710001       1.0000      1.0079
  369   2 H    1       6.280000   15.120001    8.790001       1.0000      1.0079
  370   1 O    8     -18.200001    0.540000   30.010002       6.0000     15.9994
  371   2 H    1     -18.470001    0.430000   30.940001       1.0000      1.0079
  372   2 H    1     -18.470001   -0.340000   29.510002       1.0000      1.0079
  373   1 O    8      -9.680000    1.380000   31.110001       6.0000     15.9994
  374   2 H    1     -10.320001    0.720000   31.530001       1.0000      1.0079
  375   2 H    1      -9.730001    2.080000   31.800001       1.0000      1.0079
  376   1 O    8     -17.300001   20.020000    8.730000       6.0000     15.9994
  377   2 H    1     -16.760002   20.800001    8.800000       1.0000      1.0079
  378   2 H    1     -16.750000   19.220001    8.880001       1.0000      1.0079
  379   1 O    8      -2.380000  -24.680002   11.440001       6.0000     15.9994
  380   2 H    1      -2.320000  -23.800001   11.910001       1.0000      1.0079
  381   2 H    1      -2.160000  -24.530001   10.490000       1.0000      1.0079
  382   1 O    8       1.040000   -7.200000   32.300003       6.0000     15.9994
  383   2 H    1       1.120000   -7.860000   33.049999       1.0000      1.0079
  384   2 H    1       1.150000   -6.370000   32.850002       1.0000      1.0079
  385   1 O    8      -6.820001   46.450005   23.570002       6.0000     15.9994
  386   2 H    1      -6.860001   46.370003   22.560001       1.0000      1.0079
  387   2 H    1      -7.000000   47.390003   23.740002       1.0000      1.0079
  388   1 O    8      -2.710000    8.610001   17.190001       6.0000     15.9994
  389   2 H    1      -3.540000    9.210001   17.040001       1.0000      1.0079
  390   2 H    1      -2.310000    9.000000   18.070000       1.0000      1.0079
  391   1 O    8       1.340000   22.780001   25.220001       6.0000     15.9994
  392   2 H    1       1.310000   23.750000   25.620001       1.0000      1.0079
  393   2 H    1       0.550000   22.310001   25.670002       1.0000      1.0079
  394   1 O    8      13.810000   36.220001   15.250001       6.0000     15.9994
  395   2 H    1      21.210001   21.639999   15.240001       1.0000      1.0079
  396   2 H    1      14.230001   36.860001   15.900001       1.0000      1.0079
  397   1 O    8      21.300001   -2.580000   11.700001       6.0000     15.9994
  398   2 H    1      22.080002   -3.260000   11.670000       1.0000      1.0079
  399   2 H    1      21.610001   -1.780000   12.200001       1.0000      1.0079
  400   1 O    8      29.540003   17.440001   17.570002       6.0000     15.9994
  401   2 H    1      28.600002   17.640001   17.860001       1.0000      1.0079
  402   2 H    1      29.700001   17.860001   16.720001       1.0000      1.0079
  403   1 O    8      17.050001   47.980003   32.850002       6.0000     15.9994
  404   2 H    1      16.610001   47.660004   33.680004       1.0000      1.0079
  405   2 H    1      17.900002   47.430000   32.740002       1.0000      1.0079
  406   1 O    8      14.120001    4.380000   18.940001       6.0000     15.9994
  407   2 H    1      14.570000    3.470000   19.160002       1.0000      1.0079
  408   2 H    1      14.110001    4.440001   17.960001       1.0000      1.0079
  409   1 O    8      16.680000   -3.040000   22.170000       6.0000     15.9994
  410   2 H    1      15.940001   -3.250000   21.570000       1.0000      1.0079
  411   2 H    1      17.070002   -3.930000   22.450001       1.0000      1.0079
  412   1 O    8     -36.940002   -1.750000   26.410000       6.0000     15.9994
  413   2 H    1     -36.700001   -0.940000   25.990002       1.0000      1.0079
  414   2 H    1     -37.870003   -1.900000   26.210001       1.0000      1.0079
  415   1 O    8     -12.240001    9.410001   23.990002       6.0000     15.9994
  416   2 H    1     -12.050000    9.530001   24.940002       1.0000      1.0079
  417   2 H    1     -11.420001    9.020000   23.650000       1.0000      1.0079
  418   1 O    8      24.410002   26.760002   13.120001       6.0000     15.9994
  419   2 H    1      25.330002   26.990002   12.890000       1.0000      1.0079
  420   2 H    1      24.280003   27.360001   13.850001       1.0000      1.0079
  421   1 O    8      32.750000    2.040000   11.590000       6.0000     15.9994
  422   2 H    1      31.930000    1.490000   11.830001       1.0000      1.0079
  423   2 H    1      32.470001    2.940000   11.820001       1.0000      1.0079
  424   1 O    8     -19.700001    3.600000   23.880001       6.0000     15.9994
  425   2 H    1     -19.130001    4.270000   23.610001       1.0000      1.0079
  426   2 H    1     -10.890001  -11.250000   24.780003       1.0000      1.0079
  427   1 O    8     -19.400002   -8.490001   32.900002       6.0000     15.9994
  428   2 H    1     -18.990000   -8.630000   32.029999       1.0000      1.0079
  429   2 H    1     -18.850000   -8.020000   33.530003       1.0000      1.0079
  430   1 O    8     -10.840001   31.940002   28.990002       6.0000     15.9994
  431   2 H    1     -10.520000   31.310001   29.700001       1.0000      1.0079
  432   2 H    1     -11.300000   31.430000   28.280001       1.0000      1.0079
  433   1 O    8       6.990001  -22.590000   14.380001       6.0000     15.9994
  434   2 H    1       6.050000  -23.020000   14.320001       1.0000      1.0079
  435   2 H    1       7.440000  -22.740002   13.530001       1.0000      1.0079
  436   1 O    8      21.720001   24.050003   28.040001       6.0000     15.9994
  437   2 H    1      21.330002   24.690001   27.360001       1.0000      1.0079
  438   2 H    1      30.420000    8.630000   27.580002       1.0000      1.0079
  439   1 O    8      18.040001   13.980001   13.110001       6.0000     15.9994
  440   2 H    1      18.890001   14.180001   12.670001       1.0000      1.0079
  441   2 H    1      18.180000   14.330001   14.040001       1.0000      1.0079
  442   1 O    8      -0.840000    7.880001   32.630001       6.0000     15.9994
  443   2 H    1      -0.390000    7.740001   33.530003       1.0000      1.0079
  444   2 H    1      -0.300000    7.550001   31.910002       1.0000      1.0079
  445   1 O    8      -5.080000    1.960000   16.510000       6.0000     15.9994
  446   2 H    1      -4.590000    1.620000   17.320002       1.0000      1.0079
  447   2 H    1      -4.490000    2.280000   15.770000       1.0000      1.0079
  448   1 O    8       3.800000    0.070000   18.070000       6.0000     15.9994
  449   2 H    1       3.980000    0.970000   17.680000       1.0000      1.0079
  450   2 H    1      20.190001    0.060000   18.900002       1.0000      1.0079
  451   1 O    8      25.650002   19.930002   21.520002       6.0000     15.9994
  452   2 H    1      25.400002   19.560001   20.600002       1.0000      1.0079
  453   2 H    1      26.580002   20.230000   21.440001       1.0000      1.0079
  454   1 O    8       2.270000    3.210000   27.410002       6.0000     15.9994
  455   2 H    1       2.030000    2.250000   27.390001       1.0000      1.0079
  456   2 H    1       1.390000    3.710000   27.330000       1.0000      1.0079
  457   1 O    8      21.410000   -0.420000   26.810001       6.0000     15.9994
  458   2 H    1      21.820002    0.210000   26.140001       1.0000      1.0079
  459   2 H    1      22.120001   -0.410000   27.550001       1.0000      1.0079
  460   1 O    8      19.210001    9.940001   19.780001       6.0000     15.9994
  461   2 H    1      18.470001   10.600000   19.680000       1.0000      1.0079
  462   2 H    1       1.780000    9.220000   19.430000       1.0000      1.0079
  463   1 O    8     -12.010001  -29.660000   13.260001       6.0000     15.9994
  464   2 H    1     -12.110001  -30.020000   14.180001       1.0000      1.0079
  465   2 H    1     -12.790001  -29.030001   13.040000       1.0000      1.0079
  466   1 O    8      18.670002    2.210000   14.350000       6.0000     15.9994
  467   2 H    1      18.810001    1.760000   13.490001       1.0000      1.0079
  468   2 H    1      18.260000    1.610000   14.950001       1.0000      1.0079
  469   1 O    8       1.780000  -12.570001   23.910000       6.0000     15.9994
  470   2 H    1       2.450000  -13.290001   23.670002       1.0000      1.0079
  471   2 H    1       2.100000  -11.970000   24.690001       1.0000      1.0079
  472   1 O    8      -6.690001  -11.690001   18.100000       6.0000     15.9994
  473   2 H    1      -7.200000  -10.830001   18.200001       1.0000      1.0079
  474   2 H    1      -7.330000  -12.360001   17.580002       1.0000      1.0079
  475   1 O    8      22.820000    3.830000   19.500000       6.0000     15.9994
  476   2 H    1      22.620001    3.360000   18.640001       1.0000      1.0079
  477   2 H    1      23.830002    3.770000   19.460001       1.0000      1.0079
  478   1 O    8     -31.440001   34.790001   25.100002       6.0000     15.9994
  479   2 H    1     -31.110001   35.330002   24.310001       1.0000      1.0079
  480   2 H    1     -30.760002   34.080002   25.190001       1.0000      1.0079
  481   1 O    8       9.500000   12.040001   28.630001       6.0000     15.9994
  482   2 H    1      10.370001   12.420001   28.920002       1.0000      1.0079
  483   2 H    1       9.700001   11.490001   27.830002       1.0000      1.0079
  484   1 O    8       8.800000   44.750004   16.360001       6.0000     15.9994
  485   2 H    1       9.190001   43.870003   16.660002       1.0000      1.0079
  486   2 H    1       7.950000   44.570004   15.850000       1.0000      1.0079
  487   1 O    8      19.290001   43.080002   15.820000       6.0000     15.9994
  488   2 H    1      20.060001   42.720001   15.370001       1.0000      1.0079
  489   2 H    1      19.590000   43.990002   15.990001       1.0000      1.0079
  490   1 O    8      24.120003   28.290003   15.440001       6.0000     15.9994
  491   2 H    1      24.200001   29.220001   15.850000       1.0000      1.0079
  492   2 H    1      23.140001   28.070002   15.610001       1.0000      1.0079
  493   1 O    8       8.290001    0.830000   27.950001       6.0000     15.9994
  494   2 H    1      -0.250000   15.320001   26.990002       1.0000      1.0079
  495   2 H    1       8.560000    1.830000   27.910002       1.0000      1.0079
  496   1 O    8      31.400002   30.570002   22.580002       6.0000     15.9994
  497   2 H    1      23.670002   44.760002   23.090000       1.0000      1.0079
  498   2 H    1      22.590000   45.890003   23.130001       1.0000      1.0079
  499   1 O    8      19.540001   15.480001   20.150002       6.0000     15.9994
  500   2 H    1      19.520000   16.460001   20.080002       1.0000      1.0079
  501   2 H    1      19.900002   15.260000   21.110001       1.0000      1.0079
  502   1 O    8       6.440001    8.000000   19.870001       6.0000     15.9994
  503   2 H    1       5.910000    8.690001   19.380001       1.0000      1.0079
  504   2 H    1       7.130001    7.520000   19.350000       1.0000      1.0079
  505   1 O    8      22.750000   -0.360000   32.730003       6.0000     15.9994
[...]
    899      3      Pt         -0.00115725     0.01137056    -0.01574441
    900      3      Pt          0.00248328    -0.00878559    -0.00449676
    901      3      Pt          0.00328189    -0.00470983    -0.01025972
    902      3      Pt         -0.00267661     0.00743640     0.01390332
    903      3      Pt          0.00802502     0.00262470    -0.00370756
    904      3      Pt         -0.00680990     0.01209437     0.00793631
    905      3      Pt         -0.00762792     0.00406112    -0.00174288
    906      3      Pt          0.00786663     0.02181439     0.02119753
 SUM OF ATOMIC FORCES           0.00977689    -0.02664548    -0.02808653     0.03993022

 STRESS| Analytical stress tensor [GPa]
 STRESS|                        x                   y                   z
 STRESS|      x       -2.40787239041E+00  -9.10187024704E-02   1.93827257612E-02
 STRESS|      y       -9.10187024704E-02  -2.72769133779E+00  -6.11227980864E-03
 STRESS|      z        1.93827257612E-02  -6.11227980864E-03  -3.17241110350E-01
 STRESS| 1/3 Trace                                            -1.81760161285E+00
 STRESS| Determinant                                          -2.07985380575E+00

 STRESS| Eigenvectors and eigenvalues of the analytical stress tensor [GPa]
 STRESS|                        1                   2                   3
 STRESS| Eigenvalues  -2.75178072384E+00  -2.38398279402E+00  -3.17041320692E-01
 STRESS|      x           0.255830330265      0.966676038132      0.009395712717
 STRESS|      y           0.966721619593     -0.255814302128     -0.002890162409
 STRESS|      z           0.000390293055     -0.009822429818      0.999951682605

 -------------------------------------------------------------------------------
 -                                                                             -
 -                                DBCSR STATISTICS                             -
 -                                                                             -
 -------------------------------------------------------------------------------
 COUNTER                                    TOTAL       BLAS       SMM       ACC
 flops     5 x     5 x   288          87203563200       0.0%    100.0%      0.0%
 flops     5 x     5 x   292          88414723800       0.0%    100.0%      0.0%
 flops    13 x     5 x   288          98248438080       0.0%    100.0%      0.0%
 flops     5 x    13 x   288          98397037440       0.0%    100.0%      0.0%
 flops    13 x     5 x   292          99612999720       0.0%    100.0%      0.0%
 flops     5 x    13 x   292          99763662960       0.0%    100.0%      0.0%
 flops    13 x    20 x   288         101836051200       0.0%    100.0%      0.0%
 flops    20 x    13 x   288         102199968000       0.0%    100.0%      0.0%
 flops    13 x    20 x   292         103250440800       0.0%    100.0%      0.0%
 flops    20 x    13 x   292         103619412000       0.0%    100.0%      0.0%
 flops    13 x    13 x   288         105136776576       0.0%    100.0%      0.0%
 flops    13 x    13 x   292         106597009584       0.0%    100.0%      0.0%
 flops    20 x     5 x   288         110775340800       0.0%    100.0%      0.0%
 flops     5 x    20 x   288         110896646400       0.0%    100.0%      0.0%
 flops    20 x     5 x   292         112313887200       0.0%    100.0%      0.0%
 flops     5 x    20 x   292         112436877600       0.0%    100.0%      0.0%
 flops    20 x    20 x   288         437372006400       0.0%    100.0%      0.0%
 flops    20 x    20 x   292         443446617600       0.0%    100.0%      0.0%
 flops     5 x     5 x   320         581357088000       0.0%    100.0%      0.0%
 flops    13 x     5 x   320         654989587200       0.0%    100.0%      0.0%
 flops     5 x    13 x   320         655980249600       0.0%    100.0%      0.0%
 flops    13 x    20 x   320         678907008000       0.0%    100.0%      0.0%
 flops    20 x    13 x   320         681333120000       0.0%    100.0%      0.0%
 flops    13 x    13 x   320         700911843840       0.0%    100.0%      0.0%
 flops    20 x     5 x   320         738502272000       0.0%    100.0%      0.0%
 flops     5 x    20 x   320         739310976000       0.0%    100.0%      0.0%
 flops    20 x    20 x   320        2915813376000       0.0%    100.0%      0.0%
 flops inhomo. stacks                           0       0.0%      0.0%      0.0%
 flops total                        10.868627E+12       0.0%    100.0%      0.0%
 flops max/rank                    179.169165E+09       0.0%    100.0%      0.0%
 matmuls inhomo. stacks                         0       0.0%      0.0%      0.0%
 matmuls total                          155978784       0.0%    100.0%      0.0%
 number of processed stacks                414720       0.0%    100.0%      0.0%
 average stack size                                     0.0     376.1       0.0
 marketing flops                    30.830265E+12
 -------------------------------------------------------------------------------
 # multiplications                             81
 max memory usage/rank               1.871352E+09
 # max total images/rank                        1
 # max 3D layers                                1
 # MPI messages exchanged                   72576
 MPI messages size (bytes):
  total size                       217.954714E+09
  min size                           2.762496E+06
  max size                           3.077120E+06
  average size                       3.003124E+06
 MPI breakdown and total messages size (bytes):
             size <=      128                   0                        0
       128 < size <=     8192                   0                        0
      8192 < size <=    32768                   0                        0
     32768 < size <=   131072                   0                        0
    131072 < size <=  4194304               72576             217954800000
   4194304 < size <= 16777216                   0                        0
  16777216 < size                               0                        0
 -------------------------------------------------------------------------------
 -                                                                             -
 -                      DBCSR MESSAGE PASSING PERFORMANCE                      -
 -                                                                             -
 -------------------------------------------------------------------------------
 ROUTINE             CALLS      AVE VOLUME [Bytes]
 MP_Bcast               28                     12.
 MP_Allreduce          641                     10.
 MP_Alltoall          2268                1983877.
 MP_ISend             2592                1329597.
 MP_IRecv             2592                1310413.
 -------------------------------------------------------------------------------

 -------------------------------------------------------------------------------
 -                                                                             -
 -                                DBM STATISTICS                               -
 -                                                                             -
 -------------------------------------------------------------------------------
    M  x    N  x    K                                          COUNT     PERCENT
 -------------------------------------------------------------------------------

 -------------------------------------------------------------------------------
 -                                                                             -
 -                                GRID STATISTICS                              -
 -                                                                             -
 -------------------------------------------------------------------------------
 LP    KERNEL             BACKEND                              COUNT     PERCENT
 3     collocate general  REF                               56478789      18.97%
 3     integrate general  REF                               55839504      18.75%
 2     collocate general  REF                               52569081      17.65%
 2     integrate general  REF                               51920080      17.44%
 4     collocate general  REF                               39729285      13.34%
 4     integrate general  REF                               39238800      13.18%
 6     integrate general  REF                                 697269       0.23%
 5     integrate general  REF                                 649001       0.22%
 7     integrate general  REF                                 490485       0.16%
 0     collocate general  REF                                 115968       0.04%
 0     integrate general  REF                                  57984       0.02%
 -------------------------------------------------------------------------------

 MEMORY| Estimated peak process memory [MiB]                                2115

 -------------------------------------------------------------------------------
 ----                             MULTIGRID INFO                            ----
 -------------------------------------------------------------------------------
 count for grid        1:         730684          cutoff [a.u.]          200.00
 count for grid        2:         807801          cutoff [a.u.]           66.67
 count for grid        3:         740782          cutoff [a.u.]           22.22
 count for grid        4:         830641          cutoff [a.u.]            7.41
 total gridlevel count  :        3109908

 -------------------------------------------------------------------------------
 -                                                                             -
 -                         MESSAGE PASSING PERFORMANCE                         -
 -                                                                             -
 -------------------------------------------------------------------------------

 ROUTINE             CALLS      AVE VOLUME [Bytes]
 MP_Group                4
 MP_Bcast              262                2253303.
 MP_Allreduce         1365                   1836.
 MP_Sync                84
 MP_Alltoall          1798               14265722.
 MP_SendRecv           252                  14298.
 MP_ISendRecv        20412                 113680.
 MP_Wait             45668
 MP_ISend            23616                 340043.
 MP_IRecv            23616                 340043.
 MP_Recv               308                2460160.
 MP_Write_All            3                1540656.
 -------------------------------------------------------------------------------


 -------------------------------------------------------------------------------
 -                                                                             -
 -                           R E F E R E N C E S                               -
 -                                                                             -
 -------------------------------------------------------------------------------
 
 CP2K version 2022.1, the CP2K developers group (2022).
 CP2K is freely available from https://www.cp2k.org/ .

 Kuehne,Thomas D.; Iannuzzi,Marcella; Del Ben,Mauro;
 Rybkin,Vladimir V.; Seewald,Patrick; Stein,Frederick; Laino,Teodoro;
 Khaliullin,Rustam Z.; Schuett,Ole; Schiffmann,Florian; Golze,Dorothea;
 Wilhelm,Jan; Chulkov,Sergey; Bani-Hashemian,Mohammad Hossein;
 Weber,Valery; Borstnik,Urban; Taillefumier,Mathieu;
 Jakobovits,Alice Shoshana; Lazzaro,Alfio; Pabst,Hans; Mueller,Tiziano;
 Schade,Robert; Guidon,Manuel; Andermatt,Samuel; Holmberg,Nico;
 Schenter,Gregory K.; Hehn,Anna; Bussy,Augustin; Belleflamme,Fabian;
 Tabacchi,Gloria; Gloess,Andreas; Lass,Michael; Bethune,Iain;
 Mundy,Christopher J.; Plessl,Christian; Watkins,Matt;
 VandeVondele,Joost; Krack,Matthias; Hutter,Juerg. 
 The Journal of Chemical Physics, 152 (19), (2020). 
 CP2K: An electronic structure and molecular dynamics software package -
 Quickstep: Efficient and accurate electronic structure calculations.
 https://doi.org/10.1063/5.0007045

 Goerigk, Lars; Hansen, Andreas; Bauer, Christoph; Ehrlich, Stephan;
 Najibi, Asim; Grimme, Stefan. , 19 (48), (2017). 
 A look at the density functional theory zoo with the advanced GMTKN55 database
 for general main group thermochemistry, kinetics and noncovalent interactions.
 https://doi.org/10.1039/C7CP04913G

 Schuett, Ole; Messmer, Peter; Hutter, Juerg; VandeVondele, Joost. 
 Electronic Structure Calculations on Graphics Processing Units, John
 Wiley & Sons, Ltd, 173-190 (2016). 
 GPU-Accelerated Sparse Matrix-Matrix Multiplication for
 Linear Scaling Density Functional Theory.
 https://doi.org/10.1002/9781118670712.ch8

 Heinecke, A; Henry, G; Hutchinson, M; Pabst, H. 
 Proceedings of Intl. Supercomputing Conference, 981-991 (2016). 
 LIBXSMM: Accelerating Small Matrix Multiplications
 by Runtime Code Generation.
 https://doi.org/10.1109/SC.2016.83

 Borstnik, U; VandeVondele, J; Weber, V; Hutter, J. 
 PARALLEL COMPUTING, 40 (5-6), 47-58 (2014). 
 Sparse matrix multiplication: The distributed block-compressed sparse
 row library.
 https://doi.org/10.1016/j.parco.2014.03.012

 Hutter, J; Iannuzzi, M; Schiffmann, F; VandeVondele, J. 
 WIREs Comput Mol Sci., 4 (1), 15-25 (2014). 
 CP2K: atomistic simulations of condensed matter systems.
 https://doi.org/10.1002/wcms.1159

 Marek, A; Blum, V; Johanni, R; Havu, V; Lang, B; Auckenthaler, T;
 Heinecke, A; Bungartz, H; Lederer, H. 
 Journal of Physics: Condensed Matter, 26 (21), (2014). 
 The ELPA library: scalable parallel eigenvalue solutions for
 electronic structure
 theory and computational science.
 https://doi.org/10.1088/0953-8984/26/21/213201

 Grimme, S; Ehrlich, S; Goerigk, L. 
 JOURNAL OF COMPUTATIONAL CHEMISTRY, 32, 1456 (2011). 
 Effect of the damping function in dispersion corrected density functional theory.
 https://doi.org/10.1002/jcc.21759

 Grimme, S; Antony, J; Ehrlich, S; Krieg, H. 
 JOURNAL OF CHEMICAL PHYSICS, 132 (15), 154104 (2010). 
 A consistent and accurate ab initio parametrization of density
 functional dispersion correction (DFT-D) for the 94 elements H-Pu.
 https://doi.org/10.1063/1.3382344

 VandeVondele, J; Hutter, J. 
 JOURNAL OF CHEMICAL PHYSICS, 127 (11), 114105 (2007). 
 Gaussian basis sets for accurate calculations on molecular systems in
 gas and condensed phases.
 https://doi.org/10.1063/1.2770708

 Krack, M. 
 THEORETICAL CHEMISTRY ACCOUNTS, 114 (1-3), 145-152 (2005). 
 Pseudopotentials for H to Kr optimized for gradient-corrected
 exchange-correlation functionals.
 https://doi.org/10.1007/s00214-005-0655-y

 VandeVondele, J; Krack, M; Mohamed, F; Parrinello, M; Chassaing, T;
 Hutter, J. COMPUTER PHYSICS COMMUNICATIONS, 167 (2), 103-128 (2005). 
 QUICKSTEP: Fast and accurate density functional calculations using a
 mixed Gaussian and plane waves approach.
 https://doi.org/10.1016/j.cpc.2004.12.014

 Frigo, M; Johnson, SG. 
 PROCEEDINGS OF THE IEEE, 93 (2), 216-231 (2005). 
 The design and implementation of FFTW3.
 https://doi.org/10.1109/JPROC.2004.840301

 Hartwigsen, C; Goedecker, S; Hutter, J. 
 PHYSICAL REVIEW B, 58 (7), 3641-3662 (1998). 
 Relativistic separable dual-space Gaussian pseudopotentials from H to Rn.
 https://doi.org/10.1103/PhysRevB.58.3641

 Lippert, G; Hutter, J; Parrinello, M. 
 MOLECULAR PHYSICS, 92 (3), 477-487 (1997). 
 A hybrid Gaussian and plane wave density functional scheme.
 https://doi.org/10.1080/002689797170220

 Perdew, JP; Burke, K; Ernzerhof, M. 
 PHYSICAL REVIEW LETTERS, 77 (18), 3865-3868 (1996). 
 Generalized gradient approximation made simple.
 https://doi.org/10.1103/PhysRevLett.77.3865

 Goedecker, S; Teter, M; Hutter, J. 
 PHYSICAL REVIEW B, 54 (3), 1703-1710 (1996). 
 Separable dual-space Gaussian pseudopotentials.
 https://doi.org/10.1103/PhysRevB.54.1703


 -------------------------------------------------------------------------------
 -                                                                             -
 -                                T I M I N G                                  -
 -                                                                             -
 -------------------------------------------------------------------------------
 SUBROUTINE                       CALLS  ASD         SELF TIME        TOTAL TIME
                                MAXIMUM       AVERAGE  MAXIMUM  AVERAGE  MAXIMUM
 CP2K                                 1  1.0    0.030    0.042  958.504  958.506
 qs_forces                            1  2.0    0.002    0.003  958.028  958.030
 qs_energies                          1  3.0    0.000    0.000  945.351  945.364
 scf_env_do_scf                       1  4.0    0.000    0.000  937.077  937.321
 scf_env_do_scf_inner_loop           80  5.0    0.004    0.014  937.077  937.321
 qs_scf_new_mos                      80  6.0    0.005    0.013  381.783  382.313
 eigensolver                         80  7.0    0.007    0.010  354.599  355.049
 rebuild_ks_matrix                   81  7.0    0.000    0.000  296.278  296.336
 qs_ks_build_kohn_sham_matrix        81  8.0    0.012    0.015  296.278  296.336
 qs_ks_update_qs_env                 80  6.0    0.001    0.001  288.150  288.208
 qs_rho_update_rho_low               81  6.0    0.001    0.001  252.819  252.849
 calculate_rho_elec                  81  7.0    0.190    0.223  252.818  252.848
 sum_up_and_integrate                81  9.0    0.341    0.424  248.921  248.997
 integrate_v_rspace                  81 10.0    0.003    0.004  248.580  248.683
 grid_collocate_task_list            81  8.0  222.378  228.338  222.378  228.338
 grid_integrate_task_list            81 11.0  216.774  222.411  216.774  222.411
 cp_fm_diag_elpa                     80  8.0    0.001    0.001  208.055  208.567
 cp_fm_diag_elpa_base                80  9.0  204.848  205.620  207.704  207.782
 cp_fm_triangular_multiply          240  8.0  143.593  145.414  143.593  145.414
 pw_transfer                       1620 10.9    0.115    0.156   44.440   45.389
 fft_wrap_pw1pw2                   1458 12.0    0.014    0.018   43.929   44.865
 rs_pw_transfer                     652 10.5    0.007    0.008   39.362   44.047
 fft_wrap_pw1pw2_200                972 13.3    3.993    4.344   42.289   43.165
 qs_vxc_create                       81  9.0    0.003    0.003   41.770   42.017
 xc_vxc_pw_create                    81 10.0    0.745    0.788   41.767   42.015
 fft3d_ps                          1458 14.0   16.082   18.203   32.352   33.522
 density_rs2pw                       81  8.0    0.005    0.006   27.959   32.867
 xc_pw_derive                       486 12.0    0.008    0.009   26.578   27.886
 xc_rho_set_and_dset_create          81 11.0    0.396    0.419   22.453   23.979
 potential_pw2rs                     81 11.0    0.030    0.036   23.432   23.516
 mp_waitany                       23616 12.4   16.973   22.133   16.973   22.133
 calculate_dm_sparse                 80  7.0    0.025    0.034   19.773   20.534
 cp_dbcsr_plus_fm_fm_t_native        81  8.0    0.004    0.006   19.708   20.504
 rs_pw_transfer_RS2PW_200            83 10.0    5.266    5.798   15.648   20.391
 -------------------------------------------------------------------------------

 The number of warnings for this run is : 1
 
 -------------------------------------------------------------------------------
  **** **** ******  **  PROGRAM ENDED AT                 2023-11-27 00:21:49.178
 ***** ** ***  *** **   PROGRAM RAN ON                                     cu054
 **    ****   ******    PROGRAM RAN BY                                     jxzhu
 ***** **    ** ** **   PROGRAM PROCESS ID                                 50083
  **** **  *******  **  PROGRAM STOPPED IN /public/home/jxzhu/tmp_calc/af2075565
                                           805657d94fa4669dad6f4b174b0a4fb/calc/
                                           003000.000/pbc
