 DBCSR| CPU Multiplication driver                                           XSMM
 DBCSR| Multrec recursion limit                                              512
 DBCSR| Multiplication stack size                                           1000
 DBCSR| Maximum elements for images                                    UNLIMITED
 DBCSR| Multiplicative factor virtual images                                   1
 DBCSR| Use multiplication densification                                       T
 DBCSR| Multiplication size stacks                                             3
 DBCSR| Use memory pool for CPU allocation                                     F
 DBCSR| Number of 3D layers                                               SINGLE
 DBCSR| Use MPI memory allocation                                              F
 DBCSR| Use RMA algorithm                                                      F
 DBCSR| Use Communication thread                                               T
 DBCSR| Communication thread load                                             87
 DBCSR| MPI: My node id                                                        0
 DBCSR| MPI: Number of nodes                                                  32
 DBCSR| OMP: Current number of threads                                         1
 DBCSR| OMP: Max number of threads                                             1
 DBCSR| Split modifier for TAS multiplication algorithm                  1.0E+00


  **** **** ******  **  PROGRAM STARTED AT               2023-12-03 01:09:03.644
 ***** ** ***  *** **   PROGRAM STARTED ON                                 cu042
 **    ****   ******    PROGRAM STARTED BY                                 jxzhu
 ***** **    ** ** **   PROGRAM PROCESS ID                                 56850
  **** **  *******  **  PROGRAM STARTED IN /public/home/jxzhu/tmp_calc/04c0855f9
                                           8753fac23fde4df51ba20f3741a9e9a/calc/
                                           task.001.000030

 CP2K| version string:                                       CP2K version 2022.1
 CP2K| source code revision number:                                  git:2caeb6f
 CP2K| cp2kflags: omp libint fftw3 libxc elpa parallel mpi3 scalapack cosma xsmm
 CP2K|             plumed2 spglib mkl sirius libvori libbqb
 CP2K| is freely available from                            https://www.cp2k.org/
 CP2K| Program compiled at                           Mon Jul 3 17:37:06 CST 2023
 CP2K| Program compiled on                                                 mu003
 CP2K| Program compiled for                                                local
 CP2K| Data directory path                             /public/home/jxzhu/basis/
 CP2K| Input file name                                                 input.inp
 
 GLOBAL| Force Environment number                                              1
 GLOBAL| Basis set file name                                        BASIS_MOLOPT
 GLOBAL| Potential file name                                      GTH_POTENTIALS
 GLOBAL| MM Potential file name                                     MM_POTENTIAL
 GLOBAL| Coordinate file name                                          coord.xyz
 GLOBAL| Method name                                                        CP2K
 GLOBAL| Project name                                                       cp2k
 GLOBAL| Run type                                                   ENERGY_FORCE
 GLOBAL| FFT library                                                       FFTW3
 GLOBAL| Diagonalization library                                            ELPA
 GLOBAL| Minimum number of eigenvectors for ELPA usage                        16
 GLOBAL| Orthonormality check for eigenvectors                          DISABLED
 GLOBAL| Matrix multiplication library                                     COSMA
 GLOBAL| All-to-all communication in single precision                          F
 GLOBAL| FFTs using library dependent lengths                                  T
 GLOBAL| Grid backend                                                       AUTO
 GLOBAL| Global print level                                               MEDIUM
 GLOBAL| MPI I/O enabled                                                       T
 GLOBAL| Total number of message passing processes                            32
 GLOBAL| Number of threads for this process                                    1
 GLOBAL| This output is from process                                           0
 GLOBAL| Stack size for threads created by OpenMP (OMP_STACKSIZE)        default
 GLOBAL| CPU model name                 Intel(R) Xeon(R) Gold 6338 CPU @ 2.00GHz
 GLOBAL| CPUID                                                              1003

 MEMORY| system memory details [Kb]
 MEMORY|                        rank 0           min           max       average
 MEMORY| MemTotal            263619172     263619172     263619172     263619172
 MEMORY| MemFree             175093076     175093076     175093076     175093076
 MEMORY| Buffers                  3320          3320          3320          3320
 MEMORY| Cached                8373548       8373548       8373548       8373548
 MEMORY| Slab                  1855876       1855876       1855876       1855876
 MEMORY| SReclaimable           243612        243612        243612        243612
 MEMORY| MemLikelyFree       183713556     183713556     183713556     183713556


 *** Fundamental physical constants (SI units) ***

 *** Literature: B. J. Mohr and B. N. Taylor,
 ***             CODATA recommended values of the fundamental physical
 ***             constants: 2006, Web Version 5.1
 ***             http://physics.nist.gov/constants

 Speed of light in vacuum [m/s]                             2.99792458000000E+08
 Magnetic constant or permeability of vacuum [N/A**2]       1.25663706143592E-06
 Electric constant or permittivity of vacuum [F/m]          8.85418781762039E-12
 Planck constant (h) [J*s]                                  6.62606896000000E-34
 Planck constant (h-bar) [J*s]                              1.05457162825177E-34
 Elementary charge [C]                                      1.60217648700000E-19
 Electron mass [kg]                                         9.10938215000000E-31
 Electron g factor [ ]                                     -2.00231930436220E+00
 Proton mass [kg]                                           1.67262163700000E-27
 Fine-structure constant                                    7.29735253760000E-03
 Rydberg constant [1/m]                                     1.09737315685270E+07
 Avogadro constant [1/mol]                                  6.02214179000000E+23
 Boltzmann constant [J/K]                                   1.38065040000000E-23
 Atomic mass unit [kg]                                      1.66053878200000E-27
 Bohr radius [m]                                            5.29177208590000E-11

 *** Conversion factors ***

 [u] -> [a.u.]                                              1.82288848426455E+03
 [Angstrom] -> [Bohr] = [a.u.]                              1.88972613288564E+00
 [a.u.] = [Bohr] -> [Angstrom]                              5.29177208590000E-01
 [a.u.] -> [s]                                              2.41888432650478E-17
 [a.u.] -> [fs]                                             2.41888432650478E-02
 [a.u.] -> [J]                                              4.35974393937059E-18
 [a.u.] -> [N]                                              8.23872205491840E-08
 [a.u.] -> [K]                                              3.15774647902944E+05
 [a.u.] -> [kJ/mol]                                         2.62549961709828E+03
 [a.u.] -> [kcal/mol]                                       6.27509468713739E+02
 [a.u.] -> [Pa]                                             2.94210107994716E+13
 [a.u.] -> [bar]                                            2.94210107994716E+08
 [a.u.] -> [atm]                                            2.90362800883016E+08
 [a.u.] -> [eV]                                             2.72113838565563E+01
 [a.u.] -> [Hz]                                             6.57968392072181E+15
 [a.u.] -> [1/cm] (wave numbers)                            2.19474631370540E+05
 [a.u./Bohr**2] -> [1/cm]                                   5.14048714338585E+03
 

 CELL_TOP| Volume [angstrom^3]:                                     12686.086737
 CELL_TOP| Vector a [angstrom    16.869     0.000     0.000   |a| =    16.869000
 CELL_TOP| Vector b [angstrom    -8.434    14.609     0.000   |b| =    16.868929
 CELL_TOP| Vector c [angstrom     0.000     0.000    51.478   |c| =    51.477900
 CELL_TOP| Angle (b,c), alpha [degree]:                                90.000000
 CELL_TOP| Angle (a,c), beta  [degree]:                                90.000000
 CELL_TOP| Angle (a,b), gamma [degree]:                               120.000140
 CELL_TOP| Numerically orthorhombic:                                          NO
 
 GENERATE|  Preliminary Number of Bonds generated:                             0
 GENERATE|  Achieved consistency in connectivity generation.

 CELL| Volume [angstrom^3]:                                         12686.086737
 CELL| Vector a [angstrom]:      16.869     0.000     0.000   |a| =    16.869000
 CELL| Vector b [angstrom]:      -8.434    14.609     0.000   |b| =    16.868929
 CELL| Vector c [angstrom]:       0.000     0.000    51.478   |c| =    51.477900
 CELL| Angle (b,c), alpha [degree]:                                    90.000000
 CELL| Angle (a,c), beta  [degree]:                                    90.000000
 CELL| Angle (a,b), gamma [degree]:                                   120.000140
 CELL| Numerically orthorhombic:                                              NO

 CELL_REF| Volume [angstrom^3]:                                     12686.086737
 CELL_REF| Vector a [angstrom    16.869     0.000     0.000   |a| =    16.869000
 CELL_REF| Vector b [angstrom    -8.434    14.609     0.000   |b| =    16.868929
 CELL_REF| Vector c [angstrom     0.000     0.000    51.478   |c| =    51.477900
 CELL_REF| Angle (b,c), alpha [degree]:                                90.000000
 CELL_REF| Angle (a,c), beta  [degree]:                                90.000000
 CELL_REF| Angle (a,b), gamma [degree]:                               120.000140
 CELL_REF| Numerically orthorhombic:                                          NO

 *******************************************************************************
 *******************************************************************************
 **                                                                           **
 **     #####                         ##              ##                      **
 **    ##   ##            ##          ##              ##                      **
 **   ##     ##                       ##            ######                    **
 **   ##     ##  ##   ##  ##   #####  ##  ##   ####   ##    #####    #####    **
 **   ##     ##  ##   ##  ##  ##      ## ##   ##      ##   ##   ##  ##   ##   **
 **   ##  ## ##  ##   ##  ##  ##      ####     ###    ##   ######   ######    **
 **    ##  ###   ##   ##  ##  ##      ## ##      ##   ##   ##       ##        **
 **     #######   #####   ##   #####  ##  ##  ####    ##    #####   ##        **
 **           ##                                                    ##        **
 **                                                                           **
 **                                                ... make the atoms dance   **
 **                                                                           **
 **            Copyright (C) by CP2K developers group (2000-2022)             **
 **                      J. Chem. Phys. 152, 194103 (2020)                    **
 **                                                                           **
 *******************************************************************************

 DFT| Spin restricted Kohn-Sham (RKS) calculation                            RKS
 DFT| Multiplicity                                                             1
 DFT| Number of spin states                                                    1
 DFT| Charge                                                                   0
 DFT| Self-interaction correction (SIC)                                       NO
 DFT| Cutoffs: density                                              1.000000E-10
 DFT|          gradient                                             1.000000E-10
 DFT|          tau                                                  1.000000E-10
 DFT|          cutoff_smoothing_range                               0.000000E+00
 DFT| XC density smoothing                                                  NONE
 DFT| XC derivatives                                                          PW

 FUNCTIONAL| PBE:
 FUNCTIONAL| J.P.Perdew, K.Burke, M.Ernzerhof, Phys. Rev. Letter, vol. 77, n 18,
 FUNCTIONAL|  pp. 3865-3868, (1996){spin unpolarized}                           

 vdW POTENTIAL|                                                   Pair Potential
 vdW POTENTIAL|          DFT-D3 (Version 3.1)
 vdW POTENTIAL|          Potential Form: S. Grimme et al, JCP 132: 154104 (2010)
 vdW POTENTIAL|          Zero Damping
 vdW POTENTIAL|          Cutoff Radius [Bohr]:                             20.00
 vdW POTENTIAL|          s6 Scaling Factor:                               1.0000
 vdW POTENTIAL|          sr6 Scaling Factor:                              1.2170
 vdW POTENTIAL|          s8 Scaling Factor:                               0.7220
 vdW POTENTIAL|          Cutoff for CN calculation:                   0.1000E-05

 QS| Method:                                                                 GPW
 QS| Density plane wave grid type                        NON-SPHERICAL FULLSPACE
 QS| Number of grid levels:                                                    4
 QS| Density cutoff [a.u.]:                                                200.0
 QS| Multi grid cutoff [a.u.]: 1) grid level                               200.0
 QS|                           2) grid level                                66.7
 QS|                           3) grid level                                22.2
 QS|                           4) grid level                                 7.4
 QS| Grid level progression factor:                                          3.0
 QS| Relative density cutoff [a.u.]:                                        20.0
 QS| Interaction thresholds: eps_pgf_orb:                                3.2E-07
 QS|                         eps_filter_matrix:                          0.0E+00
 QS|                         eps_core_charge:                            1.0E-15
 QS|                         eps_rho_gspace:                             1.0E-13
 QS|                         eps_rho_rspace:                             1.0E-13
 QS|                         eps_gvg_rspace:                             3.2E-07
 QS|                         eps_ppl:                                    1.0E-02
 QS|                         eps_ppnl:                                   3.2E-09


 ATOMIC KIND INFORMATION

  1. Atomic kind: Pt                                    Number of atoms:     216

     Orbital Basis Set                      DZVP-A5-Q10-323-MOL-T1-DERIVED_SET-1

       Number of orbital shell sets:                                           1
       Number of orbital shells:                                               6
       Number of primitive Cartesian functions:                                5
       Number of Cartesian basis functions:                                   23
       Number of spherical basis functions:                                   20
       Norm type:                                                              2

       Normalised Cartesian orbitals:

                        Set   Shell   Orbital            Exponent    Coefficient

                          1       1    2s                2.521825       0.177473
                                                         1.453920      -0.063399
                                                         0.614053      -0.407089
                                                         0.232656       0.262254
                                                         0.074788       0.047371

                          1       2    3s                2.521825      -0.049056
                                                         1.453920       0.044904
                                                         0.614053      -0.009756
                                                         0.232656      -0.144709
                                                         0.074788       0.144085

                          1       3    3px               2.521825      -0.317572
                                                         1.453920       0.534826
                                                         0.614053      -0.489458
                                                         0.232656       0.245631
                                                         0.074788       0.018221
                          1       3    3py               2.521825      -0.317572
                                                         1.453920       0.534826
                                                         0.614053      -0.489458
                                                         0.232656       0.245631
                                                         0.074788       0.018221
                          1       3    3pz               2.521825      -0.317572
                                                         1.453920       0.534826
                                                         0.614053      -0.489458
                                                         0.232656       0.245631
                                                         0.074788       0.018221

                          1       4    4dx2              2.521825       3.008522
                                                         1.453920      -1.224251
                                                         0.614053       0.225691
                                                         0.232656       0.125144
                                                         0.074788      -0.015348
                          1       4    4dxy              2.521825       5.210912
                                                         1.453920      -2.120465
                                                         0.614053       0.390909
                                                         0.232656       0.216756
                                                         0.074788      -0.026584
                          1       4    4dxz              2.521825       5.210912
                                                         1.453920      -2.120465
                                                         0.614053       0.390909
                                                         0.232656       0.216756
                                                         0.074788      -0.026584
                          1       4    4dy2              2.521825       3.008522
                                                         1.453920      -1.224251
                                                         0.614053       0.225691
                                                         0.232656       0.125144
                                                         0.074788      -0.015348
                          1       4    4dyz              2.521825       5.210912
                                                         1.453920      -2.120465
                                                         0.614053       0.390909
                                                         0.232656       0.216756
                                                         0.074788      -0.026584
                          1       4    4dz2              2.521825       3.008522
                                                         1.453920      -1.224251
                                                         0.614053       0.225691
                                                         0.232656       0.125144
                                                         0.074788      -0.015348

                          1       5    5dx2              2.521825       0.698026
                                                         1.453920      -1.511486
                                                         0.614053      -0.335394
                                                         0.232656      -0.025564
                                                         0.074788      -0.002699
                          1       5    5dxy              2.521825       1.209017
                                                         1.453920      -2.617970
                                                         0.614053      -0.580920
                                                         0.232656      -0.044277
                                                         0.074788      -0.004674
                          1       5    5dxz              2.521825       1.209017
                                                         1.453920      -2.617970
                                                         0.614053      -0.580920
                                                         0.232656      -0.044277
                                                         0.074788      -0.004674
                          1       5    5dy2              2.521825       0.698026
                                                         1.453920      -1.511486
                                                         0.614053      -0.335394
                                                         0.232656      -0.025564
                                                         0.074788      -0.002699
                          1       5    5dyz              2.521825       1.209017
                                                         1.453920      -2.617970
                                                         0.614053      -0.580920
                                                         0.232656      -0.044277
                                                         0.074788      -0.004674
                          1       5    5dz2              2.521825       0.698026
                                                         1.453920      -1.511486
                                                         0.614053      -0.335394
                                                         0.232656      -0.025564
                                                         0.074788      -0.002699

                          1       6    6dx2              2.521825       0.831079
                                                         1.453920      -0.709226
                                                         0.614053      -0.137351
                                                         0.232656       0.068642
                                                         0.074788       0.011745
                          1       6    6dxy              2.521825       1.439472
                                                         1.453920      -1.228415
                                                         0.614053      -0.237899
                                                         0.232656       0.118891
                                                         0.074788       0.020343
                          1       6    6dxz              2.521825       1.439472
                                                         1.453920      -1.228415
                                                         0.614053      -0.237899
                                                         0.232656       0.118891
                                                         0.074788       0.020343
                          1       6    6dy2              2.521825       0.831079
                                                         1.453920      -0.709226
                                                         0.614053      -0.137351
                                                         0.232656       0.068642
                                                         0.074788       0.011745
                          1       6    6dyz              2.521825       1.439472
                                                         1.453920      -1.228415
                                                         0.614053      -0.237899
                                                         0.232656       0.118891
                                                         0.074788       0.020343
                          1       6    6dz2              2.521825       0.831079
                                                         1.453920      -0.709226
                                                         0.614053      -0.137351
                                                         0.232656       0.068642
                                                         0.074788       0.011745

       Atomic covalent radius [Angstrom]:                                  1.300

       Atomic van der Waals radius [Angstrom]:                             1.750

     GTH Potential information for                                   GTH-PBE-q10

       Description:                       Goedecker-Teter-Hutter pseudopotential
                                           Goedecker et al., PRB 54, 1703 (1996)
                                          Hartwigsen et al., PRB 58, 3641 (1998)
                                                      Krack, TCA 114, 145 (2005)

       Gaussian exponent of the core charge distribution:               1.317676
       Electronic configuration (s p d ...):                           1   0   9

       Parameters of the local part of the GTH pseudopotential:

                          rloc        C1          C2          C3          C4
                        0.616000   11.313635

       Parameters of the non-local part of the GTH pseudopotential:

                   l      r(l)      h(i,j,l)

                   0    0.550904    4.733491   -1.784594
                                   -1.784594    2.303901
                   1    0.674138    2.534798   -1.778066
                                   -1.778066    2.103836
                   2    0.457392   -7.264011    2.558665
                                    2.558665   -2.901253


 MOLECULE KIND INFORMATION


 All atoms are their own molecule, skipping detailed information


 TOTAL NUMBERS AND MAXIMUM NUMBERS

  Total number of            - Atomic kinds:                                   1
                             - Atoms:                                        216
                             - Shell sets:                                   216
                             - Shells:                                      1296
                             - Primitive Cartesian functions:               1080
                             - Cartesian basis functions:                   4968
                             - Spherical basis functions:                   4320

  Maximum angular momentum of- Orbital basis functions:                        2
                             - Local part of the GTH pseudopotential:          0
                             - Non-local part of the GTH pseudopotential:      4


 MODULE QUICKSTEP:  ATOMIC COORDINATES IN angstrom

 Atom  Kind  Element       X           Y           Z          Z(eff)       Mass
    1   1 Pt  78       2.128926    0.354470   19.854935      10.0000    195.0840
    2   1 Pt  78       5.048926    0.454470   19.964932      10.0000    195.0840
    3   1 Pt  78       7.788926    0.464470   20.064934      10.0000    195.0840
    4   1 Pt  78      10.738925    0.414470   19.974934      10.0000    195.0840
    5   1 Pt  78      13.418926    0.344470   19.974934      10.0000    195.0840
    6   1 Pt  78      16.168927    0.434470   19.914936      10.0000    195.0840
    7   1 Pt  78       3.508926    2.704470   19.864933      10.0000    195.0840
    8   1 Pt  78       6.318926    2.834470   19.824932      10.0000    195.0840
    9   1 Pt  78       9.148926    2.804470   19.914936      10.0000    195.0840
   10   1 Pt  78      11.968926    2.884470   19.884934      10.0000    195.0840
   11   1 Pt  78      14.868927    2.764470   20.014935      10.0000    195.0840
   12   1 Pt  78       0.768926    2.684470   20.014935      10.0000    195.0840
   13   1 Pt  78       4.968926    5.274470   19.994934      10.0000    195.0840
   14   1 Pt  78       7.728926    5.174470   20.144936      10.0000    195.0840
   15   1 Pt  78      10.648926    5.164470   19.924935      10.0000    195.0840
   16   1 Pt  78      13.508926    5.274470   20.114933      10.0000    195.0840
   17   1 Pt  78      -0.641075    5.254470   19.954933      10.0000    195.0840
   18   1 Pt  78       2.198926    5.274470   20.064934      10.0000    195.0840
   19   1 Pt  78       6.378926    7.664470   19.954933      10.0000    195.0840
   20   1 Pt  78       9.298926    7.694471   19.944935      10.0000    195.0840
   21   1 Pt  78      11.968926    7.674470   19.834934      10.0000    195.0840
   22   1 Pt  78      -2.041075    7.784471   19.884934      10.0000    195.0840
   23   1 Pt  78       0.738926    7.824471   19.904934      10.0000    195.0840
   24   1 Pt  78       3.618926    7.754470   19.944935      10.0000    195.0840
   25   1 Pt  78       7.818926   10.204471   19.844936      10.0000    195.0840
   26   1 Pt  78      10.588926   10.104471   19.754933      10.0000    195.0840
   27   1 Pt  78      -3.481075   10.234470   19.834934      10.0000    195.0840
   28   1 Pt  78      -0.721075   10.154472   19.694935      10.0000    195.0840
   29   1 Pt  78       2.218926   10.104471   19.904934      10.0000    195.0840
   30   1 Pt  78       5.068926   10.124471   20.004936      10.0000    195.0840
   31   1 Pt  78       9.188926   12.554471   19.994934      10.0000    195.0840
   32   1 Pt  78      -4.781075   12.744471   19.944935      10.0000    195.0840
   33   1 Pt  78      -1.991075   12.594470   19.934933      10.0000    195.0840
   34   1 Pt  78       0.858926   12.674471   19.994934      10.0000    195.0840
   35   1 Pt  78       3.698926   12.534471   19.884934      10.0000    195.0840
   36   1 Pt  78       6.458926   12.594470   19.924935      10.0000    195.0840
   37   1 Pt  78       0.738926    1.214470   22.424935      10.0000    195.0840
   38   1 Pt  78       3.668926    1.174470   22.304932      10.0000    195.0840
   39   1 Pt  78       6.508926    1.304470   22.274937      10.0000    195.0840
   40   1 Pt  78       9.258926    1.104470   22.374935      10.0000    195.0840
   41   1 Pt  78      12.198926    1.184470   22.314934      10.0000    195.0840
   42   1 Pt  78      14.938926    1.114470   22.334934      10.0000    195.0840
   43   1 Pt  78       2.298926    3.674470   22.264935      10.0000    195.0840
   44   1 Pt  78       5.188926    3.534470   22.194935      10.0000    195.0840
   45   1 Pt  78       8.028926    3.574470   22.434933      10.0000    195.0840
   46   1 Pt  78      10.788926    3.554470   22.354935      10.0000    195.0840
   47   1 Pt  78      13.518926    3.554470   22.434933      10.0000    195.0840
   48   1 Pt  78      -0.531075    3.704470   22.344936      10.0000    195.0840
   49   1 Pt  78       3.628926    6.094470   22.204933      10.0000    195.0840
   50   1 Pt  78       6.378926    6.104470   22.344936      10.0000    195.0840
   51   1 Pt  78       9.278926    5.914470   22.304932      10.0000    195.0840
   52   1 Pt  78      12.048926    6.054470   22.244934      10.0000    195.0840
   53   1 Pt  78      -1.911074    6.184470   22.354935      10.0000    195.0840
   54   1 Pt  78       0.848926    6.144470   22.254933      10.0000    195.0840
   55   1 Pt  78       5.018926    8.574471   22.324932      10.0000    195.0840
   56   1 Pt  78       7.858926    8.504470   22.274937      10.0000    195.0840
   57   1 Pt  78      10.688926    8.414470   22.194935      10.0000    195.0840
   58   1 Pt  78      -3.411075    8.504470   22.284935      10.0000    195.0840
   59   1 Pt  78      -0.501075    8.554471   22.194935      10.0000    195.0840
   60   1 Pt  78       2.268926    8.594470   22.294933      10.0000    195.0840
   61   1 Pt  78       6.398925   10.994471   22.324932      10.0000    195.0840
   62   1 Pt  78       9.268926   10.924470   22.224934      10.0000    195.0840
   63   1 Pt  78      -4.821075   10.914471   22.164932      10.0000    195.0840
   64   1 Pt  78      -1.961075   10.914471   22.204933      10.0000    195.0840
   65   1 Pt  78       0.858926   11.104470   22.244934      10.0000    195.0840
   66   1 Pt  78       3.578926   11.074472   22.294933      10.0000    195.0840
   67   1 Pt  78       7.838926   13.274470   22.294933      10.0000    195.0840
   68   1 Pt  78      -6.231075   13.364471   22.324932      10.0000    195.0840
   69   1 Pt  78      -3.501074   13.444471   22.284935      10.0000    195.0840
   70   1 Pt  78      -0.661074   13.414471   22.294933      10.0000    195.0840
   71   1 Pt  78       2.228926   13.454471   22.314934      10.0000    195.0840
   72   1 Pt  78       5.078926   13.374471   22.314934      10.0000    195.0840
   73   1 Pt  78      -7.631075   14.154471   24.544933      10.0000    195.0840
   74   1 Pt  78      -4.801075   14.184471   24.494934      10.0000    195.0840
   75   1 Pt  78      -1.891075   14.114472   24.554936      10.0000    195.0840
   76   1 Pt  78       0.768926   14.084471   24.694935      10.0000    195.0840
   77   1 Pt  78       3.628926   14.134471   24.634934      10.0000    195.0840
   78   1 Pt  78       6.488925   14.194471   24.744934      10.0000    195.0840
   79   1 Pt  78       2.288926    2.094470   24.564934      10.0000    195.0840
   80   1 Pt  78       5.098926    2.074470   24.604935      10.0000    195.0840
   81   1 Pt  78       7.868926    2.004470   24.724938      10.0000    195.0840
   82   1 Pt  78      10.638926    1.824470   24.634934      10.0000    195.0840
   83   1 Pt  78      13.528926    1.924470   24.664936      10.0000    195.0840
   84   1 Pt  78      -0.541075    2.004470   24.604935      10.0000    195.0840
   85   1 Pt  78       3.748926    4.514470   24.534935      10.0000    195.0840
   86   1 Pt  78       6.538926    4.504470   24.594936      10.0000    195.0840
   87   1 Pt  78       9.398925    4.444471   24.654934      10.0000    195.0840
   88   1 Pt  78      12.088926    4.404470   24.674935      10.0000    195.0840
   89   1 Pt  78      -2.031075    4.454470   24.634934      10.0000    195.0840
   90   1 Pt  78       0.908926    4.504470   24.604935      10.0000    195.0840
   91   1 Pt  78       5.098926    6.914470   24.614933      10.0000    195.0840
   92   1 Pt  78       7.858926    6.894471   24.524937      10.0000    195.0840
   93   1 Pt  78      10.628926    7.004470   24.534935      10.0000    195.0840
   94   1 Pt  78      -3.461075    6.894471   24.614933      10.0000    195.0840
   95   1 Pt  78      -0.481075    6.864471   24.674935      10.0000    195.0840
   96   1 Pt  78       2.338926    6.934470   24.594936      10.0000    195.0840
   97   1 Pt  78       6.468926    9.344471   24.554936      10.0000    195.0840
   98   1 Pt  78       9.238925    9.354470   24.484936      10.0000    195.0840
   99   1 Pt  78      -4.731075    9.344471   24.474934      10.0000    195.0840
  100   1 Pt  78      -1.941075    9.244470   24.454933      10.0000    195.0840
  101   1 Pt  78       0.908926    9.204471   24.594936      10.0000    195.0840
  102   1 Pt  78       3.658926    9.344471   24.674935      10.0000    195.0840
  103   1 Pt  78       7.878926   11.734471   24.634934      10.0000    195.0840
  104   1 Pt  78      -6.241075   11.764471   24.504933      10.0000    195.0840
  105   1 Pt  78      -3.371075   11.714471   24.554936      10.0000    195.0840
  106   1 Pt  78      -0.571074   11.644470   24.554936      10.0000    195.0840
  107   1 Pt  78       2.158926   11.764471   24.724938      10.0000    195.0840
  108   1 Pt  78       5.008926   11.864471   24.634934      10.0000    195.0840
  109   1 Pt  78       2.258926    0.344470   26.792933      10.0000    195.0840
  110   1 Pt  78       5.078926    0.334470   26.752933      10.0000    195.0840
  111   1 Pt  78       7.848926    0.374470   26.952933      10.0000    195.0840
  112   1 Pt  78      10.558926    0.384470   26.982933      10.0000    195.0840
  113   1 Pt  78      13.418926    0.354470   26.952933      10.0000    195.0840
  114   1 Pt  78      16.198926    0.414470   26.922933      10.0000    195.0840
  115   1 Pt  78       3.618926    2.734470   26.942933      10.0000    195.0840
  116   1 Pt  78       6.388926    2.824470   26.952933      10.0000    195.0840
  117   1 Pt  78       9.218926    2.914470   26.952933      10.0000    195.0840
  118   1 Pt  78      12.018926    2.764470   26.962933      10.0000    195.0840
  119   1 Pt  78      14.868927    2.784470   27.002933      10.0000    195.0840
  120   1 Pt  78       0.868926    2.744470   26.892933      10.0000    195.0840
  121   1 Pt  78       4.988926    5.324470   26.902933      10.0000    195.0840
  122   1 Pt  78       7.778925    5.334470   26.872933      10.0000    195.0840
  123   1 Pt  78      10.588926    5.254470   26.912933      10.0000    195.0840
  124   1 Pt  78      13.378927    5.144470   26.892933      10.0000    195.0840
  125   1 Pt  78      -0.561074    5.164470   26.912933      10.0000    195.0840
  126   1 Pt  78       2.308926    5.114471   26.792933      10.0000    195.0840
  127   1 Pt  78       6.468926    7.744471   26.942933      10.0000    195.0840
  128   1 Pt  78       9.228926    7.744471   26.882933      10.0000    195.0840
  129   1 Pt  78      12.038926    7.644470   26.962933      10.0000    195.0840
  130   1 Pt  78      -2.011075    7.624470   26.932933      10.0000    195.0840
  131   1 Pt  78       0.868926    7.644470   26.902933      10.0000    195.0840
  132   1 Pt  78       3.678926    7.674470   26.922933      10.0000    195.0840
  133   1 Pt  78       7.918926   10.234470   26.842933      10.0000    195.0840
  134   1 Pt  78      10.658926   10.114471   26.792933      10.0000    195.0840
  135   1 Pt  78      -3.341074   10.104471   26.832933      10.0000    195.0840
  136   1 Pt  78      -0.561074   10.054471   26.932933      10.0000    195.0840
  137   1 Pt  78       2.168926   10.114471   27.032933      10.0000    195.0840
  138   1 Pt  78       5.058926   10.174471   26.912933      10.0000    195.0840
  139   1 Pt  78       9.228926   12.604471   26.912933      10.0000    195.0840
  140   1 Pt  78      -4.821075   12.454471   26.692933      10.0000    195.0840
  141   1 Pt  78      -2.001075   12.504471   26.942933      10.0000    195.0840
  142   1 Pt  78       0.758926   12.474471   26.992933      10.0000    195.0840
  143   1 Pt  78       3.518926   12.554471   27.082933      10.0000    195.0840
  144   1 Pt  78       6.368926   12.524470   27.022933      10.0000    195.0840
  145   1 Pt  78       0.838926    1.084470   29.292932      10.0000    195.0840
  146   1 Pt  78       3.558926    1.224470   29.122933      10.0000    195.0840
  147   1 Pt  78       6.328926    1.274470   29.322933      10.0000    195.0840
  148   1 Pt  78       9.008926    1.284470   29.252933      10.0000    195.0840
  149   1 Pt  78      11.948926    1.244470   29.232933      10.0000    195.0840
  150   1 Pt  78      14.878926    1.174470   29.402933      10.0000    195.0840
  151   1 Pt  78       2.118926    3.554470   29.182933      10.0000    195.0840
  152   1 Pt  78       4.988926    3.744470   29.132933      10.0000    195.0840
  153   1 Pt  78       7.718926    3.694470   29.172933      10.0000    195.0840
  154   1 Pt  78      10.498926    3.604470   29.252933      10.0000    195.0840
  155   1 Pt  78      13.438926    3.584470   29.292932      10.0000    195.0840
  156   1 Pt  78      -0.641075    3.604470   29.212933      10.0000    195.0840
  157   1 Pt  78       3.598926    6.084470   29.212933      10.0000    195.0840
  158   1 Pt  78       6.408926    6.234471   29.262933      10.0000    195.0840
  159   1 Pt  78       9.178926    6.174471   29.202933      10.0000    195.0840
  160   1 Pt  78      12.028926    5.904471   29.162933      10.0000    195.0840
  161   1 Pt  78      -2.121075    6.054470   29.122933      10.0000    195.0840
  162   1 Pt  78       0.828926    6.004470   29.202933      10.0000    195.0840
  163   1 Pt  78       4.998926    8.614471   29.202933      10.0000    195.0840
  164   1 Pt  78       7.918926    8.664471   29.192933      10.0000    195.0840
  165   1 Pt  78      10.768926    8.584470   29.262933      10.0000    195.0840
  166   1 Pt  78      -3.371075    8.604470   29.272932      10.0000    195.0840
  167   1 Pt  78      -0.541075    8.564470   29.142933      10.0000    195.0840
  168   1 Pt  78       2.198926    8.574471   29.202933      10.0000    195.0840
  169   1 Pt  78       6.338926   11.024471   29.302933      10.0000    195.0840
  170   1 Pt  78       9.248926   11.084470   29.162933      10.0000    195.0840
  171   1 Pt  78      -4.841074   11.004470   29.132933      10.0000    195.0840
  172   1 Pt  78      -2.051075   11.024471   29.212933      10.0000    195.0840
  173   1 Pt  78       0.728926   10.994471   29.362933      10.0000    195.0840
  174   1 Pt  78       3.628926   10.944471   29.322933      10.0000    195.0840
  175   1 Pt  78       7.798926   13.404471   29.282933      10.0000    195.0840
  176   1 Pt  78      -6.191075   13.424471   29.082933      10.0000    195.0840
  177   1 Pt  78      -3.421075   13.444471   29.092933      10.0000    195.0840
  178   1 Pt  78      -0.701075   13.344471   29.282933      10.0000    195.0840
  179   1 Pt  78       2.068926   13.354470   29.252933      10.0000    195.0840
  180   1 Pt  78       4.958926   13.454471   29.332933      10.0000    195.0840
  181   1 Pt  78      -7.771075   14.204471   31.612933      10.0000    195.0840
  182   1 Pt  78      -4.961075   14.244470   31.472932      10.0000    195.0840
  183   1 Pt  78      -2.141074   14.274470   31.542933      10.0000    195.0840
  184   1 Pt  78       0.548926   14.244470   31.542933      10.0000    195.0840
  185   1 Pt  78       3.428926   14.134471   31.582933      10.0000    195.0840
  186   1 Pt  78       6.068925   14.184471   31.692933      10.0000    195.0840
  187   1 Pt  78       2.068926    2.034470   31.642933      10.0000    195.0840
  188   1 Pt  78       4.748926    2.074470   31.502933      10.0000    195.0840
  189   1 Pt  78       7.688926    2.114470   31.592933      10.0000    195.0840
  190   1 Pt  78      10.558926    1.914470   31.492933      10.0000    195.0840
  191   1 Pt  78      13.328927    2.044470   31.652933      10.0000    195.0840
  192   1 Pt  78      -0.651075    2.134470   31.572933      10.0000    195.0840
  193   1 Pt  78       3.468926    4.444471   31.602932      10.0000    195.0840
  194   1 Pt  78       6.288926    4.374470   31.482933      10.0000    195.0840
  195   1 Pt  78       9.098926    4.424470   31.532933      10.0000    195.0840
  196   1 Pt  78      11.838926    4.454470   31.502933      10.0000    195.0840
  197   1 Pt  78      -2.171075    4.564470   31.582933      10.0000    195.0840
  198   1 Pt  78       0.738926    4.544470   31.602932      10.0000    195.0840
  199   1 Pt  78       4.748926    6.944471   31.522933      10.0000    195.0840
  200   1 Pt  78       7.758926    6.804471   31.432933      10.0000    195.0840
  201   1 Pt  78      10.478926    6.864471   31.372933      10.0000    195.0840
  202   1 Pt  78      -3.631074    6.834470   31.532933      10.0000    195.0840
  203   1 Pt  78      -0.771075    6.904471   31.442933      10.0000    195.0840
  204   1 Pt  78       1.978925    6.974470   31.622933      10.0000    195.0840
  205   1 Pt  78       6.258925    9.354470   31.592933      10.0000    195.0840
  206   1 Pt  78       9.088926    9.404471   31.512933      10.0000    195.0840
  207   1 Pt  78      -4.931075    9.354470   31.602932      10.0000    195.0840
  208   1 Pt  78      -2.111074    9.334470   31.612933      10.0000    195.0840
  209   1 Pt  78       0.618926    9.254471   31.762933      10.0000    195.0840
  210   1 Pt  78       3.398926    9.324471   31.662933      10.0000    195.0840
  211   1 Pt  78       7.628926   11.824471   31.672933      10.0000    195.0840
  212   1 Pt  78      -6.341075   11.794470   31.412933      10.0000    195.0840
  213   1 Pt  78      -3.561075   11.824471   31.482933      10.0000    195.0840
  214   1 Pt  78      -0.711075   11.674470   31.602932      10.0000    195.0840
  215   1 Pt  78       2.058926   11.704471   31.782933      10.0000    195.0840
  216   1 Pt  78       4.798926   11.634471   31.592933      10.0000    195.0840




 SCF PARAMETERS         Density guess:                                   RESTART
                        --------------------------------------------------------
                        max_scf:                                             500
                        max_scf_history:                                       0
                        max_diis:                                              4
                        --------------------------------------------------------
                        eps_scf:                                        1.00E-06
                        eps_scf_history:                                0.00E+00
                        eps_diis:                                       1.00E-01
                        eps_eigval:                                     1.00E-05
                        --------------------------------------------------------
                        level_shift [a.u.]:                             0.000000
                        added MOs                                       500    0
                        --------------------------------------------------------
                        Mixing method:                            BROYDEN_MIXING
                                                charge density mixing in g-space
                        --------------------------------------------------------
                        Smear method:                                FERMI_DIRAC
                        Electronic temperature [K]:                        300.0
                        Electronic temperature [a.u.]:                  9.50E-04
                        Accuracy threshold:                             1.00E-10
                        --------------------------------------------------------
                        No outer SCF

 PW_GRID| Information for grid number                                          1
 PW_GRID| Grid distributed over                                    32 processors
 PW_GRID| Real space group dimensions                                    32    1
 PW_GRID| the grid is blocked:                                                NO
 PW_GRID| Cutoff [a.u.]                                                    200.0
 PW_GRID| spherical cutoff:                                                   NO
 PW_GRID|   Bounds   1           -105     104                Points:         210
 PW_GRID|   Bounds   2           -105     104                Points:         210
 PW_GRID|   Bounds   3           -315     314                Points:         630
 PW_GRID| Volume element (a.u.^3)  0.3081E-02     Volume (a.u.^3)     85609.9578
 PW_GRID| Grid span                                                    FULLSPACE
 PW_GRID|   Distribution                         Average         Max         Min
 PW_GRID|   G-Vectors                           868218.8      868350      868140
 PW_GRID|   G-Rays                                4134.4        4135        4134
 PW_GRID|   Real Space Points                   868218.8      926100      793800

 PW_GRID| Information for grid number                                          2
 PW_GRID| Number of the reference grid                                         1
 PW_GRID| Grid distributed over                                    32 processors
 PW_GRID| Real space group dimensions                                    32    1
 PW_GRID| the grid is blocked:                                                NO
 PW_GRID| Cutoff [a.u.]                                                     66.7
 PW_GRID| spherical cutoff:                                                   NO
 PW_GRID|   Bounds   1            -60      59                Points:         120
 PW_GRID|   Bounds   2            -60      59                Points:         120
 PW_GRID|   Bounds   3           -180     179                Points:         360
 PW_GRID| Volume element (a.u.^3)  0.1651E-01     Volume (a.u.^3)     85609.9578
 PW_GRID| Grid span                                                    FULLSPACE
 PW_GRID|   Distribution                         Average         Max         Min
 PW_GRID|   G-Vectors                           162000.0      162840      161280
 PW_GRID|   G-Rays                                1350.0        1357        1344
 PW_GRID|   Real Space Points                   162000.0      172800      129600

 PW_GRID| Information for grid number                                          3
 PW_GRID| Number of the reference grid                                         1
 PW_GRID| Grid distributed over                                    32 processors
 PW_GRID| Real space group dimensions                                    32    1
 PW_GRID| the grid is blocked:                                                NO
 PW_GRID| Cutoff [a.u.]                                                     22.2
 PW_GRID| spherical cutoff:                                                   NO
 PW_GRID|   Bounds   1            -35      34                Points:          70
 PW_GRID|   Bounds   2            -35      34                Points:          70
 PW_GRID|   Bounds   3           -105     104                Points:         210
 PW_GRID| Volume element (a.u.^3)  0.8320E-01     Volume (a.u.^3)     85609.9578
 PW_GRID| Grid span                                                    FULLSPACE
 PW_GRID|   Distribution                         Average         Max         Min
 PW_GRID|   G-Vectors                            32156.2       32340       31990
 PW_GRID|   G-Rays                                 459.4         462         457
 PW_GRID|   Real Space Points                    32156.2       44100       29400

 PW_GRID| Information for grid number                                          4
 PW_GRID| Number of the reference grid                                         1
 PW_GRID| Grid distributed over                                    32 processors
 PW_GRID| Real space group dimensions                                    32    1
 PW_GRID| the grid is blocked:                                                NO
 PW_GRID| Cutoff [a.u.]                                                      7.4
 PW_GRID| spherical cutoff:                                                   NO
 PW_GRID|   Bounds   1            -20      19                Points:          40
 PW_GRID|   Bounds   2            -20      19                Points:          40
 PW_GRID|   Bounds   3            -60      59                Points:         120
 PW_GRID| Volume element (a.u.^3)  0.4459         Volume (a.u.^3)     85609.9578
 PW_GRID| Grid span                                                    FULLSPACE
 PW_GRID|   Distribution                         Average         Max         Min
 PW_GRID|   G-Vectors                             6000.0        6120        5920
 PW_GRID|   G-Rays                                 150.0         153         148
 PW_GRID|   Real Space Points                     6000.0        9600        4800

 POISSON| Solver                                          IMPLICIT (GENERALIZED)
 POISSON| Boundary Condition                                PERIODIC & DIRICHLET
 POISSON| Maximum number of iterations                                        30
 POISSON| Convergence threshold                                         1.00E-08
 POISSON| Dielectric Constant                                              80.00
 POISSON| Relaxation parameter                                          1.00E+00

 RS_GRID| Information for grid number                                          1
 RS_GRID|   Bounds   1           -105     104                Points:         210
 RS_GRID|   Bounds   2           -105     104                Points:         210
 RS_GRID|   Bounds   3           -315     314                Points:         630
 RS_GRID| Real space distribution over                                 32 groups
 RS_GRID| Real space distribution along direction                              3
 RS_GRID| Border size                                                         54
 RS_GRID|   Distribution                         Average         Max         Min
 RS_GRID|   Planes                                 127.7         128         127

 RS_GRID| Information for grid number                                          2
 RS_GRID|   Bounds   1            -60      59                Points:         120
 RS_GRID|   Bounds   2            -60      59                Points:         120
 RS_GRID|   Bounds   3           -180     179                Points:         360
 RS_GRID| Real space distribution over                                 32 groups
 RS_GRID| Real space distribution along direction                              3
 RS_GRID| Border size                                                         36
 RS_GRID|   Distribution                         Average         Max         Min
 RS_GRID|   Planes                                  83.2          84          83

 RS_GRID| Information for grid number                                          3
 RS_GRID|   Bounds   1            -35      34                Points:          70
 RS_GRID|   Bounds   2            -35      34                Points:          70
 RS_GRID|   Bounds   3           -105     104                Points:         210
 RS_GRID| Real space fully replicated
 RS_GRID| Group size                                                           1

 RS_GRID| Information for grid number                                          4
 RS_GRID|   Bounds   1            -20      19                Points:          40
 RS_GRID|   Bounds   2            -20      19                Points:          40
 RS_GRID|   Bounds   3            -60      59                Points:         120
 RS_GRID| Real space fully replicated
 RS_GRID| Group size                                                           1

 Number of electrons:                                                       2160
 Number of occupied orbitals:                                               1080
 Number of molecular orbitals:                                              1580

 Number of orbital functions:                                               4320
 Number of independent orbital functions:                                   4320

 Extrapolation method: initial_guess


 SCF WAVEFUNCTION OPTIMIZATION

  Step     Update method      Time    Convergence         Total energy    Change
  ------------------------------------------------------------------------------

  POISSON| IMPLICIT (GENERALIZED) SOLVER ---------------------------------------
  POISSON| Preparing Dirichlet regions ...
  POISSON| Dirichlet region    1
  POISSON|     type : axis-aligned planar
  POISSON|     applied potential :   0.0000E+00  [Eh/e]
  POISSON| Dirichlet region    2
  POISSON|     type : axis-aligned planar
  POISSON|     applied potential :   0.0000E+00  [Eh/e]
  POISSON| ... Done. 
  ------------------------------------------------------------------------------

  POISSON|   iter        pres error      nabs error        E_hartree    delta E
  POISSON|      1        0.9187E-06      0.3304E-01    1992.2349208018  0.20E+04
  POISSON|      2        0.1287E-14      0.9187E-06    1992.2349208019  0.23E-10
  POISSON| Poisson solver converged in 2 iterations.
     1 NoMix/Diag. 0.30E+00   11.1     0.21677829     -5670.8340898288 -5.67E+03
  POISSON|   iter        pres error      nabs error        E_hartree    delta E
  POISSON|      1        0.2721E-04      0.3282E-01    1992.1337144031 -0.10E+00
  POISSON|      2        0.9273E-15      0.2721E-04    1992.1337144031  0.23E-10
  POISSON| Poisson solver converged in 2 iterations.
     2 Broy./Diag. 0.30E+00   13.2     0.21372628     -5670.9305686714 -9.65E-02
  POISSON|   iter        pres error      nabs error        E_hartree    delta E
  POISSON|      1        0.6667E-04      0.3858E-03    1992.3303557218  0.20E+00
  POISSON|      2        0.7386E-17      0.6667E-04    1992.3303557218  0.45E-12
  POISSON| Poisson solver converged in 2 iterations.
     3 Broy./Diag. 0.30E+00   13.3     0.16933078     -5675.9501277600 -5.02E+00
  POISSON|   iter        pres error      nabs error        E_hartree    delta E
  POISSON|      1        0.8129E-04      0.3284E-03    1992.3742041250  0.44E-01
  POISSON|      2        0.7935E-17      0.8129E-04    1992.3742041250  0.23E-12
  POISSON| Poisson solver converged in 2 iterations.
     4 Broy./Diag. 0.30E+00   13.3     0.12953247     -5673.0497897338  2.90E+00
  POISSON|   iter        pres error      nabs error        E_hartree    delta E
  POISSON|      1        0.4584E-04      0.1826E-03    1992.5037847616  0.13E+00
  POISSON|      2        0.4518E-17      0.4584E-04    1992.5037847616  0.16E-11
  POISSON| Poisson solver converged in 2 iterations.
     5 Broy./Diag. 0.30E+00   13.3     0.08559686     -5672.5772636848  4.73E-01
  POISSON|   iter        pres error      nabs error        E_hartree    delta E
  POISSON|      1        0.1728E-05      0.4030E-04    1992.6308477110  0.13E+00
  POISSON|      2        0.6734E-18      0.1728E-05    1992.6308477110  0.45E-12
  POISSON| Poisson solver converged in 2 iterations.
     6 Broy./Diag. 0.30E+00   13.4     0.03731742     -5672.8474144241 -2.70E-01
  POISSON|   iter        pres error      nabs error        E_hartree    delta E
  POISSON|      1        0.2954E-05      0.3530E-04    1992.7605514493  0.13E+00
  POISSON|      2        0.3344E-18      0.2954E-05    1992.7605514493 -0.23E-12
  POISSON| Poisson solver converged in 2 iterations.
     7 Broy./Diag. 0.30E+00   13.4     0.02979690     -5672.4084030682  4.39E-01
  POISSON|   iter        pres error      nabs error        E_hartree    delta E
  POISSON|      1        0.8186E-06      0.3284E-04    1992.8418845437  0.81E-01
  POISSON|      2        0.1081E-17      0.8186E-06    1992.8418845437 -0.45E-12
  POISSON| Poisson solver converged in 2 iterations.
     8 Broy./Diag. 0.30E+00   13.4     0.02149237     -5672.1113208884  2.97E-01
  POISSON|   iter        pres error      nabs error        E_hartree    delta E
  POISSON|      1        0.1045E-05      0.1065E-04    1992.8680905137  0.26E-01
  POISSON|      2        0.9769E-19      0.1045E-05    1992.8680905137 -0.23E-12
  POISSON| Poisson solver converged in 2 iterations.
     9 Broy./Diag. 0.30E+00   13.4     0.01024115     -5672.3626511672 -2.51E-01
  POISSON|   iter        pres error      nabs error        E_hartree    delta E
  POISSON|      1        0.5229E-06      0.5130E-05    1992.8827449432  0.15E-01
  POISSON|      2        0.9495E-19      0.5229E-06    1992.8827449432 -0.23E-12
  POISSON| Poisson solver converged in 2 iterations.
    10 Broy./Diag. 0.30E+00   13.5     0.00608653     -5672.2641946900  9.85E-02
  POISSON|   iter        pres error      nabs error        E_hartree    delta E
  POISSON|      1        0.1947E-06      0.5916E-05    1992.8928295916  0.10E-01
  POISSON|      2        0.1987E-18      0.1947E-06    1992.8928295916 -0.23E-12
  POISSON| Poisson solver converged in 2 iterations.
    11 Broy./Diag. 0.30E+00   13.6     0.00389657     -5672.2378458434  2.63E-02
  POISSON|   iter        pres error      nabs error        E_hartree    delta E
  POISSON|      1        0.5508E-07      0.4425E-05    1992.8994560784  0.66E-02
  POISSON|      2        0.1342E-18      0.5508E-07    1992.8994560784  0.00E+00
  POISSON| Poisson solver converged in 2 iterations.
    12 Broy./Diag. 0.30E+00   13.5     0.00288710     -5672.2538935633 -1.60E-02
  POISSON|   iter        pres error      nabs error        E_hartree    delta E
  POISSON|      1        0.2201E-06      0.3094E-05    1992.9049766975  0.55E-02
  POISSON|      2        0.6521E-19      0.2201E-06    1992.9049766975  0.23E-12
  POISSON| Poisson solver converged in 2 iterations.
    13 Broy./Diag. 0.30E+00   13.5     0.00120331     -5672.2597144876 -5.82E-03
  POISSON|   iter        pres error      nabs error        E_hartree    delta E
  POISSON|      1        0.1692E-06      0.1594E-05    1992.9059986759  0.10E-02
  POISSON|      2        0.4749E-19      0.1692E-06    1992.9059986759  0.00E+00
  POISSON| Poisson solver converged in 2 iterations.
    14 Broy./Diag. 0.30E+00   13.5     0.00066407     -5672.2513586959  8.36E-03
  POISSON|   iter        pres error      nabs error        E_hartree    delta E
  POISSON|      1        0.1256E-06      0.2354E-05    1992.9068160275  0.82E-03
  POISSON|      2        0.8478E-19      0.1256E-06    1992.9068160275  0.23E-12
  POISSON| Poisson solver converged in 2 iterations.
    15 Broy./Diag. 0.30E+00   13.5     0.00086038     -5672.2504139541  9.45E-04
  POISSON|   iter        pres error      nabs error        E_hartree    delta E
  POISSON|      1        0.5483E-06      0.2298E-05    1992.9073860885  0.57E-03
  POISSON|      2        0.7739E-19      0.5483E-06    1992.9073860885 -0.23E-12
  POISSON| Poisson solver converged in 2 iterations.
    16 Broy./Diag. 0.30E+00   13.6     0.00099772     -5672.2574519214 -7.04E-03
  POISSON|   iter        pres error      nabs error        E_hartree    delta E
  POISSON|      1        0.1698E-06      0.2099E-05    1992.9077969224  0.41E-03
  POISSON|      2        0.5326E-19      0.1698E-06    1992.9077969224 -0.23E-12
  POISSON| Poisson solver converged in 2 iterations.
    17 Broy./Diag. 0.30E+00   13.6     0.00081532     -5672.2614691090 -4.02E-03
  POISSON|   iter        pres error      nabs error        E_hartree    delta E
  POISSON|      1        0.1254E-06      0.1207E-05    1992.9082668403  0.47E-03
  POISSON|      2        0.4773E-19      0.1254E-06    1992.9082668403 -0.23E-12
  POISSON| Poisson solver converged in 2 iterations.
    18 Broy./Diag. 0.30E+00   13.5     0.00036288     -5672.2584895180  2.98E-03
  POISSON|   iter        pres error      nabs error        E_hartree    delta E
  POISSON|      1        0.7244E-07      0.1069E-05    1992.9085489801  0.28E-03
  POISSON|      2        0.5087E-19      0.7244E-07    1992.9085489801  0.00E+00
  POISSON| Poisson solver converged in 2 iterations.
    19 Broy./Diag. 0.30E+00   13.5     0.00019606     -5672.2593870649 -8.98E-04
  POISSON|   iter        pres error      nabs error        E_hartree    delta E
  POISSON|      1        0.9312E-07      0.9860E-06    1992.9090571193  0.51E-03
  POISSON|      2        0.4317E-19      0.9312E-07    1992.9090571193 -0.23E-12
  POISSON| Poisson solver converged in 2 iterations.
    20 Broy./Diag. 0.30E+00   13.5     0.00014830     -5672.2629279147 -3.54E-03
  POISSON|   iter        pres error      nabs error        E_hartree    delta E
  POISSON|      1        0.8978E-07      0.1134E-05    1992.9096302482  0.57E-03
  POISSON|      2        0.5003E-19      0.8978E-07    1992.9096302482  0.23E-12
  POISSON| Poisson solver converged in 2 iterations.
    21 Broy./Diag. 0.30E+00   13.6     0.00024056     -5672.2623714411  5.56E-04
  POISSON|   iter        pres error      nabs error        E_hartree    delta E
  POISSON|      1        0.8446E-07      0.1111E-05    1992.9101617163  0.53E-03
  POISSON|      2        0.5216E-19      0.8446E-07    1992.9101617163  0.23E-12
  POISSON| Poisson solver converged in 2 iterations.
    22 Broy./Diag. 0.30E+00   13.5     0.00018827     -5672.2622261724  1.45E-04
  POISSON|   iter        pres error      nabs error        E_hartree    delta E
  POISSON|      1        0.8628E-07      0.1157E-05    1992.9107164612  0.55E-03
  POISSON|      2        0.5425E-19      0.8628E-07    1992.9107164612  0.23E-12
  POISSON| Poisson solver converged in 2 iterations.
    23 Broy./Diag. 0.30E+00   13.5     0.00013883     -5672.2631056469 -8.79E-04
  POISSON|   iter        pres error      nabs error        E_hartree    delta E
  POISSON|      1        0.6653E-07      0.8695E-06    1992.9111587703  0.44E-03
  POISSON|      2        0.3949E-19      0.6653E-07    1992.9111587703 -0.23E-12
  POISSON| Poisson solver converged in 2 iterations.
    24 Broy./Diag. 0.30E+00   13.5     0.00009944     -5672.2644078165 -1.30E-03
  POISSON|   iter        pres error      nabs error        E_hartree    delta E
  POISSON|      1        0.7131E-07      0.7345E-06    1992.9115021189  0.34E-03
  POISSON|      2        0.3639E-19      0.7131E-07    1992.9115021189  0.00E+00
  POISSON| Poisson solver converged in 2 iterations.
    25 Broy./Diag. 0.30E+00   13.5     0.00008066     -5672.2641013412  3.06E-04
  POISSON|   iter        pres error      nabs error        E_hartree    delta E
  POISSON|      1        0.7162E-07      0.3887E-06    1992.9115742853  0.72E-04
  POISSON|      2        0.6720E-20      0.7162E-07    1992.9115742853  0.23E-12
  POISSON| Poisson solver converged in 2 iterations.
    26 Broy./Diag. 0.30E+00   13.5     0.00017319     -5672.2638002979  3.01E-04
  POISSON|   iter        pres error      nabs error        E_hartree    delta E
  POISSON|      1        0.1093E-06      0.6935E-06    1992.9117326256  0.16E-03
  POISSON|      2        0.3405E-19      0.1093E-06    1992.9117326256 -0.23E-12
  POISSON| Poisson solver converged in 2 iterations.
    27 Broy./Diag. 0.30E+00   13.6     0.00014285     -5672.2639768957 -1.77E-04
  POISSON|   iter        pres error      nabs error        E_hartree    delta E
  POISSON|      1        0.2609E-07      0.5984E-06    1992.9119140362  0.18E-03
  POISSON|      2        0.2989E-19      0.2609E-07    1992.9119140362 -0.23E-12
  POISSON| Poisson solver converged in 2 iterations.
    28 Broy./Diag. 0.30E+00   13.5     0.00005061     -5672.2652254847 -1.25E-03
  POISSON|   iter        pres error      nabs error        E_hartree    delta E
  POISSON|      1        0.2073E-07      0.3129E-06    1992.9119899195  0.76E-04
  POISSON|      2        0.1407E-19      0.2073E-07    1992.9119899195 -0.45E-12
  POISSON| Poisson solver converged in 2 iterations.
    29 Broy./Diag. 0.30E+00   13.6     0.00005352     -5672.2651667295  5.88E-05
  POISSON|   iter        pres error      nabs error        E_hartree    delta E
  POISSON|      1        0.2558E-07      0.5231E-06    1992.9120312896  0.41E-04
  POISSON|      2        0.2733E-19      0.2558E-07    1992.9120312896  0.23E-12
  POISSON| Poisson solver converged in 2 iterations.
    30 Broy./Diag. 0.30E+00   13.5     0.00004918     -5672.2648365106  3.30E-04
  POISSON|   iter        pres error      nabs error        E_hartree    delta E
  POISSON|      1        0.2153E-07      0.4048E-06    1992.9120681115  0.37E-04
  POISSON|      2        0.2099E-19      0.2153E-07    1992.9120681115  0.00E+00
  POISSON| Poisson solver converged in 2 iterations.
    31 Broy./Diag. 0.30E+00   13.5     0.00004889     -5672.2657248163 -8.88E-04
  POISSON|   iter        pres error      nabs error        E_hartree    delta E
  POISSON|      1        0.1807E-07      0.3430E-06    1992.9121078009  0.40E-04
  POISSON|      2        0.1699E-19      0.1807E-07    1992.9121078009  0.00E+00
  POISSON| Poisson solver converged in 2 iterations.
    32 Broy./Diag. 0.30E+00   13.5     0.00003765     -5672.2659144979 -1.90E-04
  POISSON|   iter        pres error      nabs error        E_hartree    delta E
  POISSON|      1        0.9300E-08      0.2209E-06    1992.9121174943  0.97E-05
  POISSON| Poisson solver converged in 1 iteration. 
    33 Broy./Diag. 0.30E+00   12.1     0.00003785     -5672.2659319008 -1.74E-05
  POISSON|   iter        pres error      nabs error        E_hartree    delta E
  POISSON|      1        0.8370E-08      0.2338E-06    1992.9121390313  0.22E-04
  POISSON| Poisson solver converged in 1 iteration. 
    34 Broy./Diag. 0.30E+00   12.2     0.00002436     -5672.2658628270  6.91E-05
  POISSON|   iter        pres error      nabs error        E_hartree    delta E
  POISSON|      1        0.6044E-08      0.2126E-06    1992.9121763410  0.37E-04
  POISSON| Poisson solver converged in 1 iteration. 
    35 Broy./Diag. 0.30E+00   12.1     0.00002323     -5672.2660938731 -2.31E-04
  POISSON|   iter        pres error      nabs error        E_hartree    delta E
  POISSON|      1        0.2117E-07      0.1031E-06    1992.9121930537  0.17E-04
  POISSON|      2        0.4247E-20      0.2117E-07    1992.9121930537 -0.23E-12
  POISSON| Poisson solver converged in 2 iterations.
    36 Broy./Diag. 0.30E+00   13.5     0.00004823     -5672.2662744562 -1.81E-04
  POISSON|   iter        pres error      nabs error        E_hartree    delta E
  POISSON|      1        0.1243E-07      0.1424E-06    1992.9122355654  0.43E-04
  POISSON|      2        0.5692E-20      0.1243E-07    1992.9122355654  0.00E+00
  POISSON| Poisson solver converged in 2 iterations.
    37 Broy./Diag. 0.30E+00   13.5     0.00003659     -5672.2660643346  2.10E-04
  POISSON|   iter        pres error      nabs error        E_hartree    delta E
  POISSON|      1        0.1306E-07      0.1642E-06    1992.9122797020  0.44E-04
  POISSON|      2        0.9066E-20      0.1306E-07    1992.9122797020  0.00E+00
  POISSON| Poisson solver converged in 2 iterations.
    38 Broy./Diag. 0.30E+00   13.5     0.00001672     -5672.2658331589  2.31E-04
  POISSON|   iter        pres error      nabs error        E_hartree    delta E
  POISSON|      1        0.4207E-08      0.1178E-06    1992.9123132377  0.34E-04
  POISSON| Poisson solver converged in 1 iteration. 
    39 Broy./Diag. 0.30E+00   12.1     0.00001857     -5672.2660305920 -1.97E-04
  POISSON|   iter        pres error      nabs error        E_hartree    delta E
  POISSON|      1        0.6324E-08      0.1318E-06    1992.9123708587  0.58E-04
  POISSON| Poisson solver converged in 1 iteration. 
    40 Broy./Diag. 0.30E+00   12.1     0.00001577     -5672.2660967367 -6.61E-05
  POISSON|   iter        pres error      nabs error        E_hartree    delta E
  POISSON|      1        0.5703E-08      0.1424E-06    1992.9124089014  0.38E-04
  POISSON| Poisson solver converged in 1 iteration. 
    41 Broy./Diag. 0.30E+00   12.1     0.00001235     -5672.2658691983  2.28E-04
  POISSON|   iter        pres error      nabs error        E_hartree    delta E
  POISSON|      1        0.5674E-08      0.1249E-06    1992.9124349847  0.26E-04
  POISSON| Poisson solver converged in 1 iteration. 
    42 Broy./Diag. 0.30E+00   12.1     0.00000911     -5672.2659531703 -8.40E-05
  POISSON|   iter        pres error      nabs error        E_hartree    delta E
  POISSON|      1        0.5449E-08      0.1219E-06    1992.9124556474  0.21E-04
  POISSON| Poisson solver converged in 1 iteration. 
    43 Broy./Diag. 0.30E+00   12.3     0.00001271     -5672.2660289661 -7.58E-05
  POISSON|   iter        pres error      nabs error        E_hartree    delta E
  POISSON|      1        0.5672E-08      0.1032E-06    1992.9124690490  0.13E-04
  POISSON| Poisson solver converged in 1 iteration. 
    44 Broy./Diag. 0.30E+00   12.1     0.00001057     -5672.2661163415 -8.74E-05
  POISSON|   iter        pres error      nabs error        E_hartree    delta E
  POISSON|      1        0.4884E-08      0.9044E-07    1992.9124744588  0.54E-05
  POISSON| Poisson solver converged in 1 iteration. 
    45 Broy./Diag. 0.30E+00   12.1     0.00000952     -5672.2660743362  4.20E-05
  POISSON|   iter        pres error      nabs error        E_hartree    delta E
  POISSON|      1        0.5697E-09      0.8761E-07    1992.9124787055  0.42E-05
  POISSON| Poisson solver converged in 1 iteration. 
    46 Broy./Diag. 0.30E+00   12.5     0.00001497     -5672.2660921951 -1.79E-05
  POISSON|   iter        pres error      nabs error        E_hartree    delta E
  POISSON|      1        0.7331E-08      0.7161E-07    1992.9124789204  0.21E-06
  POISSON| Poisson solver converged in 1 iteration. 
    47 Broy./Diag. 0.30E+00   12.1     0.00000946     -5672.2662148218 -1.23E-04
  POISSON|   iter        pres error      nabs error        E_hartree    delta E
  POISSON|      1        0.9841E-09      0.4682E-07    1992.9124804978  0.16E-05
  POISSON| Poisson solver converged in 1 iteration. 
    48 Broy./Diag. 0.30E+00   12.1     0.00000826     -5672.2662652028 -5.04E-05
  POISSON|   iter        pres error      nabs error        E_hartree    delta E
  POISSON|      1        0.3004E-08      0.6556E-07    1992.9124834437  0.29E-05
  POISSON| Poisson solver converged in 1 iteration. 
    49 Broy./Diag. 0.30E+00   12.2     0.00000700     -5672.2661894726  7.57E-05
  POISSON|   iter        pres error      nabs error        E_hartree    delta E
  POISSON|      1        0.2311E-08      0.6751E-07    1992.9124841180  0.67E-06
  POISSON| Poisson solver converged in 1 iteration. 
    50 Broy./Diag. 0.30E+00   12.1     0.00000582     -5672.2662006685 -1.12E-05
  POISSON|   iter        pres error      nabs error        E_hartree    delta E
  POISSON|      1        0.1664E-08      0.4505E-07    1992.9124899093  0.58E-05
  POISSON| Poisson solver converged in 1 iteration. 
    51 Broy./Diag. 0.30E+00   12.1     0.00000454     -5672.2662961192 -9.55E-05
  POISSON|   iter        pres error      nabs error        E_hartree    delta E
  POISSON|      1        0.8977E-09      0.3409E-07    1992.9124962766  0.64E-05
  POISSON| Poisson solver converged in 1 iteration. 
    52 Broy./Diag. 0.30E+00   12.1     0.00000363     -5672.2662530022  4.31E-05
  POISSON|   iter        pres error      nabs error        E_hartree    delta E
  POISSON|      1        0.1595E-08      0.4993E-07    1992.9125072986  0.11E-04
  POISSON| Poisson solver converged in 1 iteration. 
    53 Broy./Diag. 0.30E+00   12.2     0.00000362     -5672.2662345946  1.84E-05
  POISSON|   iter        pres error      nabs error        E_hartree    delta E
  POISSON|      1        0.5329E-09      0.3668E-07    1992.9125164215  0.91E-05
  POISSON| Poisson solver converged in 1 iteration. 
    54 Broy./Diag. 0.30E+00   12.1     0.00000381     -5672.2662244857  1.01E-05
  POISSON|   iter        pres error      nabs error        E_hartree    delta E
  POISSON|      1        0.2034E-09      0.2193E-07    1992.9125241072  0.77E-05
  POISSON| Poisson solver converged in 1 iteration. 
    55 Broy./Diag. 0.30E+00   12.1     0.00000366     -5672.2662548076 -3.03E-05
  POISSON|   iter        pres error      nabs error        E_hartree    delta E
  POISSON|      1        0.1893E-08      0.3036E-07    1992.9125319293  0.78E-05
  POISSON| Poisson solver converged in 1 iteration. 
    56 Broy./Diag. 0.30E+00   12.2     0.00000410     -5672.2662486120  6.20E-06
  POISSON|   iter        pres error      nabs error        E_hartree    delta E
  POISSON|      1        0.1265E-08      0.1538E-07    1992.9125354031  0.35E-05
  POISSON| Poisson solver converged in 1 iteration. 
    57 Broy./Diag. 0.30E+00   12.1     0.00000357     -5672.2662227028  2.59E-05
  POISSON|   iter        pres error      nabs error        E_hartree    delta E
  POISSON|      1        0.1368E-08      0.1656E-07    1992.9125372907  0.19E-05
  POISSON| Poisson solver converged in 1 iteration. 
    58 Broy./Diag. 0.30E+00   12.2     0.00000303     -5672.2662269086 -4.21E-06
  POISSON|   iter        pres error      nabs error        E_hartree    delta E
  POISSON|      1        0.1123E-09      0.1889E-07    1992.9125395959  0.23E-05
  POISSON| Poisson solver converged in 1 iteration. 
    59 Broy./Diag. 0.30E+00   12.1     0.00000194     -5672.2662600598 -3.32E-05
  POISSON|   iter        pres error      nabs error        E_hartree    delta E
  POISSON|      1        0.2976E-09      0.1536E-07    1992.9125416096  0.20E-05
  POISSON| Poisson solver converged in 1 iteration. 
    60 Broy./Diag. 0.30E+00   12.1     0.00000187     -5672.2662590456  1.01E-06
  POISSON|   iter        pres error      nabs error        E_hartree    delta E
  POISSON|      1        0.3901E-09      0.2126E-07    1992.9125415369 -0.73E-07
  POISSON| Poisson solver converged in 1 iteration. 
    61 Broy./Diag. 0.30E+00   12.1     0.00000151     -5672.2662419615  1.71E-05
  POISSON|   iter        pres error      nabs error        E_hartree    delta E
  POISSON|      1        0.3761E-09      0.1670E-07    1992.9125411381 -0.40E-06
  POISSON| Poisson solver converged in 1 iteration. 
    62 Broy./Diag. 0.30E+00   12.1     0.00000150     -5672.2662718085 -2.98E-05
  POISSON|   iter        pres error      nabs error        E_hartree    delta E
  POISSON|      1        0.3166E-09      0.1811E-07    1992.9125408329 -0.31E-06
  POISSON| Poisson solver converged in 1 iteration. 
    63 Broy./Diag. 0.30E+00   12.1     0.00000116     -5672.2662782371 -6.43E-06
  POISSON|   iter        pres error      nabs error        E_hartree    delta E
  POISSON|      1        0.4605E-09      0.1588E-07    1992.9125404654 -0.37E-06
  POISSON| Poisson solver converged in 1 iteration. 
    64 Broy./Diag. 0.30E+00   12.1     0.00000138     -5672.2662816962 -3.46E-06
  POISSON|   iter        pres error      nabs error        E_hartree    delta E
  POISSON|      1        0.2834E-09      0.1387E-07    1992.9125400150 -0.45E-06
  POISSON| Poisson solver converged in 1 iteration. 
    65 Broy./Diag. 0.30E+00   12.1     0.00000125     -5672.2662715435  1.02E-05
  POISSON|   iter        pres error      nabs error        E_hartree    delta E
  POISSON|      1        0.6604E-10      0.1207E-07    1992.9125400953  0.80E-07
  POISSON| Poisson solver converged in 1 iteration. 
    66 Broy./Diag. 0.30E+00   12.2     0.00000114     -5672.2662761532 -4.61E-06
  POISSON|   iter        pres error      nabs error        E_hartree    delta E
  POISSON|      1        0.7671E-09      0.6015E-08    1992.9125403714  0.28E-06
  POISSON| Poisson solver converged in 1 iteration. 
    67 Broy./Diag. 0.30E+00   12.1     0.00000165     -5672.2662853898 -9.24E-06
  POISSON|   iter        pres error      nabs error        E_hartree    delta E
  POISSON|      1        0.3199E-09      0.1003E-07    1992.9125416365  0.13E-05
  POISSON| Poisson solver converged in 1 iteration. 
    68 Broy./Diag. 0.30E+00   12.1     0.00000123     -5672.2662787550  6.63E-06
  POISSON|   iter        pres error      nabs error        E_hartree    delta E
  POISSON|      1        0.3147E-09      0.8159E-08    1992.9125429064  0.13E-05
  POISSON| Poisson solver converged in 1 iteration. 
    69 Broy./Diag. 0.30E+00   12.2     0.00000089     -5672.2662680676  1.07E-05

  *** SCF run converged in    69 steps ***


  Electronic density on regular grids:      -2159.9999999992        0.0000000008
  Core density on regular grids:             2159.9999999995       -0.0000000005
  Total charge density on r-space grids:        0.0000000003
  Total charge density g-space grids:           0.0000000003

  Overlap energy of the core charge distribution:               0.00003284747741
  Self energy of the core charge distribution:              -9891.63555570741482
  Core Hamiltonian energy:                                   3202.41721449688248
  Hartree energy:                                            1992.91254290638472
[...]
    191      1      Pt         -0.00034599     0.00354610    -0.00566553
    192      1      Pt         -0.00875420    -0.00167555     0.00808363
    193      1      Pt         -0.00022989     0.00871342    -0.01096739
    194      1      Pt         -0.00805606     0.01679991     0.00415087
    195      1      Pt         -0.00219255    -0.00148640    -0.00052883
    196      1      Pt          0.01073500    -0.00859127     0.00713633
    197      1      Pt          0.00739218    -0.01390066    -0.00632113
    198      1      Pt         -0.01160263    -0.00661284    -0.00586653
    199      1      Pt          0.01230782    -0.00237477     0.00166292
    200      1      Pt         -0.01066753     0.02120804     0.02064122
    201      1      Pt          0.01191525     0.00855949     0.02398159
    202      1      Pt          0.00499991     0.01649047    -0.00535887
    203      1      Pt         -0.00216998     0.00246610     0.00079791
    204      1      Pt          0.01217725    -0.00818207    -0.00971895
    205      1      Pt          0.00697196    -0.01100619    -0.00619733
    206      1      Pt          0.00273533    -0.00229679     0.00054861
    207      1      Pt          0.00155035     0.00170348    -0.00335217
    208      1      Pt         -0.00905367    -0.00153134    -0.00538290
    209      1      Pt         -0.00206849     0.01378465    -0.01176545
    210      1      Pt          0.00066232    -0.00643808    -0.00297257
    211      1      Pt          0.00333664    -0.00210878    -0.00902702
    212      1      Pt         -0.00127409     0.00385573     0.01399855
    213      1      Pt          0.00532239    -0.00293707     0.00117677
    214      1      Pt         -0.00401068     0.01176899     0.00809105
    215      1      Pt         -0.00622984     0.00464754    -0.01064115
    216      1      Pt          0.00453294     0.02159228     0.02025614
 SUM OF ATOMIC FORCES           0.00000544    -0.00001709    -0.00003266     0.00003727

 -------------------------------------------------------------------------------
 -                                                                             -
 -                                DBCSR STATISTICS                             -
 -                                                                             -
 -------------------------------------------------------------------------------
 COUNTER                                    TOTAL       BLAS       SMM       ACC
 flops    20 x    12 x    20            447897600       0.0%    100.0%      0.0%
 flops    20 x    32 x    20          58525286400       0.0%    100.0%      0.0%
 flops    20 x    20 x   204         271557619200       0.0%    100.0%      0.0%
 flops    20 x    20 x   224         298180915200       0.0%    100.0%      0.0%
 flops    20 x    20 x   192        1533501849600       0.0%    100.0%      0.0%
 flops inhomo. stacks                           0       0.0%      0.0%      0.0%
 flops total                         2.162214E+12       0.0%    100.0%      0.0%
 flops max/rank                     69.391053E+09       0.0%    100.0%      0.0%
 matmuls inhomo. stacks                         0       0.0%      0.0%      0.0%
 matmuls total                           15644448       0.0%    100.0%      0.0%
 number of processed stacks                 20608       0.0%    100.0%      0.0%
 average stack size                                     0.0     759.1       0.0
 marketing flops                     3.080452E+12
 -------------------------------------------------------------------------------
 # multiplications                             72
 max memory usage/rank               1.863471E+09
 # max total images/rank                        2
 # max 3D layers                                1
 # MPI messages exchanged                   29952
 MPI messages size (bytes):
  total size                        39.978316E+09
  min size                         829.440000E+03
  max size                           4.665600E+06
  average size                       1.334746E+06
 MPI breakdown and total messages size (bytes):
             size <=      128                   0                        0
       128 < size <=     8192                   0                        0
      8192 < size <=    32768                   0                        0
     32768 < size <=   131072                   0                        0
    131072 < size <=  4194304               29728              38933222400
   4194304 < size <= 16777216                 224               1045094400
  16777216 < size                               0                        0
 -------------------------------------------------------------------------------

 *** WARNING in dbcsr_mm.F:290 :: Using a non-square number of MPI ranks ***
 *** might lead to poor performance. Used ranks: 32 Suggested: 36 64     ***

 -------------------------------------------------------------------------------
 -                                                                             -
 -                      DBCSR MESSAGE PASSING PERFORMANCE                      -
 -                                                                             -
 -------------------------------------------------------------------------------
 ROUTINE             CALLS      AVE VOLUME [Bytes]
 MP_Bcast                6                     12.
 MP_Allreduce          527                      9.
 MP_Alltoall          1997                1276264.
 MP_ISend             2304                 577582.
 MP_IRecv             2304                 560569.
 -------------------------------------------------------------------------------

 -------------------------------------------------------------------------------
 -                                                                             -
 -                                DBM STATISTICS                               -
 -                                                                             -
 -------------------------------------------------------------------------------
    M  x    N  x    K                                          COUNT     PERCENT
 -------------------------------------------------------------------------------

 -------------------------------------------------------------------------------
 -                                                                             -
 -                                GRID STATISTICS                              -
 -                                                                             -
 -------------------------------------------------------------------------------
 LP    KERNEL             BACKEND                              COUNT     PERCENT
 4     collocate general  REF                               23876160      49.97%
 4     integrate general  REF                               23535072      49.26%
 5     integrate general  REF                                 341088       0.71%
 0     collocate general  REF                                  13824       0.03%
 0     integrate general  REF                                   6912       0.01%
 1     integrate general  REF                                   6912       0.01%
 -------------------------------------------------------------------------------

 MEMORY| Estimated peak process memory [MiB]                                2181

 -------------------------------------------------------------------------------
 ----                             MULTIGRID INFO                            ----
 -------------------------------------------------------------------------------
 count for grid        1:          17578          cutoff [a.u.]          200.00
 count for grid        2:         177876          cutoff [a.u.]           66.67
 count for grid        3:         109859          cutoff [a.u.]           22.22
 count for grid        4:         155412          cutoff [a.u.]            7.41
 total gridlevel count  :         460725

 -------------------------------------------------------------------------------
 -                                                                             -
 -                         MESSAGE PASSING PERFORMANCE                         -
 -                                                                             -
 -------------------------------------------------------------------------------

 ROUTINE             CALLS      AVE VOLUME [Bytes]
 MP_Group                4
 MP_Bcast             1782                 163420.
 MP_Allreduce         1754                   1444.
 MP_Sync                75
 MP_Alltoall          3459               49474628.
 MP_SendRecv           124                  14976.
 MP_ISendRecv         8680                 214800.
 MP_Wait             21028
 MP_comm_split           1
 MP_ISend            11072                 714376.
 MP_IRecv            11072                 714376.
 MP_Recv               192                1105920.
 MP_Write_All            3                4213860.
 -------------------------------------------------------------------------------


 -------------------------------------------------------------------------------
 -                                                                             -
 -                           R E F E R E N C E S                               -
 -                                                                             -
 -------------------------------------------------------------------------------
 
 CP2K version 2022.1, the CP2K developers group (2022).
 CP2K is freely available from https://www.cp2k.org/ .

 Kuehne,Thomas D.; Iannuzzi,Marcella; Del Ben,Mauro;
 Rybkin,Vladimir V.; Seewald,Patrick; Stein,Frederick; Laino,Teodoro;
 Khaliullin,Rustam Z.; Schuett,Ole; Schiffmann,Florian; Golze,Dorothea;
 Wilhelm,Jan; Chulkov,Sergey; Bani-Hashemian,Mohammad Hossein;
 Weber,Valery; Borstnik,Urban; Taillefumier,Mathieu;
 Jakobovits,Alice Shoshana; Lazzaro,Alfio; Pabst,Hans; Mueller,Tiziano;
 Schade,Robert; Guidon,Manuel; Andermatt,Samuel; Holmberg,Nico;
 Schenter,Gregory K.; Hehn,Anna; Bussy,Augustin; Belleflamme,Fabian;
 Tabacchi,Gloria; Gloess,Andreas; Lass,Michael; Bethune,Iain;
 Mundy,Christopher J.; Plessl,Christian; Watkins,Matt;
 VandeVondele,Joost; Krack,Matthias; Hutter,Juerg. 
 The Journal of Chemical Physics, 152 (19), (2020). 
 CP2K: An electronic structure and molecular dynamics software package -
 Quickstep: Efficient and accurate electronic structure calculations.
 https://doi.org/10.1063/5.0007045

 Goerigk, Lars; Hansen, Andreas; Bauer, Christoph; Ehrlich, Stephan;
 Najibi, Asim; Grimme, Stefan. , 19 (48), (2017). 
 A look at the density functional theory zoo with the advanced GMTKN55 database
 for general main group thermochemistry, kinetics and noncovalent interactions.
 https://doi.org/10.1039/C7CP04913G

 Bani-Hashemian, MH; Bruck, S; Luisier, M; VandeVondele, J. 
 JOURNAL OF CHEMICAL PHYSICS, 144 (4), 044113 (2016). 
 A generalized Poisson solver for first-principles device simulations.
 https://doi.org/10.1063/1.4940796

 Schuett, Ole; Messmer, Peter; Hutter, Juerg; VandeVondele, Joost. 
 Electronic Structure Calculations on Graphics Processing Units, John
 Wiley & Sons, Ltd, 173-190 (2016). 
 GPU-Accelerated Sparse Matrix-Matrix Multiplication for
 Linear Scaling Density Functional Theory.
 https://doi.org/10.1002/9781118670712.ch8

 Heinecke, A; Henry, G; Hutchinson, M; Pabst, H. 
 Proceedings of Intl. Supercomputing Conference, 981-991 (2016). 
 LIBXSMM: Accelerating Small Matrix Multiplications
 by Runtime Code Generation.
 https://doi.org/10.1109/SC.2016.83

 Borstnik, U; VandeVondele, J; Weber, V; Hutter, J. 
 PARALLEL COMPUTING, 40 (5-6), 47-58 (2014). 
 Sparse matrix multiplication: The distributed block-compressed sparse
 row library.
 https://doi.org/10.1016/j.parco.2014.03.012

 Hutter, J; Iannuzzi, M; Schiffmann, F; VandeVondele, J. 
 WIREs Comput Mol Sci., 4 (1), 15-25 (2014). 
 CP2K: atomistic simulations of condensed matter systems.
 https://doi.org/10.1002/wcms.1159

 Marek, A; Blum, V; Johanni, R; Havu, V; Lang, B; Auckenthaler, T;
 Heinecke, A; Bungartz, H; Lederer, H. 
 Journal of Physics: Condensed Matter, 26 (21), (2014). 
 The ELPA library: scalable parallel eigenvalue solutions for
 electronic structure
 theory and computational science.
 https://doi.org/10.1088/0953-8984/26/21/213201

 Grimme, S; Ehrlich, S; Goerigk, L. 
 JOURNAL OF COMPUTATIONAL CHEMISTRY, 32, 1456 (2011). 
 Effect of the damping function in dispersion corrected density functional theory.
 https://doi.org/10.1002/jcc.21759

 Grimme, S; Antony, J; Ehrlich, S; Krieg, H. 
 JOURNAL OF CHEMICAL PHYSICS, 132 (15), 154104 (2010). 
 A consistent and accurate ab initio parametrization of density
 functional dispersion correction (DFT-D) for the 94 elements H-Pu.
 https://doi.org/10.1063/1.3382344

 VandeVondele, J; Hutter, J. 
 JOURNAL OF CHEMICAL PHYSICS, 127 (11), 114105 (2007). 
 Gaussian basis sets for accurate calculations on molecular systems in
 gas and condensed phases.
 https://doi.org/10.1063/1.2770708

 Krack, M. 
 THEORETICAL CHEMISTRY ACCOUNTS, 114 (1-3), 145-152 (2005). 
 Pseudopotentials for H to Kr optimized for gradient-corrected
 exchange-correlation functionals.
 https://doi.org/10.1007/s00214-005-0655-y

 VandeVondele, J; Krack, M; Mohamed, F; Parrinello, M; Chassaing, T;
 Hutter, J. COMPUTER PHYSICS COMMUNICATIONS, 167 (2), 103-128 (2005). 
 QUICKSTEP: Fast and accurate density functional calculations using a
 mixed Gaussian and plane waves approach.
 https://doi.org/10.1016/j.cpc.2004.12.014

 Frigo, M; Johnson, SG. 
 PROCEEDINGS OF THE IEEE, 93 (2), 216-231 (2005). 
 The design and implementation of FFTW3.
 https://doi.org/10.1109/JPROC.2004.840301

 Hartwigsen, C; Goedecker, S; Hutter, J. 
 PHYSICAL REVIEW B, 58 (7), 3641-3662 (1998). 
 Relativistic separable dual-space Gaussian pseudopotentials from H to Rn.
 https://doi.org/10.1103/PhysRevB.58.3641

 Lippert, G; Hutter, J; Parrinello, M. 
 MOLECULAR PHYSICS, 92 (3), 477-487 (1997). 
 A hybrid Gaussian and plane wave density functional scheme.
 https://doi.org/10.1080/002689797170220

 Perdew, JP; Burke, K; Ernzerhof, M. 
 PHYSICAL REVIEW LETTERS, 77 (18), 3865-3868 (1996). 
 Generalized gradient approximation made simple.
 https://doi.org/10.1103/PhysRevLett.77.3865

 Goedecker, S; Teter, M; Hutter, J. 
 PHYSICAL REVIEW B, 54 (3), 1703-1710 (1996). 
 Separable dual-space Gaussian pseudopotentials.
 https://doi.org/10.1103/PhysRevB.54.1703


 -------------------------------------------------------------------------------
 -                                                                             -
 -                                T I M I N G                                  -
 -                                                                             -
 -------------------------------------------------------------------------------
 SUBROUTINE                       CALLS  ASD         SELF TIME        TOTAL TIME
                                MAXIMUM       AVERAGE  MAXIMUM  AVERAGE  MAXIMUM
 CP2K                                 1  1.0    0.023    0.046  909.956  909.958
 qs_forces                            1  2.0    0.001    0.001  909.536  909.538
 qs_energies                          1  3.0    0.000    0.000  895.355  895.360
 scf_env_do_scf                       1  4.0    0.000    0.000  885.655  885.746
 scf_env_do_scf_inner_loop           69  5.0    0.003    0.005  885.652  885.743
 rebuild_ks_matrix                   70  7.0    0.000    0.000  567.533  567.565
 qs_ks_build_kohn_sham_matrix        70  8.0    0.011    0.011  567.532  567.565
 qs_ks_update_qs_env                 69  6.0    0.001    0.001  557.817  557.849
 pw_transfer                       3304 12.1    0.252    0.332  319.219  323.145
 fft_wrap_pw1pw2                   3304 13.1    0.036    0.043  318.967  322.813
 fft_wrap_pw1pw2_200               2884 14.4   27.002   30.858  315.923  319.477
 pw_poisson_solve                    70  9.0    0.022    0.030  275.149  275.196
 implicit_poisson_solver_mixed_      70 10.0    7.384    7.972  259.196  259.357
 fft3d_ps                          3304 15.1  135.482  147.126  237.816  242.729
 qs_rho_update_rho_low               70  6.0    0.001    0.001  211.463  211.481
 calculate_rho_elec                  70  7.0    0.383    0.411  211.462  211.480
 sum_up_and_integrate                70  9.0    1.091    1.171  200.415  200.456
 integrate_v_rspace                  70 10.0    0.002    0.002  199.324  199.443
 derive_fft                         352 12.1    0.025    0.030  182.432  183.827
 grid_collocate_task_list            70  8.0   94.001  183.045   94.001  183.045
 grid_integrate_task_list            70 11.0   86.999  171.055   86.999  171.055
 apply_P_operator                   282 11.2    2.638    3.039  148.986  150.045
 rs_pw_transfer                     564 10.5    0.006    0.007  116.469  145.851
 density_rs2pw                       70  8.0    0.005    0.005  115.550  144.989
 mp_waitany                       11072 12.4   97.050  126.332   97.050  126.332
 rs_pw_transfer_RS2PW_200            72 10.0    4.029    4.722   95.382  124.761
 mp_alltoall_d11v                   996 10.3   86.669  114.074   86.669  114.074
 rs_gather_matrices                  70 11.0    0.264    0.299   85.419  112.702
 qs_scf_new_mos                      69  6.0    0.001    0.002   85.762   85.837
 qs_vxc_create                       70  9.0    0.002    0.003   82.765   83.684
 xc_vxc_pw_create                    70 10.0    1.876    2.323   82.763   83.682
 eigensolver                         69  7.0    0.006    0.009   77.414   77.488
 x_to_yz                           2073 16.3   45.247   51.672   70.245   73.738
 mp_alltoall_z22v                  3304 17.1   44.216   65.143   44.216   65.143
 xc_pw_derive                       420 12.0    0.007    0.009   55.868   58.893
 apply_poisson_operator_fft          70 11.0    0.001    0.001   53.305   53.581
 cp_fm_diag_elpa                     70  8.0    0.001    0.001   48.996   49.127
 cp_fm_diag_elpa_base                70  9.0   47.941   48.049   48.862   48.919
 yz_to_x                           1231 15.8   12.793   13.713   32.012   44.737
 xc_rho_set_and_dset_create          70 11.0    0.800    0.966   43.100   43.993
 apply_inv_laplace_operator_fft     178 11.6    1.473    1.590   39.596   40.793
 pw_scatter_p                      2073 15.3   35.084   39.269   35.084   39.269
 xc_pw_divergence                    70 11.0    0.004    0.005   36.689   38.631
 ps_implicit_compute_veps            70 11.0    0.845    0.997   36.934   37.731
 gspace_mixing                       68  6.0    0.373    0.399   33.065   33.066
 pw_derive                         1476 13.1   28.205   29.356   28.205   29.356
 ps_implicit_compute_error_fft      106 10.9    1.963    2.096   26.260   27.991
 cp_fm_triangular_multiply          207  8.0   27.580   27.908   27.580   27.908
 potential_pw2rs                     70 11.0    0.056    0.063   26.894   27.009
 broyden_mixing                      68  7.0   24.311   24.581   24.797   24.886
 pw_gather_p                       1231 14.8   18.717   19.529   18.717   19.529
 -------------------------------------------------------------------------------

 The number of warnings for this run is : 1
 
 -------------------------------------------------------------------------------
  **** **** ******  **  PROGRAM ENDED AT                 2023-12-03 01:24:15.111
 ***** ** ***  *** **   PROGRAM RAN ON                                     cu042
 **    ****   ******    PROGRAM RAN BY                                     jxzhu
 ***** **    ** ** **   PROGRAM PROCESS ID                                 56850
  **** **  *******  **  PROGRAM STOPPED IN /public/home/jxzhu/tmp_calc/04c0855f9
                                           8753fac23fde4df51ba20f3741a9e9a/calc/
                                           task.001.000030
