 DBCSR| CPU Multiplication driver                                           XSMM
 DBCSR| Multrec recursion limit                                              512
 DBCSR| Multiplication stack size                                           1000
 DBCSR| Maximum elements for images                                    UNLIMITED
 DBCSR| Multiplicative factor virtual images                                   1
 DBCSR| Use multiplication densification                                       T
 DBCSR| Multiplication size stacks                                             3
 DBCSR| Use memory pool for CPU allocation                                     F
 DBCSR| Number of 3D layers                                               SINGLE
 DBCSR| Use MPI memory allocation                                              F
 DBCSR| Use RMA algorithm                                                      F
 DBCSR| Use Communication thread                                               T
 DBCSR| Communication thread load                                             87
 DBCSR| MPI: My node id                                                        0
 DBCSR| MPI: Number of nodes                                                 128
 DBCSR| OMP: Current number of threads                                         1
 DBCSR| OMP: Max number of threads                                             1
 DBCSR| Split modifier for TAS multiplication algorithm                  1.0E+00


  **** **** ******  **  PROGRAM STARTED AT               2023-12-03 09:38:18.190
 ***** ** ***  *** **   PROGRAM STARTED ON                                 cu001
 **    ****   ******    PROGRAM STARTED BY                                 jxzhu
 ***** **    ** ** **   PROGRAM PROCESS ID                                 29935
  **** **  *******  **  PROGRAM STARTED IN /public/home/jxzhu/tmp_calc/aa4faa1fc
                                           a3d564ba24f427c54e63847ef7a399f/calc/
                                           003200.000/search_hi.000000

 CP2K| version string:                                       CP2K version 2022.1
 CP2K| source code revision number:                                  git:2caeb6f
 CP2K| cp2kflags: omp libint fftw3 libxc elpa parallel mpi3 scalapack cosma xsmm
 CP2K|             plumed2 spglib mkl sirius libvori libbqb
 CP2K| is freely available from                            https://www.cp2k.org/
 CP2K| Program compiled at                           Mon Jul 3 17:37:06 CST 2023
 CP2K| Program compiled on                                                 mu003
 CP2K| Program compiled for                                                local
 CP2K| Data directory path                             /public/home/jxzhu/basis/
 CP2K| Input file name                                                 input.inp
 
 GLOBAL| Force Environment number                                              1
 GLOBAL| Basis set file name                                        BASIS_MOLOPT
 GLOBAL| Potential file name                                      GTH_POTENTIALS
 GLOBAL| MM Potential file name                                     MM_POTENTIAL
 GLOBAL| Coordinate file name                                          coord.xyz
 GLOBAL| Method name                                                        CP2K
 GLOBAL| Project name                                                       cp2k
 GLOBAL| Run type                                                   ENERGY_FORCE
 GLOBAL| FFT library                                                       FFTW3
 GLOBAL| Diagonalization library                                            ELPA
 GLOBAL| Minimum number of eigenvectors for ELPA usage                        16
 GLOBAL| Orthonormality check for eigenvectors                          DISABLED
 GLOBAL| Matrix multiplication library                                     COSMA
 GLOBAL| All-to-all communication in single precision                          F
 GLOBAL| FFTs using library dependent lengths                                  T
 GLOBAL| Grid backend                                                       AUTO
 GLOBAL| Global print level                                               MEDIUM
 GLOBAL| MPI I/O enabled                                                       T
 GLOBAL| Total number of message passing processes                           128
 GLOBAL| Number of threads for this process                                    1
 GLOBAL| This output is from process                                           0
 GLOBAL| Stack size for threads created by OpenMP (OMP_STACKSIZE)        default
 GLOBAL| CPU model name                 Intel(R) Xeon(R) Gold 6338 CPU @ 2.00GHz
 GLOBAL| CPUID                                                              1003

 MEMORY| system memory details [Kb]
 MEMORY|                        rank 0           min           max       average
 MEMORY| MemTotal            263619172     263619172     263619172     263619172
 MEMORY| MemFree             218262428     215437500     218262428     216850453
 MEMORY| Buffers                    20            20            36            28
 MEMORY| Cached                1686448        811248       1686448       1248848
 MEMORY| Slab                  1457648       1442592       1457648       1450120
 MEMORY| SReclaimable           245968        230780        245968        238374
 MEMORY| MemLikelyFree       220194864     216479564     220194864     218337703


 *** Fundamental physical constants (SI units) ***

 *** Literature: B. J. Mohr and B. N. Taylor,
 ***             CODATA recommended values of the fundamental physical
 ***             constants: 2006, Web Version 5.1
 ***             http://physics.nist.gov/constants

 Speed of light in vacuum [m/s]                             2.99792458000000E+08
 Magnetic constant or permeability of vacuum [N/A**2]       1.25663706143592E-06
 Electric constant or permittivity of vacuum [F/m]          8.85418781762039E-12
 Planck constant (h) [J*s]                                  6.62606896000000E-34
 Planck constant (h-bar) [J*s]                              1.05457162825177E-34
 Elementary charge [C]                                      1.60217648700000E-19
 Electron mass [kg]                                         9.10938215000000E-31
 Electron g factor [ ]                                     -2.00231930436220E+00
 Proton mass [kg]                                           1.67262163700000E-27
 Fine-structure constant                                    7.29735253760000E-03
 Rydberg constant [1/m]                                     1.09737315685270E+07
 Avogadro constant [1/mol]                                  6.02214179000000E+23
 Boltzmann constant [J/K]                                   1.38065040000000E-23
 Atomic mass unit [kg]                                      1.66053878200000E-27
 Bohr radius [m]                                            5.29177208590000E-11

 *** Conversion factors ***

 [u] -> [a.u.]                                              1.82288848426455E+03
 [Angstrom] -> [Bohr] = [a.u.]                              1.88972613288564E+00
 [a.u.] = [Bohr] -> [Angstrom]                              5.29177208590000E-01
 [a.u.] -> [s]                                              2.41888432650478E-17
 [a.u.] -> [fs]                                             2.41888432650478E-02
 [a.u.] -> [J]                                              4.35974393937059E-18
 [a.u.] -> [N]                                              8.23872205491840E-08
 [a.u.] -> [K]                                              3.15774647902944E+05
 [a.u.] -> [kJ/mol]                                         2.62549961709828E+03
 [a.u.] -> [kcal/mol]                                       6.27509468713739E+02
 [a.u.] -> [Pa]                                             2.94210107994716E+13
 [a.u.] -> [bar]                                            2.94210107994716E+08
 [a.u.] -> [atm]                                            2.90362800883016E+08
 [a.u.] -> [eV]                                             2.72113838565563E+01
 [a.u.] -> [Hz]                                             6.57968392072181E+15
 [a.u.] -> [1/cm] (wave numbers)                            2.19474631370540E+05
 [a.u./Bohr**2] -> [1/cm]                                   5.14048714338585E+03
 

 CELL_TOP| Volume [angstrom^3]:                                     17614.982639
 CELL_TOP| Vector a [angstrom    16.869     0.000     0.000   |a| =    16.869000
 CELL_TOP| Vector b [angstrom    -8.434    14.609     0.000   |b| =    16.869015
 CELL_TOP| Vector c [angstrom     0.000     0.000    71.478   |c| =    71.478000
 CELL_TOP| Angle (b,c), alpha [degree]:                                90.000000
 CELL_TOP| Angle (a,c), beta  [degree]:                                90.000000
 CELL_TOP| Angle (a,b), gamma [degree]:                               119.999970
 CELL_TOP| Numerically orthorhombic:                                          NO
 
 GENERATE|  Preliminary Number of Bonds generated:                             0
 GENERATE|  Achieved consistency in connectivity generation.

 CELL| Volume [angstrom^3]:                                         17614.982639
 CELL| Vector a [angstrom]:      16.869     0.000     0.000   |a| =    16.869000
 CELL| Vector b [angstrom]:      -8.434    14.609     0.000   |b| =    16.869015
 CELL| Vector c [angstrom]:       0.000     0.000    71.478   |c| =    71.478000
 CELL| Angle (b,c), alpha [degree]:                                    90.000000
 CELL| Angle (a,c), beta  [degree]:                                    90.000000
 CELL| Angle (a,b), gamma [degree]:                                   119.999970
 CELL| Numerically orthorhombic:                                              NO

 CELL_REF| Volume [angstrom^3]:                                     17614.982639
 CELL_REF| Vector a [angstrom    16.869     0.000     0.000   |a| =    16.869000
 CELL_REF| Vector b [angstrom    -8.434    14.609     0.000   |b| =    16.869015
 CELL_REF| Vector c [angstrom     0.000     0.000    71.478   |c| =    71.478000
 CELL_REF| Angle (b,c), alpha [degree]:                                90.000000
 CELL_REF| Angle (a,c), beta  [degree]:                                90.000000
 CELL_REF| Angle (a,b), gamma [degree]:                               119.999970
 CELL_REF| Numerically orthorhombic:                                          NO

 *******************************************************************************
 *******************************************************************************
 **                                                                           **
 **     #####                         ##              ##                      **
 **    ##   ##            ##          ##              ##                      **
 **   ##     ##                       ##            ######                    **
 **   ##     ##  ##   ##  ##   #####  ##  ##   ####   ##    #####    #####    **
 **   ##     ##  ##   ##  ##  ##      ## ##   ##      ##   ##   ##  ##   ##   **
 **   ##  ## ##  ##   ##  ##  ##      ####     ###    ##   ######   ######    **
 **    ##  ###   ##   ##  ##  ##      ## ##      ##   ##   ##       ##        **
 **     #######   #####   ##   #####  ##  ##  ####    ##    #####   ##        **
 **           ##                                                    ##        **
 **                                                                           **
 **                                                ... make the atoms dance   **
 **                                                                           **
 **            Copyright (C) by CP2K developers group (2000-2022)             **
 **                      J. Chem. Phys. 152, 194103 (2020)                    **
 **                                                                           **
 *******************************************************************************

 DFT| Spin restricted Kohn-Sham (RKS) calculation                            RKS
 DFT| Multiplicity                                                             1
 DFT| Number of spin states                                                    1
 DFT| Charge                                                                   0
 DFT| Self-interaction correction (SIC)                                       NO
 DFT| Cutoffs: density                                              1.000000E-10
 DFT|          gradient                                             1.000000E-10
 DFT|          tau                                                  1.000000E-10
 DFT|          cutoff_smoothing_range                               0.000000E+00
 DFT| XC density smoothing                                                  NONE
 DFT| XC derivatives                                                          PW

 FUNCTIONAL| PBE:
 FUNCTIONAL| J.P.Perdew, K.Burke, M.Ernzerhof, Phys. Rev. Letter, vol. 77, n 18,
 FUNCTIONAL|  pp. 3865-3868, (1996){spin unpolarized}                           

 vdW POTENTIAL|                                                   Pair Potential
 vdW POTENTIAL|          DFT-D3 (Version 3.1)
 vdW POTENTIAL|          Potential Form: S. Grimme et al, JCP 132: 154104 (2010)
 vdW POTENTIAL|          Zero Damping
 vdW POTENTIAL|          Cutoff Radius [Bohr]:                             20.00
 vdW POTENTIAL|          s6 Scaling Factor:                               1.0000
 vdW POTENTIAL|          sr6 Scaling Factor:                              1.2170
 vdW POTENTIAL|          s8 Scaling Factor:                               0.7220
 vdW POTENTIAL|          Cutoff for CN calculation:                   0.1000E-05

 QS| Method:                                                                 GPW
 QS| Density plane wave grid type                        NON-SPHERICAL FULLSPACE
 QS| Number of grid levels:                                                    4
 QS| Density cutoff [a.u.]:                                                200.0
 QS| Multi grid cutoff [a.u.]: 1) grid level                               200.0
 QS|                           2) grid level                                66.7
 QS|                           3) grid level                                22.2
 QS|                           4) grid level                                 7.4
 QS| Grid level progression factor:                                          3.0
 QS| Relative density cutoff [a.u.]:                                        20.0
 QS| Interaction thresholds: eps_pgf_orb:                                3.2E-07
 QS|                         eps_filter_matrix:                          0.0E+00
 QS|                         eps_core_charge:                            1.0E-15
 QS|                         eps_rho_gspace:                             1.0E-13
 QS|                         eps_rho_rspace:                             1.0E-13
 QS|                         eps_gvg_rspace:                             3.2E-07
 QS|                         eps_ppl:                                    1.0E-02
 QS|                         eps_ppnl:                                   3.2E-09


 ATOMIC KIND INFORMATION

  1. Atomic kind: O                                     Number of atoms:      99

     Orbital Basis Set                                        DZVP-MOLOPT-SR-GTH

       Number of orbital shell sets:                                           1
       Number of orbital shells:                                               5
       Number of primitive Cartesian functions:                                5
       Number of Cartesian basis functions:                                   14
       Number of spherical basis functions:                                   13
       Norm type:                                                              2

       Normalised Cartesian orbitals:

                        Set   Shell   Orbital            Exponent    Coefficient

                          1       1    2s               10.389228       0.396646
                                                         3.849621       0.208811
                                                         1.388401      -0.301641
                                                         0.496955      -0.274061
                                                         0.162492      -0.033677

                          1       2    3s               10.389228       0.303673
                                                         3.849621       0.240943
                                                         1.388401      -0.313066
                                                         0.496955      -0.043055
                                                         0.162492       0.213991

                          1       3    3px              10.389228      -1.530415
                                                         3.849621      -1.371928
                                                         1.388401      -0.761951
                                                         0.496955      -0.253695
                                                         0.162492      -0.035541
                          1       3    3py              10.389228      -1.530415
                                                         3.849621      -1.371928
                                                         1.388401      -0.761951
                                                         0.496955      -0.253695
                                                         0.162492      -0.035541
                          1       3    3pz              10.389228      -1.530415
                                                         3.849621      -1.371928
                                                         1.388401      -0.761951
                                                         0.496955      -0.253695
                                                         0.162492      -0.035541

                          1       4    4px              10.389228      -0.565392
                                                         3.849621      -0.038231
                                                         1.388401      -0.382373
                                                         0.496955       0.179070
                                                         0.162492       0.122714
                          1       4    4py              10.389228      -0.565392
                                                         3.849621      -0.038231
                                                         1.388401      -0.382373
                                                         0.496955       0.179070
                                                         0.162492       0.122714
                          1       4    4pz              10.389228      -0.565392
                                                         3.849621      -0.038231
                                                         1.388401      -0.382373
                                                         0.496955       0.179070
                                                         0.162492       0.122714

                          1       5    4dx2             10.389228       1.867377
                                                         3.849621       0.670994
                                                         1.388401       1.353441
                                                         0.496955       0.273538
                                                         0.162492       0.006620
                          1       5    4dxy             10.389228       3.234392
                                                         3.849621       1.162195
                                                         1.388401       2.344229
                                                         0.496955       0.473781
                                                         0.162492       0.011466
                          1       5    4dxz             10.389228       3.234392
                                                         3.849621       1.162195
                                                         1.388401       2.344229
                                                         0.496955       0.473781
                                                         0.162492       0.011466
                          1       5    4dy2             10.389228       1.867377
                                                         3.849621       0.670994
                                                         1.388401       1.353441
                                                         0.496955       0.273538
                                                         0.162492       0.006620
                          1       5    4dyz             10.389228       3.234392
                                                         3.849621       1.162195
                                                         1.388401       2.344229
                                                         0.496955       0.473781
                                                         0.162492       0.011466
                          1       5    4dz2             10.389228       1.867377
                                                         3.849621       0.670994
                                                         1.388401       1.353441
                                                         0.496955       0.273538
                                                         0.162492       0.006620

       Atomic covalent radius [Angstrom]:                                  0.730

       Atomic van der Waals radius [Angstrom]:                             1.520

     GTH Potential information for                                    GTH-PBE-q6

       Description:                       Goedecker-Teter-Hutter pseudopotential
                                           Goedecker et al., PRB 54, 1703 (1996)
                                          Hartwigsen et al., PRB 58, 3641 (1998)
                                                      Krack, TCA 114, 145 (2005)

       Gaussian exponent of the core charge distribution:               8.360253
       Electronic configuration (s p d ...):                               2   4

       Parameters of the local part of the GTH pseudopotential:

                          rloc        C1          C2          C3          C4
                        0.244554  -16.667215    2.487311

       Parameters of the non-local part of the GTH pseudopotential:

                   l      r(l)      h(i,j,l)

                   0    0.220956   18.337458
                   1    0.211332

  2. Atomic kind: H                                     Number of atoms:     198

     Orbital Basis Set                                        DZVP-MOLOPT-SR-GTH

       Number of orbital shell sets:                                           1
       Number of orbital shells:                                               3
       Number of primitive Cartesian functions:                                5
       Number of Cartesian basis functions:                                    5
       Number of spherical basis functions:                                    5
       Norm type:                                                              2

       Normalised Cartesian orbitals:

                        Set   Shell   Orbital            Exponent    Coefficient

                          1       1    2s               10.068468      -0.133023
                                                         2.680223      -0.177618
                                                         0.791502      -0.258419
                                                         0.239116      -0.107525
                                                         0.082193      -0.014019

                          1       2    3s               10.068468       0.344673
                                                         2.680223       1.819821
                                                         0.791502      -0.999069
                                                         0.239116       0.017430
                                                         0.082193       0.082660

                          1       3    3px              10.068468       0.155326
                                                         2.680223       0.367157
                                                         0.791502       0.311480
                                                         0.239116       0.080105
                                                         0.082193       0.033440
                          1       3    3py              10.068468       0.155326
                                                         2.680223       0.367157
                                                         0.791502       0.311480
                                                         0.239116       0.080105
                                                         0.082193       0.033440
                          1       3    3pz              10.068468       0.155326
                                                         2.680223       0.367157
                                                         0.791502       0.311480
                                                         0.239116       0.080105
                                                         0.082193       0.033440

       Atomic covalent radius [Angstrom]:                                  0.320

       Atomic van der Waals radius [Angstrom]:                             1.090

     GTH Potential information for                                    GTH-PBE-q1

       Description:                       Goedecker-Teter-Hutter pseudopotential
                                           Goedecker et al., PRB 54, 1703 (1996)
                                          Hartwigsen et al., PRB 58, 3641 (1998)
                                                      Krack, TCA 114, 145 (2005)

       Gaussian exponent of the core charge distribution:              12.500000
       Electronic configuration (s p d ...):                                   1

       Parameters of the local part of the GTH pseudopotential:

                          rloc        C1          C2          C3          C4
                        0.200000   -4.178900    0.724463

  3. Atomic kind: Pt                                    Number of atoms:     216

     Orbital Basis Set                      DZVP-A5-Q10-323-MOL-T1-DERIVED_SET-1

       Number of orbital shell sets:                                           1
       Number of orbital shells:                                               6
       Number of primitive Cartesian functions:                                5
       Number of Cartesian basis functions:                                   23
       Number of spherical basis functions:                                   20
       Norm type:                                                              2

       Normalised Cartesian orbitals:

                        Set   Shell   Orbital            Exponent    Coefficient

                          1       1    2s                2.521825       0.177473
                                                         1.453920      -0.063399
                                                         0.614053      -0.407089
                                                         0.232656       0.262254
                                                         0.074788       0.047371

                          1       2    3s                2.521825      -0.049056
                                                         1.453920       0.044904
                                                         0.614053      -0.009756
                                                         0.232656      -0.144709
                                                         0.074788       0.144085

                          1       3    3px               2.521825      -0.317572
                                                         1.453920       0.534826
                                                         0.614053      -0.489458
                                                         0.232656       0.245631
                                                         0.074788       0.018221
                          1       3    3py               2.521825      -0.317572
                                                         1.453920       0.534826
                                                         0.614053      -0.489458
                                                         0.232656       0.245631
                                                         0.074788       0.018221
                          1       3    3pz               2.521825      -0.317572
                                                         1.453920       0.534826
                                                         0.614053      -0.489458
                                                         0.232656       0.245631
                                                         0.074788       0.018221

                          1       4    4dx2              2.521825       3.008522
                                                         1.453920      -1.224251
                                                         0.614053       0.225691
                                                         0.232656       0.125144
                                                         0.074788      -0.015348
                          1       4    4dxy              2.521825       5.210912
                                                         1.453920      -2.120465
                                                         0.614053       0.390909
                                                         0.232656       0.216756
                                                         0.074788      -0.026584
                          1       4    4dxz              2.521825       5.210912
                                                         1.453920      -2.120465
                                                         0.614053       0.390909
                                                         0.232656       0.216756
                                                         0.074788      -0.026584
                          1       4    4dy2              2.521825       3.008522
                                                         1.453920      -1.224251
                                                         0.614053       0.225691
                                                         0.232656       0.125144
                                                         0.074788      -0.015348
                          1       4    4dyz              2.521825       5.210912
                                                         1.453920      -2.120465
                                                         0.614053       0.390909
                                                         0.232656       0.216756
                                                         0.074788      -0.026584
                          1       4    4dz2              2.521825       3.008522
                                                         1.453920      -1.224251
                                                         0.614053       0.225691
                                                         0.232656       0.125144
                                                         0.074788      -0.015348

                          1       5    5dx2              2.521825       0.698026
                                                         1.453920      -1.511486
                                                         0.614053      -0.335394
                                                         0.232656      -0.025564
                                                         0.074788      -0.002699
                          1       5    5dxy              2.521825       1.209017
                                                         1.453920      -2.617970
                                                         0.614053      -0.580920
                                                         0.232656      -0.044277
                                                         0.074788      -0.004674
                          1       5    5dxz              2.521825       1.209017
                                                         1.453920      -2.617970
                                                         0.614053      -0.580920
                                                         0.232656      -0.044277
                                                         0.074788      -0.004674
                          1       5    5dy2              2.521825       0.698026
                                                         1.453920      -1.511486
                                                         0.614053      -0.335394
                                                         0.232656      -0.025564
                                                         0.074788      -0.002699
                          1       5    5dyz              2.521825       1.209017
                                                         1.453920      -2.617970
                                                         0.614053      -0.580920
                                                         0.232656      -0.044277
                                                         0.074788      -0.004674
                          1       5    5dz2              2.521825       0.698026
                                                         1.453920      -1.511486
                                                         0.614053      -0.335394
                                                         0.232656      -0.025564
                                                         0.074788      -0.002699

                          1       6    6dx2              2.521825       0.831079
                                                         1.453920      -0.709226
                                                         0.614053      -0.137351
                                                         0.232656       0.068642
                                                         0.074788       0.011745
                          1       6    6dxy              2.521825       1.439472
                                                         1.453920      -1.228415
                                                         0.614053      -0.237899
                                                         0.232656       0.118891
                                                         0.074788       0.020343
                          1       6    6dxz              2.521825       1.439472
                                                         1.453920      -1.228415
                                                         0.614053      -0.237899
                                                         0.232656       0.118891
                                                         0.074788       0.020343
                          1       6    6dy2              2.521825       0.831079
                                                         1.453920      -0.709226
                                                         0.614053      -0.137351
                                                         0.232656       0.068642
                                                         0.074788       0.011745
                          1       6    6dyz              2.521825       1.439472
                                                         1.453920      -1.228415
                                                         0.614053      -0.237899
                                                         0.232656       0.118891
                                                         0.074788       0.020343
                          1       6    6dz2              2.521825       0.831079
                                                         1.453920      -0.709226
                                                         0.614053      -0.137351
                                                         0.232656       0.068642
                                                         0.074788       0.011745

       Atomic covalent radius [Angstrom]:                                  1.300

       Atomic van der Waals radius [Angstrom]:                             1.750

     GTH Potential information for                                   GTH-PBE-q10

       Description:                       Goedecker-Teter-Hutter pseudopotential
                                           Goedecker et al., PRB 54, 1703 (1996)
                                          Hartwigsen et al., PRB 58, 3641 (1998)
                                                      Krack, TCA 114, 145 (2005)

       Gaussian exponent of the core charge distribution:               1.317676
       Electronic configuration (s p d ...):                           1   0   9

       Parameters of the local part of the GTH pseudopotential:

                          rloc        C1          C2          C3          C4
                        0.616000   11.313635

       Parameters of the non-local part of the GTH pseudopotential:

                   l      r(l)      h(i,j,l)

                   0    0.550904    4.733491   -1.784594
                                   -1.784594    2.303901
                   1    0.674138    2.534798   -1.778066
                                   -1.778066    2.103836
                   2    0.457392   -7.264011    2.558665
                                    2.558665   -2.901253


 MOLECULE KIND INFORMATION


 All atoms are their own molecule, skipping detailed information


 TOTAL NUMBERS AND MAXIMUM NUMBERS

  Total number of            - Atomic kinds:                                   3
                             - Atoms:                                        513
                             - Shell sets:                                   513
                             - Shells:                                      2385
                             - Primitive Cartesian functions:               2565
                             - Cartesian basis functions:                   7344
                             - Spherical basis functions:                   6597

  Maximum angular momentum of- Orbital basis functions:                        2
                             - Local part of the GTH pseudopotential:          2
                             - Non-local part of the GTH pseudopotential:      4


 MODULE QUICKSTEP:  ATOMIC COORDINATES IN angstrom

 Atom  Kind  Element       X           Y           Z          Z(eff)       Mass
    1   1 O    8       5.630000  -32.780003   32.677998       6.0000     15.9994
    2   2 H    1       6.090000  -32.710003   33.557999       1.0000      1.0079
    3   2 H    1       4.700000  -32.400002   32.858001       1.0000      1.0079
    4   1 O    8      -5.560000    4.530000   30.757998       6.0000     15.9994
    5   2 H    1      -6.380000    4.970000   30.627999       1.0000      1.0079
    6   2 H    1      -4.900000    5.260000   30.507998       1.0000      1.0079
    7   1 O    8     -13.580000  -19.760000   38.117999       6.0000     15.9994
    8   2 H    1     -12.700001  -19.490002   38.018000       1.0000      1.0079
    9   2 H    1     -13.840000  -19.910000   39.027999       1.0000      1.0079
   10   1 O    8     -12.880001  -23.430002   30.077998       6.0000     15.9994
   11   2 H    1     -12.390001  -22.900002   29.417998       1.0000      1.0079
   12   2 H    1     -12.510000  -23.330002   31.007998       1.0000      1.0079
   13   1 O    8       3.620000   13.010001   29.947997       6.0000     15.9994
   14   2 H    1       3.740000   12.040001   29.777999       1.0000      1.0079
   15   2 H    1       3.970000   13.300000   29.018000       1.0000      1.0079
   16   1 O    8     -24.090002   29.030001   36.768000       6.0000     15.9994
   17   2 H    1     -23.650000   28.200001   36.447999       1.0000      1.0079
   18   2 H    1     -23.970001   29.770002   36.088000       1.0000      1.0079
   19   1 O    8     -16.540001   -3.420000   32.887999       6.0000     15.9994
   20   2 H    1     -16.520000   -3.440000   31.927998       1.0000      1.0079
   21   2 H    1     -16.830002   -4.320000   33.237998       1.0000      1.0079
   22   1 O    8     -22.280003   46.550003   36.108001       6.0000     15.9994
   23   2 H    1     -21.900002   45.670006   35.797999       1.0000      1.0079
   24   2 H    1      -6.380000   46.290001   36.108001       1.0000      1.0079
   25   1 O    8       6.190000   -0.020000   30.488002       6.0000     15.9994
   26   2 H    1       6.370000    0.450000   31.367999       1.0000      1.0079
   27   2 H    1       6.520000    0.650000   29.867999       1.0000      1.0079
   28   1 O    8     -23.290001   -7.890000   32.487998       6.0000     15.9994
   29   2 H    1     -23.810001   -7.350000   33.148000       1.0000      1.0079
   30   2 H    1     -23.980000   -8.550000   32.147998       1.0000      1.0079
   31   1 O    8      -7.850000    4.210001   39.647998       6.0000     15.9994
   32   2 H    1      -6.920000    4.460000   39.517999       1.0000      1.0079
   33   2 H    1      -7.900000    3.210000   39.717997       1.0000      1.0079
   34   1 O    8     -12.350000   13.740001   32.607999       6.0000     15.9994
   35   2 H    1     -12.840000   13.070001   32.107999       1.0000      1.0079
   36   2 H    1     -11.450001   13.290001   32.858001       1.0000      1.0079
   37   1 O    8     -40.440002    8.660001   30.147998       6.0000     15.9994
   38   2 H    1     -39.780003    8.600000   30.937999       1.0000      1.0079
   39   2 H    1     -39.930004    9.010000   29.378001       1.0000      1.0079
   40   1 O    8     -25.040001   39.400002   36.057999       6.0000     15.9994
   41   2 H    1      -8.770000   39.750000   36.738000       1.0000      1.0079
   42   2 H    1     -25.670002   39.010002   35.418000       1.0000      1.0079
   43   1 O    8     -41.110001   -1.790000   32.728000       6.0000     15.9994
   44   2 H    1     -40.540005   -0.970000   32.837998       1.0000      1.0079
   45   2 H    1     -41.320000   -1.750000   31.768000       1.0000      1.0079
   46   1 O    8     -17.250000    8.260000   37.187999       6.0000     15.9994
   47   2 H    1     -17.930000    7.560000   36.998000       1.0000      1.0079
   48   2 H    1     -16.730001    8.390000   36.357999       1.0000      1.0079
   49   1 O    8     -49.620003  -13.300000   30.187999       6.0000     15.9994
   50   2 H    1     -33.560001  -12.790001   29.947997       1.0000      1.0079
   51   2 H    1     -33.100002  -14.230001   30.058001       1.0000      1.0079
   52   1 O    8     -13.560000   19.950001   34.108001       6.0000     15.9994
   53   2 H    1     -13.730000   20.150002   35.068000       1.0000      1.0079
   54   2 H    1     -14.410001   20.180000   33.707999       1.0000      1.0079
   55   1 O    8      37.010002   19.640001   39.478000       6.0000     15.9994
   56   2 H    1      36.970001   20.610001   39.568000       1.0000      1.0079
   57   2 H    1      37.029999   19.320000   40.437999       1.0000      1.0079
   58   1 O    8       4.910000  -13.750001   30.588000       6.0000     15.9994
   59   2 H    1       4.500000  -13.300000   29.847998       1.0000      1.0079
   60   2 H    1       4.560000  -14.650001   30.557999       1.0000      1.0079
   61   1 O    8     -32.459999   -0.260000   34.227998       6.0000     15.9994
   62   2 H    1     -33.320004   -0.600000   34.078000       1.0000      1.0079
   63   2 H    1     -31.850002   -0.970000   33.978000       1.0000      1.0079
   64   1 O    8     -36.300003   26.890001   36.127999       6.0000     15.9994
   65   2 H    1     -37.250000   27.140003   35.897998       1.0000      1.0079
   66   2 H    1     -35.900002   27.450001   36.828000       1.0000      1.0079
   67   1 O    8      13.910000  -13.370000   37.677998       6.0000     15.9994
   68   2 H    1      14.560001  -13.910000   38.167998       1.0000      1.0079
   69   2 H    1      13.150001  -13.400001   38.357999       1.0000      1.0079
   70   1 O    8      21.250000    0.640000   35.367999       6.0000     15.9994
   71   2 H    1      21.880001    0.880000   36.148000       1.0000      1.0079
   72   2 H    1      20.830002   -0.260000   35.557999       1.0000      1.0079
   73   1 O    8      33.990002    3.290000   28.967997       6.0000     15.9994
   74   2 H    1      34.440002    2.530000   29.498000       1.0000      1.0079
   75   2 H    1      34.420002    4.180000   29.197997       1.0000      1.0079
   76   1 O    8     -22.560001   41.090004   30.397998       6.0000     15.9994
   77   2 H    1     -22.369999   41.950001   29.957999       1.0000      1.0079
   78   2 H    1     -23.400002   40.800003   29.947997       1.0000      1.0079
   79   1 O    8       9.340000   -1.290000   30.167998       6.0000     15.9994
   80   2 H    1      10.340000   -1.180000   30.087996       1.0000      1.0079
   81   2 H    1       9.190001   -2.160000   29.717997       1.0000      1.0079
   82   1 O    8      -9.020000   28.790001   34.607999       6.0000     15.9994
   83   2 H    1      -9.580001   29.430000   34.178000       1.0000      1.0079
   84   2 H    1      -8.470000   28.380001   33.938001       1.0000      1.0079
   85   1 O    8       1.300000   -0.300000   37.117999       6.0000     15.9994
   86   2 H    1       1.260000   -0.380000   36.108001       1.0000      1.0079
   87   2 H    1       1.680000   -1.130000   37.437999       1.0000      1.0079
   88   1 O    8      16.639999    7.660000   30.177996       6.0000     15.9994
   89   2 H    1      16.840002    8.500000   29.627997       1.0000      1.0079
   90   2 H    1      16.049999    7.120000   29.527999       1.0000      1.0079
   91   1 O    8     -13.210001   -6.180000   31.898000       6.0000     15.9994
   92   2 H    1     -12.710000   -6.690001   31.267999       1.0000      1.0079
   93   2 H    1     -12.890000   -5.230000   31.957999       1.0000      1.0079
   94   1 O    8      28.530003    0.220000   39.207999       6.0000     15.9994
   95   2 H    1      28.190002   -0.300000   38.457999       1.0000      1.0079
   96   2 H    1      37.930000   14.530001   39.257998       1.0000      1.0079
   97   1 O    8     -14.170000   -8.720000   36.818000       6.0000     15.9994
   98   2 H    1     -14.290000   -9.610001   37.317998       1.0000      1.0079
   99   2 H    1     -15.120001   -8.470000   37.007998       1.0000      1.0079
  100   1 O    8      30.700001  -24.740002   38.137999       6.0000     15.9994
  101   2 H    1      30.330002  -25.560001   37.788001       1.0000      1.0079
  102   2 H    1      29.940002  -24.440001   38.738000       1.0000      1.0079
  103   1 O    8     -22.560001   48.180004   33.927998       6.0000     15.9994
  104   2 H    1      -5.460000   47.710003   34.768000       1.0000      1.0079
  105   2 H    1     -22.880001   47.510002   33.318000       1.0000      1.0079
  106   1 O    8      23.650000   -5.990000   32.228000       6.0000     15.9994
  107   2 H    1      24.139999   -6.380000   31.397998       1.0000      1.0079
  108   2 H    1      23.450001   -5.020000   32.157998       1.0000      1.0079
  109   1 O    8       2.590000    9.120001   31.237998       6.0000     15.9994
  110   2 H    1       2.450000    8.150001   31.478000       1.0000      1.0079
  111   2 H    1       1.720000    9.480001   31.257998       1.0000      1.0079
  112   1 O    8       4.580000    5.710001   32.597998       6.0000     15.9994
  113   2 H    1       4.890000    6.570000   33.047999       1.0000      1.0079
  114   2 H    1       3.870000    5.390000   33.207999       1.0000      1.0079
  115   1 O    8     -12.430000   10.450001   29.327998       6.0000     15.9994
  116   2 H    1     -13.070001    9.730001   29.408000       1.0000      1.0079
  117   2 H    1     -11.530000   10.120001   29.827998       1.0000      1.0079
  118   1 O    8       6.550000   -9.650001   29.877997       6.0000     15.9994
  119   2 H    1       6.450000  -10.360001   29.248000       1.0000      1.0079
  120   2 H    1       7.240000   -9.910001   30.577998       1.0000      1.0079
  121   1 O    8     -32.930000    1.590000   39.558001       6.0000     15.9994
  122   2 H    1     -33.080002    0.850000   38.978000       1.0000      1.0079
  123   2 H    1     -33.780003    2.220000   39.517999       1.0000      1.0079
  124   1 O    8      -0.610000   -5.700001   33.637997       6.0000     15.9994
  125   2 H    1      -0.050000   -6.450000   33.728000       1.0000      1.0079
  126   2 H    1      -1.570000   -6.060000   33.877999       1.0000      1.0079
  127   1 O    8     -25.090000   46.150002   36.427998       6.0000     15.9994
  128   2 H    1     -25.600002   46.180000   35.627999       1.0000      1.0079
  129   2 H    1     -25.270002   47.029999   36.908000       1.0000      1.0079
  130   1 O    8     -30.560001   -6.970000   39.668000       6.0000     15.9994
  131   2 H    1     -30.270002   -6.600000   38.787999       1.0000      1.0079
  132   2 H    1     -31.590002   -6.750000   39.628001       1.0000      1.0079
  133   1 O    8       7.100000   14.030001   38.018000       6.0000     15.9994
  134   2 H    1      16.500000   -0.550000   37.747998       1.0000      1.0079
  135   2 H    1     -10.250001   14.670001   37.437999       1.0000      1.0079
  136   1 O    8      -5.520000   10.340000   37.017999       6.0000     15.9994
  137   2 H    1      -4.960000    9.520000   37.007998       1.0000      1.0079
  138   2 H    1      -6.310000   10.290001   36.468001       1.0000      1.0079
  139   1 O    8       0.170000   10.270000   29.707999       6.0000     15.9994
  140   2 H    1       0.620000   10.480001   28.897998       1.0000      1.0079
  141   2 H    1      -0.690000   10.810001   29.797999       1.0000      1.0079
  142   1 O    8     -24.710003   -6.320000   34.347998       6.0000     15.9994
  143   2 H    1     -25.410002   -6.320000   33.658000       1.0000      1.0079
  144   2 H    1     -24.340000   -5.370000   34.178000       1.0000      1.0079
  145   1 O    8     -15.760001    2.480000   32.907998       6.0000     15.9994
  146   2 H    1     -15.570001    1.750000   33.567998       1.0000      1.0079
  147   2 H    1     -15.430001    2.080000   32.007998       1.0000      1.0079
  148   1 O    8       2.980000  -12.080001   29.158000       6.0000     15.9994
  149   2 H    1       2.130000  -12.580000   29.297999       1.0000      1.0079
  150   2 H    1       2.910000  -11.200000   29.667998       1.0000      1.0079
  151   1 O    8     -11.670000   37.170002   34.047999       6.0000     15.9994
  152   2 H    1     -11.960001   37.960003   33.478000       1.0000      1.0079
  153   2 H    1     -12.040001   37.260002   35.007998       1.0000      1.0079
  154   1 O    8      21.290001   50.360001   30.047999       6.0000     15.9994
  155   2 H    1      21.010000   50.680004   29.187999       1.0000      1.0079
  156   2 H    1      22.160000   49.950005   29.867999       1.0000      1.0079
  157   1 O    8       6.840000  -12.710000   34.268000       6.0000     15.9994
  158   2 H    1       7.210000  -13.310001   33.617999       1.0000      1.0079
  159   2 H    1       6.090000  -12.330000   33.748000       1.0000      1.0079
  160   1 O    8     -40.550003   -8.650001   35.837998       6.0000     15.9994
  161   2 H    1     -40.919998   -7.790000   35.437999       1.0000      1.0079
  162   2 H    1     -40.280003   -9.120001   35.027999       1.0000      1.0079
  163   1 O    8     -27.470001   20.820000   36.347998       6.0000     15.9994
  164   2 H    1     -27.950001   20.030001   36.797999       1.0000      1.0079
  165   2 H    1     -27.630003   20.889999   35.347998       1.0000      1.0079
  166   1 O    8      14.320001   24.700001   37.557999       6.0000     15.9994
  167   2 H    1      14.170000   25.530003   36.998000       1.0000      1.0079
  168   2 H    1      22.930002   10.440001   38.527999       1.0000      1.0079
  169   1 O    8      -1.880000   12.030001   30.377997       6.0000     15.9994
  170   2 H    1      -2.150000   12.960000   30.358001       1.0000      1.0079
  171   2 H    1      -2.150000   11.650001   31.277999       1.0000      1.0079
  172   1 O    8       0.090000   -7.630000   37.068000       6.0000     15.9994
  173   2 H    1      -0.030000   -6.810000   36.578000       1.0000      1.0079
  174   2 H    1      16.040001   -8.000000   37.217997       1.0000      1.0079
  175   1 O    8      20.600002   13.590001   35.377997       6.0000     15.9994
  176   2 H    1      20.820000   13.800001   34.447999       1.0000      1.0079
  177   2 H    1      20.930002   14.350000   35.878001       1.0000      1.0079
  178   1 O    8      13.740001    1.010000   36.608001       6.0000     15.9994
  179   2 H    1      14.270000    1.270000   35.848000       1.0000      1.0079
  180   2 H    1      -3.730000    1.740000   36.908000       1.0000      1.0079
  181   1 O    8     -43.930000   32.940002   37.877997       6.0000     15.9994
  182   2 H    1     -44.470001   32.090000   37.898000       1.0000      1.0079
  183   2 H    1     -43.240005   32.960003   38.588000       1.0000      1.0079
  184   1 O    8       6.600000    9.580001   30.687999       6.0000     15.9994
  185   2 H    1       7.220001   10.330000   30.457999       1.0000      1.0079
  186   2 H    1       6.720000    8.640000   30.317996       1.0000      1.0079
  187   1 O    8      -0.660000   43.860001   38.827998       6.0000     15.9994
  188   2 H    1      -0.790000   43.029999   39.347998       1.0000      1.0079
  189   2 H    1      -0.030000   43.600002   38.037999       1.0000      1.0079
  190   1 O    8      -0.340000    4.860000   32.317998       6.0000     15.9994
  191   2 H    1      -9.370001   19.730000   33.077998       1.0000      1.0079
  192   2 H    1       0.030000    3.990000   32.557999       1.0000      1.0079
  193   1 O    8      27.650002   29.960001   32.758000       6.0000     15.9994
  194   2 H    1      20.140001   44.990002   32.867999       1.0000      1.0079
  195   2 H    1      18.940001   44.750004   31.818000       1.0000      1.0079
  196   1 O    8      14.450001   -8.420001   37.627999       6.0000     15.9994
  197   2 H    1      14.620000   -9.450001   37.637999       1.0000      1.0079
  198   2 H    1      13.750001   -8.150001   36.937999       1.0000      1.0079
  199   1 O    8      18.050001   30.510002   30.498000       6.0000     15.9994
  200   2 H    1      17.240002   29.930000   30.557999       1.0000      1.0079
  201   2 H    1      18.870001   30.030003   30.268000       1.0000      1.0079
  202   1 O    8     -32.950001   20.810001   29.947997       6.0000     15.9994
  203   2 H    1     -33.020000   20.750000   28.967997       1.0000      1.0079
  204   2 H    1     -32.470001   21.680002   30.058001       1.0000      1.0079
  205   1 O    8     -12.870001  -22.020000   36.527999       6.0000     15.9994
  206   2 H    1     -13.650000  -22.490002   36.137999       1.0000      1.0079
  207   2 H    1     -13.140000  -21.270000   37.068000       1.0000      1.0079
  208   1 O    8       6.570000    6.940000   29.967997       6.0000     15.9994
  209   2 H    1       6.760001    6.820001   28.997996       1.0000      1.0079
  210   2 H    1       7.410001    6.530001   30.327998       1.0000      1.0079
  211   1 O    8      18.530001  -23.690002   29.108001       6.0000     15.9994
  212   2 H    1      19.490002  -23.630001   29.518000       1.0000      1.0079
  213   2 H    1      18.060001  -22.830000   29.308001       1.0000      1.0079
  214   1 O    8     -15.890001    8.930000   39.668000       6.0000     15.9994
  215   2 H    1     -16.680000    9.350000   39.877999       1.0000      1.0079
  216   2 H    1     -16.000000    8.410000   38.768000       1.0000      1.0079
  217   1 O    8      -9.030001   32.970001   35.188001       6.0000     15.9994
  218   2 H    1      -9.430000   32.420002   35.878001       1.0000      1.0079
  219   2 H    1      -9.500000   32.980000   34.307999       1.0000      1.0079
  220   1 O    8       5.690000   21.180000   33.767999       6.0000     15.9994
  221   2 H    1       5.930000   21.980001   33.207999       1.0000      1.0079
  222   2 H    1       4.660000   20.850000   33.627999       1.0000      1.0079
  223   1 O    8      15.750000   -0.300000   30.068000       6.0000     15.9994
  224   2 H    1      14.900002    0.110000   30.358001       1.0000      1.0079
  225   2 H    1      15.780001   -0.080000   29.127997       1.0000      1.0079
  226   1 O    8       5.810000    1.090000   32.907998       6.0000     15.9994
  227   2 H    1       5.810000    2.030000   33.057999       1.0000      1.0079
  228   2 H    1       5.280000    0.740000   33.658000       1.0000      1.0079
  229   1 O    8     -20.810001    3.020000   33.027999       6.0000     15.9994
  230   2 H    1     -21.230001    3.930000   33.237998       1.0000      1.0079
  231   2 H    1     -20.690001    3.080000   32.077998       1.0000      1.0079
  232   1 O    8     -23.810001    2.080000   35.258000       6.0000     15.9994
  233   2 H    1     -23.760002    1.790000   34.297999       1.0000      1.0079
  234   2 H    1     -24.430000    2.850000   35.218001       1.0000      1.0079
  235   1 O    8       1.560000   11.270000   36.438001       6.0000     15.9994
  236   2 H    1      -7.690001   25.740002   36.898000       1.0000      1.0079
  237   2 H    1       2.200000   10.790000   36.967999       1.0000      1.0079
  238   1 O    8     -38.400002   12.580000   35.978000       6.0000     15.9994
  239   2 H    1     -38.570000   11.790000   36.568000       1.0000      1.0079
  240   2 H    1     -37.389999   12.520000   35.787999       1.0000      1.0079
  241   1 O    8     -25.320000   -9.590000   37.667998       6.0000     15.9994
  242   2 H    1     -24.530001   -9.180000   37.268000       1.0000      1.0079
  243   2 H    1     -26.000002   -9.210001   37.077998       1.0000      1.0079
  244   1 O    8      10.390000  -33.260002   33.847998       6.0000     15.9994
  245   2 H    1      10.290001  -32.780003   34.677998       1.0000      1.0079
  246   2 H    1       9.840000  -32.620003   33.257998       1.0000      1.0079
  247   1 O    8     -22.250002   12.040001   33.547999       6.0000     15.9994
  248   2 H    1     -22.990000   11.410000   33.237998       1.0000      1.0079
  249   2 H    1     -22.130001   11.920000   34.517999       1.0000      1.0079
  250   1 O    8      -4.390000    8.060000   37.077998       6.0000     15.9994
  251   2 H    1      -3.500000    7.670000   37.028001       1.0000      1.0079
  252   2 H    1      -4.840000    7.170000   36.937999       1.0000      1.0079
  253   1 O    8      -9.980000    4.060000   32.597998       6.0000     15.9994
  254   2 H    1     -10.770000    4.630000   32.498000       1.0000      1.0079
  255   2 H    1      -9.750000    3.740000   31.727998       1.0000      1.0079
  256   1 O    8      15.590000   17.530001   29.947997       6.0000     15.9994
  257   2 H    1      22.959999    2.940000   30.047999       1.0000      1.0079
  258   2 H    1      15.710001   18.060001   29.178000       1.0000      1.0079
  259   1 O    8       9.040001    8.080000   39.528001       6.0000     15.9994
  260   2 H    1       8.900001    9.020000   39.817998       1.0000      1.0079
  261   2 H    1       8.720000    7.940001   38.608001       1.0000      1.0079
  262   1 O    8      -3.680000   -4.400000   32.707999       6.0000     15.9994
  263   2 H    1      -3.010000   -4.610000   31.927998       1.0000      1.0079
  264   2 H    1      -4.620000   -4.470000   32.428000       1.0000      1.0079
  265   1 O    8     -18.440001   -1.650000   33.707999       6.0000     15.9994
  266   2 H    1     -17.960001   -2.480000   33.348000       1.0000      1.0079
  267   2 H    1     -18.810001   -1.940000   34.607999       1.0000      1.0079
  268   1 O    8       8.060000   40.820004   30.147998       6.0000     15.9994
  269   2 H    1       7.440000   41.610001   30.047999       1.0000      1.0079
  270   2 H    1       8.250000   40.400002   29.248000       1.0000      1.0079
  271   1 O    8      11.610001  -26.639999   37.338000       6.0000     15.9994
  272   2 H    1      11.480000  -27.360001   37.998000       1.0000      1.0079
  273   2 H    1      11.020000  -26.980001   36.608001       1.0000      1.0079
  274   1 O    8       2.930000   32.220001   38.787999       6.0000     15.9994
  275   2 H    1       3.200000   32.300003   37.807998       1.0000      1.0079
  276   2 H    1       2.140000   31.600000   38.687999       1.0000      1.0079
  277   1 O    8     -10.559999   26.730001   35.277999       6.0000     15.9994
  278   2 H    1     -10.230000   26.160002   36.027999       1.0000      1.0079
  279   2 H    1      -9.840000   27.410002   35.237998       1.0000      1.0079
  280   1 O    8      -1.160000   10.650001   37.527999       6.0000     15.9994
  281   2 H    1      -0.940000    9.700001   37.447999       1.0000      1.0079
  282   2 H    1      -0.900000   10.980000   38.387999       1.0000      1.0079
  283   1 O    8       4.740000   -4.150000   29.197997       6.0000     15.9994
  284   2 H    1     -12.880001   -3.660000   29.707999       1.0000      1.0079
  285   2 H    1       5.490000   -3.590000   29.457999       1.0000      1.0079
  286   1 O    8      -7.930000   35.400002   34.108001       6.0000     15.9994
  287   2 H    1      -8.560000   35.360001   33.387999       1.0000      1.0079
  288   2 H    1      -8.250000   34.680000   34.777999       1.0000      1.0079
  289   1 O    8      20.260000  -29.220001   29.917998       6.0000     15.9994
  290   2 H    1      20.570002  -29.190002   28.917998       1.0000      1.0079
  291   2 H    1      21.110001  -29.000000   30.367999       1.0000      1.0079
  292   1 O    8     -23.490002   12.100000   38.838000       6.0000     15.9994
  293   2 H    1     -22.990000   11.350001   38.467997       1.0000      1.0079
  294   2 H    1     -22.950001   12.420001   39.607999       1.0000      1.0079
  295   1 O    8      -4.040000   17.690001   29.818000       6.0000     15.9994
  296   2 H    1      -4.250000   18.630001   29.818000       1.0000      1.0079
  297   2 H    1      -4.450000   17.320002   29.027999       1.0000      1.0079
  298   3 Pt  78       1.580000    0.760000   27.027999      10.0000    195.0840
  299   3 Pt  78       4.510000    0.620000   26.968001      10.0000    195.0840
  300   3 Pt  78       7.430000    0.650000   26.867999      10.0000    195.0840
  301   3 Pt  78      10.270000    0.610000   26.697997      10.0000    195.0840
  302   3 Pt  78      13.030001    0.590000   26.728000      10.0000    195.0840
  303   3 Pt  78      15.720000    0.580000   26.767997      10.0000    195.0840
  304   3 Pt  78       3.230000    3.000000   26.917998      10.0000    195.0840
  305   3 Pt  78       5.950000    3.140000   26.717997      10.0000    195.0840
  306   3 Pt  78       8.730000    3.110000   26.667998      10.0000    195.0840
  307   3 Pt  78      11.560000    2.960000   26.847998      10.0000    195.0840
  308   3 Pt  78      14.290000    3.110000   27.057998      10.0000    195.0840
  309   3 Pt  78       0.200000    3.070000   26.838000      10.0000    195.0840
  310   3 Pt  78       4.590000    5.560000   26.827998      10.0000    195.0840
  311   3 Pt  78       7.280001    5.510000   26.838000      10.0000    195.0840
  312   3 Pt  78      10.110001    5.470000   26.777999      10.0000    195.0840
  313   3 Pt  78      12.870001    5.450000   26.867999      10.0000    195.0840
  314   3 Pt  78      -1.160000    5.470000   26.847998      10.0000    195.0840
  315   3 Pt  78       1.870000    5.420001   26.847998      10.0000    195.0840
  316   3 Pt  78       6.030001    7.950000   26.797999      10.0000    195.0840
  317   3 Pt  78       8.750001    7.840000   26.897998      10.0000    195.0840
  318   3 Pt  78      11.490001    8.020000   26.957999      10.0000    195.0840
  319   3 Pt  78      -2.500000    7.880001   26.797999      10.0000    195.0840
  320   3 Pt  78       0.400000    8.000000   26.818000      10.0000    195.0840
  321   3 Pt  78       3.140000    7.870001   26.738002      10.0000    195.0840
  322   3 Pt  78       7.330000   10.350000   26.847998      10.0000    195.0840
  323   3 Pt  78       9.980000   10.370001   26.997996      10.0000    195.0840
  324   3 Pt  78      -3.830000   10.370001   27.077998      10.0000    195.0840
  325   3 Pt  78      -1.080000   10.340000   26.908000      10.0000    195.0840
  326   3 Pt  78       1.690000   10.400001   26.957999      10.0000    195.0840
  327   3 Pt  78       4.560000   10.240001   26.867999      10.0000    195.0840
  328   3 Pt  78       8.640000   12.780001   27.018000      10.0000    195.0840
  329   3 Pt  78      -5.350000   12.790001   27.068000      10.0000    195.0840
  330   3 Pt  78      -2.480000   12.770000   26.917998      10.0000    195.0840
  331   3 Pt  78       0.380000   12.900001   26.748000      10.0000    195.0840
  332   3 Pt  78       3.100000   12.810000   26.757998      10.0000    195.0840
  333   3 Pt  78       5.800000   12.730000   26.878001      10.0000    195.0840
  334   3 Pt  78       0.300000    1.550000   24.577998      10.0000    195.0840
  335   3 Pt  78       3.040000    1.460000   24.608001      10.0000    195.0840
  336   3 Pt  78       5.950000    1.500000   24.457999      10.0000    195.0840
  337   3 Pt  78       8.740000    1.450000   24.387999      10.0000    195.0840
  338   3 Pt  78      11.580001    1.460000   24.437999      10.0000    195.0840
  339   3 Pt  78      14.270000    1.510000   24.547999      10.0000    195.0840
  340   3 Pt  78       1.630000    3.950000   24.617999      10.0000    195.0840
  341   3 Pt  78       4.560000    3.850000   24.487998      10.0000    195.0840
  342   3 Pt  78       7.340000    3.870000   24.437999      10.0000    195.0840
  343   3 Pt  78      10.130000    3.770000   24.397998      10.0000    195.0840
  344   3 Pt  78      12.960000    3.860000   24.448001      10.0000    195.0840
  345   3 Pt  78      -1.140000    4.040000   24.507998      10.0000    195.0840
  346   3 Pt  78       3.160000    6.330000   24.597998      10.0000    195.0840
  347   3 Pt  78       5.880000    6.300001   24.497996      10.0000    195.0840
  348   3 Pt  78       8.660001    6.330000   24.437999      10.0000    195.0840
  349   3 Pt  78      11.520000    6.340000   24.538001      10.0000    195.0840
  350   3 Pt  78      -2.620000    6.430000   24.327998      10.0000    195.0840
  351   3 Pt  78       0.290000    6.410000   24.547999      10.0000    195.0840
  352   3 Pt  78       4.560000    8.670000   24.397998      10.0000    195.0840
  353   3 Pt  78       7.280001    8.770000   24.497996      10.0000    195.0840
  354   3 Pt  78      10.110001    8.860001   24.518000      10.0000    195.0840
  355   3 Pt  78      -3.970000    8.820001   24.627997      10.0000    195.0840
  356   3 Pt  78      -1.070000    8.800000   24.507998      10.0000    195.0840
  357   3 Pt  78       1.740000    8.750001   24.417998      10.0000    195.0840
  358   3 Pt  78       5.850000   11.240001   24.417998      10.0000    195.0840
  359   3 Pt  78       8.780001   11.170001   24.608001      10.0000    195.0840
  360   3 Pt  78      -5.330000   11.220001   24.637999      10.0000    195.0840
  361   3 Pt  78      -2.440000   11.200000   24.617999      10.0000    195.0840
  362   3 Pt  78       0.340000   11.240001   24.468001      10.0000    195.0840
  363   3 Pt  78       3.110000   11.120001   24.568000      10.0000    195.0840
  364   3 Pt  78       7.360001   13.690001   24.437999      10.0000    195.0840
  365   3 Pt  78      -6.780000   13.690001   24.687999      10.0000    195.0840
  366   3 Pt  78      -4.060000   13.680000   24.627997      10.0000    195.0840
  367   3 Pt  78      -1.240000   13.610001   24.667998      10.0000    195.0840
  368   3 Pt  78       1.650000   13.690001   24.357997      10.0000    195.0840
  369   3 Pt  78       4.460000   13.620001   24.437999      10.0000    195.0840
  370   3 Pt  78      -8.320000   14.570000   22.207999      10.0000    195.0840
  371   3 Pt  78      -5.470000   14.510001   22.347998      10.0000    195.0840
  372   3 Pt  78      -2.590000   14.420000   22.207999      10.0000    195.0840
  373   3 Pt  78       0.120000   14.410001   22.177996      10.0000    195.0840
  374   3 Pt  78       3.000000   14.450001   22.137999      10.0000    195.0840
  375   3 Pt  78       5.770000   14.600000   22.107997      10.0000    195.0840
  376   3 Pt  78       1.570000    2.390000   22.247996      10.0000    195.0840
  377   3 Pt  78       4.430000    2.420000   22.147998      10.0000    195.0840
  378   3 Pt  78       7.210000    2.340000   22.158000      10.0000    195.0840
  379   3 Pt  78      10.010000    2.250000   22.128001      10.0000    195.0840
  380   3 Pt  78      12.920000    2.290000   22.128001      10.0000    195.0840
  381   3 Pt  78      -1.210000    2.310000   22.198001      10.0000    195.0840
  382   3 Pt  78       3.050000    4.810000   22.237998      10.0000    195.0840
  383   3 Pt  78       5.850000    4.880000   22.147998      10.0000    195.0840
  384   3 Pt  78       8.680000    4.770000   22.117999      10.0000    195.0840
  385   3 Pt  78      11.390000    4.730000   22.187999      10.0000    195.0840
  386   3 Pt  78      -2.600000    4.760000   22.187999      10.0000    195.0840
  387   3 Pt  78       0.240000    4.760000   22.198001      10.0000    195.0840
  388   3 Pt  78       4.420000    7.280001   22.128001      10.0000    195.0840
  389   3 Pt  78       7.220001    7.180000   22.187999      10.0000    195.0840
  390   3 Pt  78      10.020000    7.330000   22.217997      10.0000    195.0840
  391   3 Pt  78      -4.100000    7.160000   22.198001      10.0000    195.0840
  392   3 Pt  78      -1.190000    7.200000   22.158000      10.0000    195.0840
  393   3 Pt  78       1.660000    7.180000   22.198001      10.0000    195.0840
  394   3 Pt  78       5.800000    9.720000   22.187999      10.0000    195.0840
  395   3 Pt  78       8.530001    9.640000   22.277999      10.0000    195.0840
  396   3 Pt  78      -5.380001    9.640000   22.237998      10.0000    195.0840
  397   3 Pt  78      -2.560000    9.590000   22.297999      10.0000    195.0840
  398   3 Pt  78       0.290000    9.610001   22.137999      10.0000    195.0840
  399   3 Pt  78       2.960000    9.640000   22.077998      10.0000    195.0840
  400   3 Pt  78       7.190001   12.140001   22.158000      10.0000    195.0840
  401   3 Pt  78      -6.900001   12.060001   22.327998      10.0000    195.0840
  402   3 Pt  78      -4.020000   12.060001   22.207999      10.0000    195.0840
  403   3 Pt  78      -1.180000   11.970000   22.097998      10.0000    195.0840
  404   3 Pt  78       1.590000   12.130001   22.097998      10.0000    195.0840
  405   3 Pt  78       4.360000   12.130001   22.097998      10.0000    195.0840
  406   3 Pt  78       1.590000    0.690000   20.010000      10.0000    195.0840
  407   3 Pt  78       4.460000    0.650000   20.030000      10.0000    195.0840
  408   3 Pt  78       7.170000    0.710000   19.770000      10.0000    195.0840
  409   3 Pt  78       9.900001    0.710000   19.790000      10.0000    195.0840
  410   3 Pt  78      12.730000    0.630000   19.790000      10.0000    195.0840
  411   3 Pt  78      15.570001    0.690000   19.830000      10.0000    195.0840
  412   3 Pt  78       2.990000    3.080000   19.860000      10.0000    195.0840
  413   3 Pt  78       5.760000    3.130000   19.840000      10.0000    195.0840
  414   3 Pt  78       8.540000    3.180000   19.840000      10.0000    195.0840
  415   3 Pt  78      11.360001    3.110000   19.860000      10.0000    195.0840
  416   3 Pt  78      14.240000    3.030000   19.820000      10.0000    195.0840
  417   3 Pt  78       0.190000    3.080000   19.850000      10.0000    195.0840
  418   3 Pt  78       4.330000    5.580000   19.860000      10.0000    195.0840
  419   3 Pt  78       7.170000    5.650000   19.810000      10.0000    195.0840
  420   3 Pt  78       9.960001    5.610001   19.870000      10.0000    195.0840
  421   3 Pt  78      12.700001    5.520000   19.860000      10.0000    195.0840
  422   3 Pt  78      -1.220000    5.460000   19.910000      10.0000    195.0840
  423   3 Pt  78       1.620000    5.470000   19.980000      10.0000    195.0840
  424   3 Pt  78       5.800000    8.070001   19.900000      10.0000    195.0840
  425   3 Pt  78       8.610001    8.150001   19.900000      10.0000    195.0840
  426   3 Pt  78      11.370001    8.000000   19.830000      10.0000    195.0840
  427   3 Pt  78      -2.660000    7.930000   19.850000      10.0000    195.0840
  428   3 Pt  78       0.230000    7.900000   19.840000      10.0000    195.0840
  429   3 Pt  78       2.990000    8.010000   19.840000      10.0000    195.0840
  430   3 Pt  78       7.190001   10.530001   19.940000      10.0000    195.0840
  431   3 Pt  78      10.020000   10.500001   20.060000      10.0000    195.0840
  432   3 Pt  78      -3.970000   10.400001   19.970000      10.0000    195.0840
  433   3 Pt  78      -1.240000   10.320001   19.820000      10.0000    195.0840
  434   3 Pt  78       1.480000   10.490000   19.770000      10.0000    195.0840
  435   3 Pt  78       4.360000   10.420000   19.870000      10.0000    195.0840
  436   3 Pt  78       8.550000   12.920000   19.900000      10.0000    195.0840
  437   3 Pt  78      -5.530000   12.810000   20.090000      10.0000    195.0840
  438   3 Pt  78      -2.670000   12.780001   19.930000      10.0000    195.0840
  439   3 Pt  78       0.020000   12.780001   19.760000      10.0000    195.0840
  440   3 Pt  78       2.830000   12.860001   19.740000      10.0000    195.0840
  441   3 Pt  78       5.690000   12.910000   19.760000      10.0000    195.0840
  442   3 Pt  78      -0.010000    1.430000   17.570000      10.0000    195.0840
  443   3 Pt  78       2.850000    1.460000   17.680000      10.0000    195.0840
  444   3 Pt  78       5.600000    1.650000   17.520000      10.0000    195.0840
  445   3 Pt  78       8.370000    1.660000   17.450000      10.0000    195.0840
  446   3 Pt  78      11.100000    1.570000   17.490000      10.0000    195.0840
  447   3 Pt  78      14.060000    1.350000   17.360000      10.0000    195.0840
  448   3 Pt  78       1.490000    3.840000   17.550000      10.0000    195.0840
  449   3 Pt  78       4.210001    4.080000   17.570000      10.0000    195.0840
  450   3 Pt  78       6.960001    4.080000   17.460000      10.0000    195.0840
  451   3 Pt  78       9.890000    4.000000   17.520000      10.0000    195.0840
  452   3 Pt  78      12.780001    3.800000   17.580000      10.0000    195.0840
  453   3 Pt  78      -1.250000    3.840000   17.570000      10.0000    195.0840
  454   3 Pt  78       2.830000    6.470000   17.590000      10.0000    195.0840
  455   3 Pt  78       5.700001    6.430000   17.460000      10.0000    195.0840
  456   3 Pt  78       8.500000    6.370000   17.490000      10.0000    195.0840
  457   3 Pt  78      11.200000    6.300001   17.580000      10.0000    195.0840
  458   3 Pt  78      -2.810000    6.270000   17.620000      10.0000    195.0840
  459   3 Pt  78       0.040000    6.300001   17.540000      10.0000    195.0840
  460   3 Pt  78       4.360000    8.840000   17.370000      10.0000    195.0840
  461   3 Pt  78       7.170000    8.740000   17.650000      10.0000    195.0840
  462   3 Pt  78       9.930000    8.780001   17.600000      10.0000    195.0840
  463   3 Pt  78      -4.200000    8.840000   17.600000      10.0000    195.0840
  464   3 Pt  78      -1.420000    8.810000   17.540000      10.0000    195.0840
  465   3 Pt  78       1.420000    8.790001   17.400000      10.0000    195.0840
  466   3 Pt  78       5.760000   11.220001   17.570000      10.0000    195.0840
  467   3 Pt  78       8.520000   11.170001   17.620000      10.0000    195.0840
  468   3 Pt  78      -5.530000   11.170001   17.760000      10.0000    195.0840
  469   3 Pt  78      -2.780000   11.180000   17.650000      10.0000    195.0840
  470   3 Pt  78       0.000000   11.260000   17.480000      10.0000    195.0840
  471   3 Pt  78       2.830000   11.310000   17.450000      10.0000    195.0840
  472   3 Pt  78       7.050000   13.580000   17.560000      10.0000    195.0840
  473   3 Pt  78      -7.030000   13.620001   17.650000      10.0000    195.0840
  474   3 Pt  78      -4.240000   13.640001   17.750000      10.0000    195.0840
  475   3 Pt  78      -1.410000   13.790001   17.510000      10.0000    195.0840
  476   3 Pt  78       1.280000   13.680000   17.510000      10.0000    195.0840
  477   3 Pt  78       4.170000   13.700001   17.410000      10.0000    195.0840
  478   3 Pt  78      -8.490001   14.390000   15.180000      10.0000    195.0840
  479   3 Pt  78      -5.770000   14.360001   15.340000      10.0000    195.0840
  480   3 Pt  78      -2.990000   14.380001   15.360000      10.0000    195.0840
  481   3 Pt  78      -0.020000   14.520000   15.150000      10.0000    195.0840
  482   3 Pt  78       2.720000   14.470000   15.130000      10.0000    195.0840
  483   3 Pt  78       5.620000   14.400001   15.020000      10.0000    195.0840
  484   3 Pt  78       1.320000    2.220000   15.300001      10.0000    195.0840
  485   3 Pt  78       4.070000    2.350000   15.380000      10.0000    195.0840
  486   3 Pt  78       6.800000    2.240000   15.120000      10.0000    195.0840
  487   3 Pt  78       9.790000    2.330000   15.200000      10.0000    195.0840
  488   3 Pt  78      12.630000    2.240000   15.110000      10.0000    195.0840
  489   3 Pt  78      -1.460000    2.370000   15.080000      10.0000    195.0840
  490   3 Pt  78       2.650000    4.620000   15.170001      10.0000    195.0840
  491   3 Pt  78       5.540000    4.820000   15.210001      10.0000    195.0840
  492   3 Pt  78       8.410000    4.670000   15.160000      10.0000    195.0840
  493   3 Pt  78      11.270000    4.710000   15.180000      10.0000    195.0840
  494   3 Pt  78      -2.990000    4.710000   15.250000      10.0000    195.0840
  495   3 Pt  78      -0.160000    4.800000   15.240000      10.0000    195.0840
  496   3 Pt  78       4.070000    7.140000   15.120000      10.0000    195.0840
  497   3 Pt  78       7.060000    7.030000   15.140000      10.0000    195.0840
  498   3 Pt  78       9.860001    7.120000   15.180000      10.0000    195.0840
  499   3 Pt  78      -4.180000    7.050000   15.410000      10.0000    195.0840
  500   3 Pt  78      -1.460000    7.170000   15.310000      10.0000    195.0840
  501   3 Pt  78       1.380000    7.060000   15.120000      10.0000    195.0840
  502   3 Pt  78       5.540000    9.590000   15.000000      10.0000    195.0840
  503   3 Pt  78       8.330001    9.460000   15.110000      10.0000    195.0840
  504   3 Pt  78      -5.620000    9.450001   15.160000      10.0000    195.0840
  505   3 Pt  78      -2.880000    9.590000   15.160000      10.0000    195.0840
[...]
 flops    13 x    32 x    13           5831760064       0.0%    100.0%      0.0%
 flops    13 x     5 x   120           7228915200       0.0%    100.0%      0.0%
 flops     5 x    13 x   120           7238649600       0.0%    100.0%      0.0%
 flops    13 x    32 x    20           8341598720       0.0%    100.0%      0.0%
 flops    20 x    32 x    13           8341598720       0.0%    100.0%      0.0%
 flops    13 x    13 x   120           8700606720       0.0%    100.0%      0.0%
 flops     5 x    32 x    20           9051814400       0.0%    100.0%      0.0%
 flops    20 x    32 x     5           9051814400       0.0%    100.0%      0.0%
 flops     5 x     5 x    96           9076377600       0.0%    100.0%      0.0%
 flops    13 x     5 x    96          11566264320       0.0%    100.0%      0.0%
 flops     5 x    13 x    96          11581839360       0.0%    100.0%      0.0%
 flops    20 x    13 x   120          12289305600       0.0%    100.0%      0.0%
 flops    13 x    20 x   120          12325248000       0.0%    100.0%      0.0%
 flops     5 x    20 x   120          13355136000       0.0%    100.0%      0.0%
 flops    20 x     5 x   120          13355136000       0.0%    100.0%      0.0%
 flops    13 x    13 x    96          13920970752       0.0%    100.0%      0.0%
 flops    20 x    13 x    96          19662888960       0.0%    100.0%      0.0%
 flops    13 x    20 x    96          19720396800       0.0%    100.0%      0.0%
 flops     5 x    20 x    96          21368217600       0.0%    100.0%      0.0%
 flops    20 x     5 x    96          21368217600       0.0%    100.0%      0.0%
 flops    20 x    32 x    20          72858009600       0.0%    100.0%      0.0%
 flops     5 x     5 x   128          78661939200       0.0%    100.0%      0.0%
 flops    13 x     5 x   128         100240957440       0.0%    100.0%      0.0%
 flops     5 x    13 x   128         100375941120       0.0%    100.0%      0.0%
 flops    20 x    20 x   120         107993088000       0.0%    100.0%      0.0%
 flops    13 x    13 x   128         120648413184       0.0%    100.0%      0.0%
 flops    20 x    13 x   128         170411704320       0.0%    100.0%      0.0%
 flops    13 x    20 x   128         170910105600       0.0%    100.0%      0.0%
 flops    20 x    20 x    96         172788940800       0.0%    100.0%      0.0%
 flops     5 x    20 x   128         185191219200       0.0%    100.0%      0.0%
 flops    20 x     5 x   128         185191219200       0.0%    100.0%      0.0%
 flops    20 x    20 x   128        1497504153600       0.0%    100.0%      0.0%
 flops inhomo. stacks                           0       0.0%      0.0%      0.0%
 flops total                         3.227019E+12       0.0%    100.0%      0.0%
 flops max/rank                     28.773685E+09       0.0%    100.0%      0.0%
 matmuls inhomo. stacks                         0       0.0%      0.0%      0.0%
 matmuls total                           87675878       0.0%    100.0%      0.0%
 number of processed stacks                903507       0.0%    100.0%      0.0%
 average stack size                                     0.0      97.0       0.0
 marketing flops                     6.591599E+12
 -------------------------------------------------------------------------------
 # multiplications                             49
 max memory usage/rank               1.620697E+09
 # max total images/rank                        2
 # max 3D layers                                1
 # MPI messages exchanged                  181888
 MPI messages size (bytes):
  total size                       114.762359E+09
  min size                         272.640000E+03
  max size                           2.345400E+06
  average size                     630.950688E+03
 MPI breakdown and total messages size (bytes):
             size <=      128                   0                        0
       128 < size <=     8192                   0                        0
      8192 < size <=    32768                   0                        0
     32768 < size <=   131072                   0                        0
    131072 < size <=  4194304              181888             114762360408
   4194304 < size <= 16777216                   0                        0
  16777216 < size                               0                        0
 -------------------------------------------------------------------------------

 *** WARNING in dbcsr_mm.F:290 :: Using a non-square number of MPI ranks ***
 *** might lead to poor performance. Used ranks: 128 Suggested: 121 256  ***

 -------------------------------------------------------------------------------
 -                                                                             -
 -                      DBCSR MESSAGE PASSING PERFORMANCE                      -
 -                                                                             -
 -------------------------------------------------------------------------------
 ROUTINE             CALLS      AVE VOLUME [Bytes]
 MP_Bcast               46                     12.
 MP_Allreduce          446                     12.
 MP_Alltoall          1365                 582891.
 MP_ISend             3136                 299681.
 MP_IRecv             3136                 293176.
 -------------------------------------------------------------------------------

 -------------------------------------------------------------------------------
 -                                                                             -
 -                                DBM STATISTICS                               -
 -                                                                             -
 -------------------------------------------------------------------------------
    M  x    N  x    K                                          COUNT     PERCENT
 -------------------------------------------------------------------------------

 -------------------------------------------------------------------------------
 -                                                                             -
 -                                GRID STATISTICS                              -
 -                                                                             -
 -------------------------------------------------------------------------------
 LP    KERNEL             BACKEND                              COUNT     PERCENT
 4     collocate general  REF                               19003463      22.18%
 4     integrate general  REF                               18880786      22.03%
 3     collocate general  REF                               13237644      15.45%
 3     integrate general  REF                               13178872      15.38%
 2     collocate general  REF                               10475360      12.22%
 2     integrate general  REF                               10252480      11.96%
 5     integrate general  REF                                 404329       0.47%
 0     collocate general  REF                                 131328       0.15%
 0     integrate general  REF                                  65664       0.08%
 1     integrate general  REF                                  65664       0.08%
 -------------------------------------------------------------------------------

 MEMORY| Estimated peak process memory [MiB]                                1828

 -------------------------------------------------------------------------------
 ----                             MULTIGRID INFO                            ----
 -------------------------------------------------------------------------------
 count for grid        1:        1095859          cutoff [a.u.]          200.00
 count for grid        2:        1090730          cutoff [a.u.]           66.67
 count for grid        3:         714993          cutoff [a.u.]           22.22
 count for grid        4:         552630          cutoff [a.u.]            7.41
 total gridlevel count  :        3454212

 -------------------------------------------------------------------------------
 -                                                                             -
 -                         MESSAGE PASSING PERFORMANCE                         -
 -                                                                             -
 -------------------------------------------------------------------------------

 ROUTINE             CALLS      AVE VOLUME [Bytes]
 MP_Group                4
 MP_Bcast             2229                 302676.
 MP_Allreduce         3620                  29811.
 MP_Sync               100
 MP_Alltoall          2842               16886864.
 MP_SendRecv           508                   5805.
 MP_ISendRecv        23876                  61740.
 MP_Wait             42206
 MP_comm_split          48
 MP_ISend            17276                 256288.
 MP_IRecv            17276                 256288.
 MP_Recv               183                1688832.
 MP_Write_All            3                1797408.
 -------------------------------------------------------------------------------


 -------------------------------------------------------------------------------
 -                                                                             -
 -                           R E F E R E N C E S                               -
 -                                                                             -
 -------------------------------------------------------------------------------
 
 CP2K version 2022.1, the CP2K developers group (2022).
 CP2K is freely available from https://www.cp2k.org/ .

 Kuehne,Thomas D.; Iannuzzi,Marcella; Del Ben,Mauro;
 Rybkin,Vladimir V.; Seewald,Patrick; Stein,Frederick; Laino,Teodoro;
 Khaliullin,Rustam Z.; Schuett,Ole; Schiffmann,Florian; Golze,Dorothea;
 Wilhelm,Jan; Chulkov,Sergey; Bani-Hashemian,Mohammad Hossein;
 Weber,Valery; Borstnik,Urban; Taillefumier,Mathieu;
 Jakobovits,Alice Shoshana; Lazzaro,Alfio; Pabst,Hans; Mueller,Tiziano;
 Schade,Robert; Guidon,Manuel; Andermatt,Samuel; Holmberg,Nico;
 Schenter,Gregory K.; Hehn,Anna; Bussy,Augustin; Belleflamme,Fabian;
 Tabacchi,Gloria; Gloess,Andreas; Lass,Michael; Bethune,Iain;
 Mundy,Christopher J.; Plessl,Christian; Watkins,Matt;
 VandeVondele,Joost; Krack,Matthias; Hutter,Juerg. 
 The Journal of Chemical Physics, 152 (19), (2020). 
 CP2K: An electronic structure and molecular dynamics software package -
 Quickstep: Efficient and accurate electronic structure calculations.
 https://doi.org/10.1063/5.0007045

 Goerigk, Lars; Hansen, Andreas; Bauer, Christoph; Ehrlich, Stephan;
 Najibi, Asim; Grimme, Stefan. , 19 (48), (2017). 
 A look at the density functional theory zoo with the advanced GMTKN55 database
 for general main group thermochemistry, kinetics and noncovalent interactions.
 https://doi.org/10.1039/C7CP04913G

 Bani-Hashemian, MH; Bruck, S; Luisier, M; VandeVondele, J. 
 JOURNAL OF CHEMICAL PHYSICS, 144 (4), 044113 (2016). 
 A generalized Poisson solver for first-principles device simulations.
 https://doi.org/10.1063/1.4940796

 Schuett, Ole; Messmer, Peter; Hutter, Juerg; VandeVondele, Joost. 
 Electronic Structure Calculations on Graphics Processing Units, John
 Wiley & Sons, Ltd, 173-190 (2016). 
 GPU-Accelerated Sparse Matrix-Matrix Multiplication for
 Linear Scaling Density Functional Theory.
 https://doi.org/10.1002/9781118670712.ch8

 Heinecke, A; Henry, G; Hutchinson, M; Pabst, H. 
 Proceedings of Intl. Supercomputing Conference, 981-991 (2016). 
 LIBXSMM: Accelerating Small Matrix Multiplications
 by Runtime Code Generation.
 https://doi.org/10.1109/SC.2016.83

 Borstnik, U; VandeVondele, J; Weber, V; Hutter, J. 
 PARALLEL COMPUTING, 40 (5-6), 47-58 (2014). 
 Sparse matrix multiplication: The distributed block-compressed sparse
 row library.
 https://doi.org/10.1016/j.parco.2014.03.012

 Hutter, J; Iannuzzi, M; Schiffmann, F; VandeVondele, J. 
 WIREs Comput Mol Sci., 4 (1), 15-25 (2014). 
 CP2K: atomistic simulations of condensed matter systems.
 https://doi.org/10.1002/wcms.1159

 Marek, A; Blum, V; Johanni, R; Havu, V; Lang, B; Auckenthaler, T;
 Heinecke, A; Bungartz, H; Lederer, H. 
 Journal of Physics: Condensed Matter, 26 (21), (2014). 
 The ELPA library: scalable parallel eigenvalue solutions for
 electronic structure
 theory and computational science.
 https://doi.org/10.1088/0953-8984/26/21/213201

 Grimme, S; Ehrlich, S; Goerigk, L. 
 JOURNAL OF COMPUTATIONAL CHEMISTRY, 32, 1456 (2011). 
 Effect of the damping function in dispersion corrected density functional theory.
 https://doi.org/10.1002/jcc.21759

 Grimme, S; Antony, J; Ehrlich, S; Krieg, H. 
 JOURNAL OF CHEMICAL PHYSICS, 132 (15), 154104 (2010). 
 A consistent and accurate ab initio parametrization of density
 functional dispersion correction (DFT-D) for the 94 elements H-Pu.
 https://doi.org/10.1063/1.3382344

 VandeVondele, J; Hutter, J. 
 JOURNAL OF CHEMICAL PHYSICS, 127 (11), 114105 (2007). 
 Gaussian basis sets for accurate calculations on molecular systems in
 gas and condensed phases.
 https://doi.org/10.1063/1.2770708

 Krack, M. 
 THEORETICAL CHEMISTRY ACCOUNTS, 114 (1-3), 145-152 (2005). 
 Pseudopotentials for H to Kr optimized for gradient-corrected
 exchange-correlation functionals.
 https://doi.org/10.1007/s00214-005-0655-y

 VandeVondele, J; Krack, M; Mohamed, F; Parrinello, M; Chassaing, T;
 Hutter, J. COMPUTER PHYSICS COMMUNICATIONS, 167 (2), 103-128 (2005). 
 QUICKSTEP: Fast and accurate density functional calculations using a
 mixed Gaussian and plane waves approach.
 https://doi.org/10.1016/j.cpc.2004.12.014

 Frigo, M; Johnson, SG. 
 PROCEEDINGS OF THE IEEE, 93 (2), 216-231 (2005). 
 The design and implementation of FFTW3.
 https://doi.org/10.1109/JPROC.2004.840301

 Hartwigsen, C; Goedecker, S; Hutter, J. 
 PHYSICAL REVIEW B, 58 (7), 3641-3662 (1998). 
 Relativistic separable dual-space Gaussian pseudopotentials from H to Rn.
 https://doi.org/10.1103/PhysRevB.58.3641

 Lippert, G; Hutter, J; Parrinello, M. 
 MOLECULAR PHYSICS, 92 (3), 477-487 (1997). 
 A hybrid Gaussian and plane wave density functional scheme.
 https://doi.org/10.1080/002689797170220

 Perdew, JP; Burke, K; Ernzerhof, M. 
 PHYSICAL REVIEW LETTERS, 77 (18), 3865-3868 (1996). 
 Generalized gradient approximation made simple.
 https://doi.org/10.1103/PhysRevLett.77.3865

 Goedecker, S; Teter, M; Hutter, J. 
 PHYSICAL REVIEW B, 54 (3), 1703-1710 (1996). 
 Separable dual-space Gaussian pseudopotentials.
 https://doi.org/10.1103/PhysRevB.54.1703


 -------------------------------------------------------------------------------
 -                                                                             -
 -                                T I M I N G                                  -
 -                                                                             -
 -------------------------------------------------------------------------------
 SUBROUTINE                       CALLS  ASD         SELF TIME        TOTAL TIME
                                MAXIMUM       AVERAGE  MAXIMUM  AVERAGE  MAXIMUM
 CP2K                                 1  1.0    0.037    0.053  328.372  328.373
 qs_forces                            1  2.0    0.002    0.002  327.994  327.995
 qs_energies                          1  3.0    0.000    0.001  321.864  321.867
 scf_env_do_scf                       1  4.0    0.000    0.001  312.505  312.643
 scf_env_do_scf_inner_loop           46  5.0    0.003    0.017  312.501  312.640
 rebuild_ks_matrix                   47  6.9    0.000    0.000  167.988  168.027
 qs_ks_build_kohn_sham_matrix        47  7.9    0.007    0.010  167.988  168.026
 qs_ks_update_qs_env                 46  6.0    0.000    0.000  164.007  164.045
 pw_transfer                       2448 12.2    0.179    0.242  106.074  108.272
 fft_wrap_pw1pw2                   2448 13.2    0.023    0.028  105.895  108.030
 fft_wrap_pw1pw2_200               2166 14.4    7.200    8.486  104.445  106.469
 pw_poisson_solve                    47  8.9    0.005    0.013   91.222   91.252
 qs_scf_new_mos                      46  6.0    0.002    0.005   89.642   89.786
 fft3d_ps                          2448 15.2   30.820   34.357   85.028   88.248
 implicit_poisson_solver_mixed_      47  9.9    1.938    2.362   86.361   86.439
 eigensolver                         46  7.0    0.004    0.009   84.543   84.843
 derive_fft                         282 12.1    0.018    0.026   60.577   60.758
 cp_fm_diag_elpa                     48  8.0    0.001    0.001   59.489   59.637
 cp_fm_redistribute_end              48  9.0    7.863   58.924    7.972   58.997
 cp_fm_diag_elpa_base                48  9.0   50.248   57.629   50.736   58.138
 mp_alltoall_z22v                  2448 17.2   45.214   55.934   45.214   55.934
 apply_P_operator                   235 11.1    1.251    1.393   51.704   51.864
 qs_rho_update_rho_low               47  6.0    0.000    0.000   51.776   51.794
 calculate_rho_elec                  47  7.0    0.091    0.113   51.775   51.794
 sum_up_and_integrate                47  8.9    0.255    0.310   50.928   50.969
 integrate_v_rspace                  47  9.9    0.002    0.002   50.674   50.790
 grid_collocate_task_list            47  8.0   34.009   40.361   34.009   40.361
 grid_integrate_task_list            47 10.9   31.529   36.681   31.529   36.681
 x_to_yz                           1411 16.4    6.001    7.934   34.175   35.295
 cp_fm_triangular_multiply          138  8.0   26.391   26.661   26.391   26.661
 rs_pw_transfer                     380 10.4    0.004    0.005   22.627   26.159
 yz_to_x                            755 16.4    2.060    2.391   18.918   25.731
 qs_vxc_create                       47  8.9    0.001    0.002   23.151   23.446
 xc_vxc_pw_create                    47  9.9    0.401    0.494   23.150   23.445
 density_rs2pw                       47  8.0    0.003    0.003   16.599   20.254
 xc_pw_derive                       282 11.9    0.004    0.005   16.336   18.088
 apply_poisson_operator_fft          47 10.9    0.001    0.001   15.089   15.344
 apply_inv_laplace_operator_fft     143 11.6    0.358    0.416   13.872   14.401
 potential_pw2rs                     47 10.9    0.014    0.015   13.528   13.651
 mp_waitany                       17276 12.4    9.688   13.112    9.688   13.112
 rs_pw_transfer_RS2PW_200            49  9.9    3.213    3.550    9.617   13.073
 xc_pw_divergence                    47 10.9    0.002    0.003   11.074   12.405
 xc_rho_set_and_dset_create          47 10.9    0.233    0.284   11.264   11.954
 ps_implicit_compute_error_fft       94 10.9    0.591    0.720   10.127   10.849
 ps_implicit_compute_veps            47 10.9    0.272    0.338   10.401   10.601
 mp_alltoall_d11v                   680 10.3    7.135   10.486    7.135   10.486
 pw_scatter_p                      1552 15.4    8.706   10.147    8.706   10.147
 rs_gather_matrices                  47 10.9    0.058    0.069    5.604    8.864
 rs_pw_transfer_PW2RS_200            49 12.8    3.679    3.848    7.756    7.933
 gspace_mixing                       45  6.0    0.086    0.108    7.864    7.865
 pw_derive                         1128 13.1    7.135    7.543    7.135    7.543
 -------------------------------------------------------------------------------

 The number of warnings for this run is : 1
 
 -------------------------------------------------------------------------------
  **** **** ******  **  PROGRAM ENDED AT                 2023-12-03 09:43:50.414
 ***** ** ***  *** **   PROGRAM RAN ON                                     cu001
 **    ****   ******    PROGRAM RAN BY                                     jxzhu
 ***** **    ** ** **   PROGRAM PROCESS ID                                 29935
  **** **  *******  **  PROGRAM STOPPED IN /public/home/jxzhu/tmp_calc/aa4faa1fc
                                           a3d564ba24f427c54e63847ef7a399f/calc/
                                           003200.000/search_hi.000000
