 DBCSR| CPU Multiplication driver                                           XSMM
 DBCSR| Multrec recursion limit                                              512
 DBCSR| Multiplication stack size                                           1000
 DBCSR| Maximum elements for images                                    UNLIMITED
 DBCSR| Multiplicative factor virtual images                                   1
 DBCSR| Use multiplication densification                                       T
 DBCSR| Multiplication size stacks                                             3
 DBCSR| Use memory pool for CPU allocation                                     F
 DBCSR| Number of 3D layers                                               SINGLE
 DBCSR| Use MPI memory allocation                                              F
 DBCSR| Use RMA algorithm                                                      F
 DBCSR| Use Communication thread                                               T
 DBCSR| Communication thread load                                             87
 DBCSR| MPI: My node id                                                        0
 DBCSR| MPI: Number of nodes                                                 128
 DBCSR| OMP: Current number of threads                                         1
 DBCSR| OMP: Max number of threads                                             1
 DBCSR| Split modifier for TAS multiplication algorithm                  1.0E+00


  **** **** ******  **  PROGRAM STARTED AT               2023-12-02 09:34:30.133
 ***** ** ***  *** **   PROGRAM STARTED ON                                 cu001
 **    ****   ******    PROGRAM STARTED BY                                 jxzhu
 ***** **    ** ** **   PROGRAM PROCESS ID                                 41664
  **** **  *******  **  PROGRAM STARTED IN /public/home/jxzhu/tmp_calc/3045f7996
                                           f9196d094a9f9f7295f7262475b33a3/calc/
                                           001200.000/search_lo.000000

 CP2K| version string:                                       CP2K version 2022.1
 CP2K| source code revision number:                                  git:2caeb6f
 CP2K| cp2kflags: omp libint fftw3 libxc elpa parallel mpi3 scalapack cosma xsmm
 CP2K|             plumed2 spglib mkl sirius libvori libbqb
 CP2K| is freely available from                            https://www.cp2k.org/
 CP2K| Program compiled at                           Mon Jul 3 17:37:06 CST 2023
 CP2K| Program compiled on                                                 mu003
 CP2K| Program compiled for                                                local
 CP2K| Data directory path                             /public/home/jxzhu/basis/
 CP2K| Input file name                                                 input.inp
 
 GLOBAL| Force Environment number                                              1
 GLOBAL| Basis set file name                                        BASIS_MOLOPT
 GLOBAL| Potential file name                                      GTH_POTENTIALS
 GLOBAL| MM Potential file name                                     MM_POTENTIAL
 GLOBAL| Coordinate file name                                          coord.xyz
 GLOBAL| Method name                                                        CP2K
 GLOBAL| Project name                                                       cp2k
 GLOBAL| Run type                                                   ENERGY_FORCE
 GLOBAL| FFT library                                                       FFTW3
 GLOBAL| Diagonalization library                                            ELPA
 GLOBAL| Minimum number of eigenvectors for ELPA usage                        16
 GLOBAL| Orthonormality check for eigenvectors                          DISABLED
 GLOBAL| Matrix multiplication library                                     COSMA
 GLOBAL| All-to-all communication in single precision                          F
 GLOBAL| FFTs using library dependent lengths                                  T
 GLOBAL| Grid backend                                                       AUTO
 GLOBAL| Global print level                                               MEDIUM
 GLOBAL| MPI I/O enabled                                                       T
 GLOBAL| Total number of message passing processes                           128
 GLOBAL| Number of threads for this process                                    1
 GLOBAL| This output is from process                                           0
 GLOBAL| Stack size for threads created by OpenMP (OMP_STACKSIZE)        default
 GLOBAL| CPU model name                 Intel(R) Xeon(R) Gold 6338 CPU @ 2.00GHz
 GLOBAL| CPUID                                                              1003

 MEMORY| system memory details [Kb]
 MEMORY|                        rank 0           min           max       average
 MEMORY| MemTotal            263619172     263619172     263619172     263619172
 MEMORY| MemFree             219169184     215995584     219171664     217582656
 MEMORY| Buffers                    20            20            36            28
 MEMORY| Cached                1552732        966360       1552732       1259546
 MEMORY| Slab                  1371536       1371536       1443324       1407430
 MEMORY| SReclaimable           245072        232860        245072        238966
 MEMORY| MemLikelyFree       220967008     217194840     220969488     219081196


 *** Fundamental physical constants (SI units) ***

 *** Literature: B. J. Mohr and B. N. Taylor,
 ***             CODATA recommended values of the fundamental physical
 ***             constants: 2006, Web Version 5.1
 ***             http://physics.nist.gov/constants

 Speed of light in vacuum [m/s]                             2.99792458000000E+08
 Magnetic constant or permeability of vacuum [N/A**2]       1.25663706143592E-06
 Electric constant or permittivity of vacuum [F/m]          8.85418781762039E-12
 Planck constant (h) [J*s]                                  6.62606896000000E-34
 Planck constant (h-bar) [J*s]                              1.05457162825177E-34
 Elementary charge [C]                                      1.60217648700000E-19
 Electron mass [kg]                                         9.10938215000000E-31
 Electron g factor [ ]                                     -2.00231930436220E+00
 Proton mass [kg]                                           1.67262163700000E-27
 Fine-structure constant                                    7.29735253760000E-03
 Rydberg constant [1/m]                                     1.09737315685270E+07
 Avogadro constant [1/mol]                                  6.02214179000000E+23
 Boltzmann constant [J/K]                                   1.38065040000000E-23
 Atomic mass unit [kg]                                      1.66053878200000E-27
 Bohr radius [m]                                            5.29177208590000E-11

 *** Conversion factors ***

 [u] -> [a.u.]                                              1.82288848426455E+03
 [Angstrom] -> [Bohr] = [a.u.]                              1.88972613288564E+00
 [a.u.] = [Bohr] -> [Angstrom]                              5.29177208590000E-01
 [a.u.] -> [s]                                              2.41888432650478E-17
 [a.u.] -> [fs]                                             2.41888432650478E-02
 [a.u.] -> [J]                                              4.35974393937059E-18
 [a.u.] -> [N]                                              8.23872205491840E-08
 [a.u.] -> [K]                                              3.15774647902944E+05
 [a.u.] -> [kJ/mol]                                         2.62549961709828E+03
 [a.u.] -> [kcal/mol]                                       6.27509468713739E+02
 [a.u.] -> [Pa]                                             2.94210107994716E+13
 [a.u.] -> [bar]                                            2.94210107994716E+08
 [a.u.] -> [atm]                                            2.90362800883016E+08
 [a.u.] -> [eV]                                             2.72113838565563E+01
 [a.u.] -> [Hz]                                             6.57968392072181E+15
 [a.u.] -> [1/cm] (wave numbers)                            2.19474631370540E+05
 [a.u./Bohr**2] -> [1/cm]                                   5.14048714338585E+03
 

 CELL_TOP| Volume [angstrom^3]:                                     17614.982639
 CELL_TOP| Vector a [angstrom    16.869     0.000     0.000   |a| =    16.869000
 CELL_TOP| Vector b [angstrom    -8.434    14.609     0.000   |b| =    16.869015
 CELL_TOP| Vector c [angstrom     0.000     0.000    71.478   |c| =    71.478000
 CELL_TOP| Angle (b,c), alpha [degree]:                                90.000000
 CELL_TOP| Angle (a,c), beta  [degree]:                                90.000000
 CELL_TOP| Angle (a,b), gamma [degree]:                               119.999970
 CELL_TOP| Numerically orthorhombic:                                          NO
 
 GENERATE|  Preliminary Number of Bonds generated:                             0
 GENERATE|  Achieved consistency in connectivity generation.

 CELL| Volume [angstrom^3]:                                         17614.982639
 CELL| Vector a [angstrom]:      16.869     0.000     0.000   |a| =    16.869000
 CELL| Vector b [angstrom]:      -8.434    14.609     0.000   |b| =    16.869015
 CELL| Vector c [angstrom]:       0.000     0.000    71.478   |c| =    71.478000
 CELL| Angle (b,c), alpha [degree]:                                    90.000000
 CELL| Angle (a,c), beta  [degree]:                                    90.000000
 CELL| Angle (a,b), gamma [degree]:                                   119.999970
 CELL| Numerically orthorhombic:                                              NO

 CELL_REF| Volume [angstrom^3]:                                     17614.982639
 CELL_REF| Vector a [angstrom    16.869     0.000     0.000   |a| =    16.869000
 CELL_REF| Vector b [angstrom    -8.434    14.609     0.000   |b| =    16.869015
 CELL_REF| Vector c [angstrom     0.000     0.000    71.478   |c| =    71.478000
 CELL_REF| Angle (b,c), alpha [degree]:                                90.000000
 CELL_REF| Angle (a,c), beta  [degree]:                                90.000000
 CELL_REF| Angle (a,b), gamma [degree]:                               119.999970
 CELL_REF| Numerically orthorhombic:                                          NO

 *******************************************************************************
 *******************************************************************************
 **                                                                           **
 **     #####                         ##              ##                      **
 **    ##   ##            ##          ##              ##                      **
 **   ##     ##                       ##            ######                    **
 **   ##     ##  ##   ##  ##   #####  ##  ##   ####   ##    #####    #####    **
 **   ##     ##  ##   ##  ##  ##      ## ##   ##      ##   ##   ##  ##   ##   **
 **   ##  ## ##  ##   ##  ##  ##      ####     ###    ##   ######   ######    **
 **    ##  ###   ##   ##  ##  ##      ## ##      ##   ##   ##       ##        **
 **     #######   #####   ##   #####  ##  ##  ####    ##    #####   ##        **
 **           ##                                                    ##        **
 **                                                                           **
 **                                                ... make the atoms dance   **
 **                                                                           **
 **            Copyright (C) by CP2K developers group (2000-2022)             **
 **                      J. Chem. Phys. 152, 194103 (2020)                    **
 **                                                                           **
 *******************************************************************************

 DFT| Spin restricted Kohn-Sham (RKS) calculation                            RKS
 DFT| Multiplicity                                                             1
 DFT| Number of spin states                                                    1
 DFT| Charge                                                                   0
 DFT| Self-interaction correction (SIC)                                       NO
 DFT| Cutoffs: density                                              1.000000E-10
 DFT|          gradient                                             1.000000E-10
 DFT|          tau                                                  1.000000E-10
 DFT|          cutoff_smoothing_range                               0.000000E+00
 DFT| XC density smoothing                                                  NONE
 DFT| XC derivatives                                                          PW

 FUNCTIONAL| PBE:
 FUNCTIONAL| J.P.Perdew, K.Burke, M.Ernzerhof, Phys. Rev. Letter, vol. 77, n 18,
 FUNCTIONAL|  pp. 3865-3868, (1996){spin unpolarized}                           

 vdW POTENTIAL|                                                   Pair Potential
 vdW POTENTIAL|          DFT-D3 (Version 3.1)
 vdW POTENTIAL|          Potential Form: S. Grimme et al, JCP 132: 154104 (2010)
 vdW POTENTIAL|          Zero Damping
 vdW POTENTIAL|          Cutoff Radius [Bohr]:                             20.00
 vdW POTENTIAL|          s6 Scaling Factor:                               1.0000
 vdW POTENTIAL|          sr6 Scaling Factor:                              1.2170
 vdW POTENTIAL|          s8 Scaling Factor:                               0.7220
 vdW POTENTIAL|          Cutoff for CN calculation:                   0.1000E-05

 QS| Method:                                                                 GPW
 QS| Density plane wave grid type                        NON-SPHERICAL FULLSPACE
 QS| Number of grid levels:                                                    4
 QS| Density cutoff [a.u.]:                                                200.0
 QS| Multi grid cutoff [a.u.]: 1) grid level                               200.0
 QS|                           2) grid level                                66.7
 QS|                           3) grid level                                22.2
 QS|                           4) grid level                                 7.4
 QS| Grid level progression factor:                                          3.0
 QS| Relative density cutoff [a.u.]:                                        20.0
 QS| Interaction thresholds: eps_pgf_orb:                                3.2E-07
 QS|                         eps_filter_matrix:                          0.0E+00
 QS|                         eps_core_charge:                            1.0E-15
 QS|                         eps_rho_gspace:                             1.0E-13
 QS|                         eps_rho_rspace:                             1.0E-13
 QS|                         eps_gvg_rspace:                             3.2E-07
 QS|                         eps_ppl:                                    1.0E-02
 QS|                         eps_ppnl:                                   3.2E-09


 ATOMIC KIND INFORMATION

  1. Atomic kind: O                                     Number of atoms:      99

     Orbital Basis Set                                        DZVP-MOLOPT-SR-GTH

       Number of orbital shell sets:                                           1
       Number of orbital shells:                                               5
       Number of primitive Cartesian functions:                                5
       Number of Cartesian basis functions:                                   14
       Number of spherical basis functions:                                   13
       Norm type:                                                              2

       Normalised Cartesian orbitals:

                        Set   Shell   Orbital            Exponent    Coefficient

                          1       1    2s               10.389228       0.396646
                                                         3.849621       0.208811
                                                         1.388401      -0.301641
                                                         0.496955      -0.274061
                                                         0.162492      -0.033677

                          1       2    3s               10.389228       0.303673
                                                         3.849621       0.240943
                                                         1.388401      -0.313066
                                                         0.496955      -0.043055
                                                         0.162492       0.213991

                          1       3    3px              10.389228      -1.530415
                                                         3.849621      -1.371928
                                                         1.388401      -0.761951
                                                         0.496955      -0.253695
                                                         0.162492      -0.035541
                          1       3    3py              10.389228      -1.530415
                                                         3.849621      -1.371928
                                                         1.388401      -0.761951
                                                         0.496955      -0.253695
                                                         0.162492      -0.035541
                          1       3    3pz              10.389228      -1.530415
                                                         3.849621      -1.371928
                                                         1.388401      -0.761951
                                                         0.496955      -0.253695
                                                         0.162492      -0.035541

                          1       4    4px              10.389228      -0.565392
                                                         3.849621      -0.038231
                                                         1.388401      -0.382373
                                                         0.496955       0.179070
                                                         0.162492       0.122714
                          1       4    4py              10.389228      -0.565392
                                                         3.849621      -0.038231
                                                         1.388401      -0.382373
                                                         0.496955       0.179070
                                                         0.162492       0.122714
                          1       4    4pz              10.389228      -0.565392
                                                         3.849621      -0.038231
                                                         1.388401      -0.382373
                                                         0.496955       0.179070
                                                         0.162492       0.122714

                          1       5    4dx2             10.389228       1.867377
                                                         3.849621       0.670994
                                                         1.388401       1.353441
                                                         0.496955       0.273538
                                                         0.162492       0.006620
                          1       5    4dxy             10.389228       3.234392
                                                         3.849621       1.162195
                                                         1.388401       2.344229
                                                         0.496955       0.473781
                                                         0.162492       0.011466
                          1       5    4dxz             10.389228       3.234392
                                                         3.849621       1.162195
                                                         1.388401       2.344229
                                                         0.496955       0.473781
                                                         0.162492       0.011466
                          1       5    4dy2             10.389228       1.867377
                                                         3.849621       0.670994
                                                         1.388401       1.353441
                                                         0.496955       0.273538
                                                         0.162492       0.006620
                          1       5    4dyz             10.389228       3.234392
                                                         3.849621       1.162195
                                                         1.388401       2.344229
                                                         0.496955       0.473781
                                                         0.162492       0.011466
                          1       5    4dz2             10.389228       1.867377
                                                         3.849621       0.670994
                                                         1.388401       1.353441
                                                         0.496955       0.273538
                                                         0.162492       0.006620

       Atomic covalent radius [Angstrom]:                                  0.730

       Atomic van der Waals radius [Angstrom]:                             1.520

     GTH Potential information for                                    GTH-PBE-q6

       Description:                       Goedecker-Teter-Hutter pseudopotential
                                           Goedecker et al., PRB 54, 1703 (1996)
                                          Hartwigsen et al., PRB 58, 3641 (1998)
                                                      Krack, TCA 114, 145 (2005)

       Gaussian exponent of the core charge distribution:               8.360253
       Electronic configuration (s p d ...):                               2   4

       Parameters of the local part of the GTH pseudopotential:

                          rloc        C1          C2          C3          C4
                        0.244554  -16.667215    2.487311

       Parameters of the non-local part of the GTH pseudopotential:

                   l      r(l)      h(i,j,l)

                   0    0.220956   18.337458
                   1    0.211332

  2. Atomic kind: H                                     Number of atoms:     198

     Orbital Basis Set                                        DZVP-MOLOPT-SR-GTH

       Number of orbital shell sets:                                           1
       Number of orbital shells:                                               3
       Number of primitive Cartesian functions:                                5
       Number of Cartesian basis functions:                                    5
       Number of spherical basis functions:                                    5
       Norm type:                                                              2

       Normalised Cartesian orbitals:

                        Set   Shell   Orbital            Exponent    Coefficient

                          1       1    2s               10.068468      -0.133023
                                                         2.680223      -0.177618
                                                         0.791502      -0.258419
                                                         0.239116      -0.107525
                                                         0.082193      -0.014019

                          1       2    3s               10.068468       0.344673
                                                         2.680223       1.819821
                                                         0.791502      -0.999069
                                                         0.239116       0.017430
                                                         0.082193       0.082660

                          1       3    3px              10.068468       0.155326
                                                         2.680223       0.367157
                                                         0.791502       0.311480
                                                         0.239116       0.080105
                                                         0.082193       0.033440
                          1       3    3py              10.068468       0.155326
                                                         2.680223       0.367157
                                                         0.791502       0.311480
                                                         0.239116       0.080105
                                                         0.082193       0.033440
                          1       3    3pz              10.068468       0.155326
                                                         2.680223       0.367157
                                                         0.791502       0.311480
                                                         0.239116       0.080105
                                                         0.082193       0.033440

       Atomic covalent radius [Angstrom]:                                  0.320

       Atomic van der Waals radius [Angstrom]:                             1.090

     GTH Potential information for                                    GTH-PBE-q1

       Description:                       Goedecker-Teter-Hutter pseudopotential
                                           Goedecker et al., PRB 54, 1703 (1996)
                                          Hartwigsen et al., PRB 58, 3641 (1998)
                                                      Krack, TCA 114, 145 (2005)

       Gaussian exponent of the core charge distribution:              12.500000
       Electronic configuration (s p d ...):                                   1

       Parameters of the local part of the GTH pseudopotential:

                          rloc        C1          C2          C3          C4
                        0.200000   -4.178900    0.724463

  3. Atomic kind: Pt                                    Number of atoms:     216

     Orbital Basis Set                      DZVP-A5-Q10-323-MOL-T1-DERIVED_SET-1

       Number of orbital shell sets:                                           1
       Number of orbital shells:                                               6
       Number of primitive Cartesian functions:                                5
       Number of Cartesian basis functions:                                   23
       Number of spherical basis functions:                                   20
       Norm type:                                                              2

       Normalised Cartesian orbitals:

                        Set   Shell   Orbital            Exponent    Coefficient

                          1       1    2s                2.521825       0.177473
                                                         1.453920      -0.063399
                                                         0.614053      -0.407089
                                                         0.232656       0.262254
                                                         0.074788       0.047371

                          1       2    3s                2.521825      -0.049056
                                                         1.453920       0.044904
                                                         0.614053      -0.009756
                                                         0.232656      -0.144709
                                                         0.074788       0.144085

                          1       3    3px               2.521825      -0.317572
                                                         1.453920       0.534826
                                                         0.614053      -0.489458
                                                         0.232656       0.245631
                                                         0.074788       0.018221
                          1       3    3py               2.521825      -0.317572
                                                         1.453920       0.534826
                                                         0.614053      -0.489458
                                                         0.232656       0.245631
                                                         0.074788       0.018221
                          1       3    3pz               2.521825      -0.317572
                                                         1.453920       0.534826
                                                         0.614053      -0.489458
                                                         0.232656       0.245631
                                                         0.074788       0.018221

                          1       4    4dx2              2.521825       3.008522
                                                         1.453920      -1.224251
                                                         0.614053       0.225691
                                                         0.232656       0.125144
                                                         0.074788      -0.015348
                          1       4    4dxy              2.521825       5.210912
                                                         1.453920      -2.120465
                                                         0.614053       0.390909
                                                         0.232656       0.216756
                                                         0.074788      -0.026584
                          1       4    4dxz              2.521825       5.210912
                                                         1.453920      -2.120465
                                                         0.614053       0.390909
                                                         0.232656       0.216756
                                                         0.074788      -0.026584
                          1       4    4dy2              2.521825       3.008522
                                                         1.453920      -1.224251
                                                         0.614053       0.225691
                                                         0.232656       0.125144
                                                         0.074788      -0.015348
                          1       4    4dyz              2.521825       5.210912
                                                         1.453920      -2.120465
                                                         0.614053       0.390909
                                                         0.232656       0.216756
                                                         0.074788      -0.026584
                          1       4    4dz2              2.521825       3.008522
                                                         1.453920      -1.224251
                                                         0.614053       0.225691
                                                         0.232656       0.125144
                                                         0.074788      -0.015348

                          1       5    5dx2              2.521825       0.698026
                                                         1.453920      -1.511486
                                                         0.614053      -0.335394
                                                         0.232656      -0.025564
                                                         0.074788      -0.002699
                          1       5    5dxy              2.521825       1.209017
                                                         1.453920      -2.617970
                                                         0.614053      -0.580920
                                                         0.232656      -0.044277
                                                         0.074788      -0.004674
                          1       5    5dxz              2.521825       1.209017
                                                         1.453920      -2.617970
                                                         0.614053      -0.580920
                                                         0.232656      -0.044277
                                                         0.074788      -0.004674
                          1       5    5dy2              2.521825       0.698026
                                                         1.453920      -1.511486
                                                         0.614053      -0.335394
                                                         0.232656      -0.025564
                                                         0.074788      -0.002699
                          1       5    5dyz              2.521825       1.209017
                                                         1.453920      -2.617970
                                                         0.614053      -0.580920
                                                         0.232656      -0.044277
                                                         0.074788      -0.004674
                          1       5    5dz2              2.521825       0.698026
                                                         1.453920      -1.511486
                                                         0.614053      -0.335394
                                                         0.232656      -0.025564
                                                         0.074788      -0.002699

                          1       6    6dx2              2.521825       0.831079
                                                         1.453920      -0.709226
                                                         0.614053      -0.137351
                                                         0.232656       0.068642
                                                         0.074788       0.011745
                          1       6    6dxy              2.521825       1.439472
                                                         1.453920      -1.228415
                                                         0.614053      -0.237899
                                                         0.232656       0.118891
                                                         0.074788       0.020343
                          1       6    6dxz              2.521825       1.439472
                                                         1.453920      -1.228415
                                                         0.614053      -0.237899
                                                         0.232656       0.118891
                                                         0.074788       0.020343
                          1       6    6dy2              2.521825       0.831079
                                                         1.453920      -0.709226
                                                         0.614053      -0.137351
                                                         0.232656       0.068642
                                                         0.074788       0.011745
                          1       6    6dyz              2.521825       1.439472
                                                         1.453920      -1.228415
                                                         0.614053      -0.237899
                                                         0.232656       0.118891
                                                         0.074788       0.020343
                          1       6    6dz2              2.521825       0.831079
                                                         1.453920      -0.709226
                                                         0.614053      -0.137351
                                                         0.232656       0.068642
                                                         0.074788       0.011745

       Atomic covalent radius [Angstrom]:                                  1.300

       Atomic van der Waals radius [Angstrom]:                             1.750

     GTH Potential information for                                   GTH-PBE-q10

       Description:                       Goedecker-Teter-Hutter pseudopotential
                                           Goedecker et al., PRB 54, 1703 (1996)
                                          Hartwigsen et al., PRB 58, 3641 (1998)
                                                      Krack, TCA 114, 145 (2005)

       Gaussian exponent of the core charge distribution:               1.317676
       Electronic configuration (s p d ...):                           1   0   9

       Parameters of the local part of the GTH pseudopotential:

                          rloc        C1          C2          C3          C4
                        0.616000   11.313635

       Parameters of the non-local part of the GTH pseudopotential:

                   l      r(l)      h(i,j,l)

                   0    0.550904    4.733491   -1.784594
                                   -1.784594    2.303901
                   1    0.674138    2.534798   -1.778066
                                   -1.778066    2.103836
                   2    0.457392   -7.264011    2.558665
                                    2.558665   -2.901253


 MOLECULE KIND INFORMATION


 All atoms are their own molecule, skipping detailed information


 TOTAL NUMBERS AND MAXIMUM NUMBERS

  Total number of            - Atomic kinds:                                   3
                             - Atoms:                                        513
                             - Shell sets:                                   513
                             - Shells:                                      2385
                             - Primitive Cartesian functions:               2565
                             - Cartesian basis functions:                   7344
                             - Spherical basis functions:                   6597

  Maximum angular momentum of- Orbital basis functions:                        2
                             - Local part of the GTH pseudopotential:          2
                             - Non-local part of the GTH pseudopotential:      4


 MODULE QUICKSTEP:  ATOMIC COORDINATES IN angstrom

 Atom  Kind  Element       X           Y           Z          Z(eff)       Mass
    1   1 O    8       8.140000    0.160000   36.577998       6.0000     15.9994
    2   2 H    1       7.990000    0.500000   37.507999       1.0000      1.0079
    3   2 H    1       7.700000    0.870000   36.007999       1.0000      1.0079
    4   1 O    8       2.180000    5.330000   30.827998       6.0000     15.9994
    5   2 H    1       2.230000    4.460000   30.377999       1.0000      1.0079
    6   2 H    1       1.970000    6.040000   30.097999       1.0000      1.0079
    7   1 O    8       1.840000   -2.430000   38.667999       6.0000     15.9994
    8   2 H    1       2.500000   -3.190000   38.548000       1.0000      1.0079
    9   2 H    1       1.770000   -2.360000   39.687999       1.0000      1.0079
   10   1 O    8       7.330000    4.420000   36.817999       6.0000     15.9994
   11   2 H    1       8.290001    4.600000   36.857999       1.0000      1.0079
   12   2 H    1       7.250000    3.560000   36.367999       1.0000      1.0079
   13   1 O    8       7.790000   28.680000   29.627999       6.0000     15.9994
   14   2 H    1       6.960001   28.360003   29.307998       1.0000      1.0079
   15   2 H    1       7.920001   28.100002   30.417999       1.0000      1.0079
   16   1 O    8       3.310000   33.020000   37.337999       6.0000     15.9994
   17   2 H    1       4.190001   33.120003   37.757999       1.0000      1.0079
   18   2 H    1       3.390000   32.160000   36.787999       1.0000      1.0079
   19   1 O    8      -1.580000   27.220001   30.377999       6.0000     15.9994
   20   2 H    1      -2.400000   26.600000   30.167999       1.0000      1.0079
   21   2 H    1       6.920000   12.780001   31.357999       1.0000      1.0079
   22   1 O    8       6.500000    2.150000   35.298000       6.0000     15.9994
   23   2 H    1       5.530000    1.960000   35.397999       1.0000      1.0079
   24   2 H    1       6.660000    2.480000   34.378000       1.0000      1.0079
   25   1 O    8      16.760002   19.940001   30.087999       6.0000     15.9994
   26   2 H    1      16.790001   19.220001   29.457999       1.0000      1.0079
   27   2 H    1      17.070002   19.520000   30.947999       1.0000      1.0079
   28   1 O    8      -9.910001   11.820001   35.017999       6.0000     15.9994
   29   2 H    1     -10.010000   10.900001   35.227998       1.0000      1.0079
   30   2 H    1     -10.380001   12.170000   35.917999       1.0000      1.0079
   31   1 O    8       1.690000   16.780001   33.918000       6.0000     15.9994
   32   2 H    1       0.900000   16.230000   33.918000       1.0000      1.0079
   33   2 H    1       1.440000   17.620001   33.437998       1.0000      1.0079
   34   1 O    8      21.040001   -8.080000   29.717999       6.0000     15.9994
   35   2 H    1      21.140001   -9.080001   29.797999       1.0000      1.0079
   36   2 H    1      38.279999   -7.670000   30.497999       1.0000      1.0079
   37   1 O    8      10.260000    2.020000   29.147999       6.0000     15.9994
   38   2 H    1       0.870000   16.550001   29.407999       1.0000      1.0079
   39   2 H    1      10.650001    2.930000   29.547999       1.0000      1.0079
   40   1 O    8      -6.480000  -30.320000   35.847999       6.0000     15.9994
   41   2 H    1      -7.410001  -29.920002   35.997999       1.0000      1.0079
   42   2 H    1      -6.350000  -30.480001   34.888000       1.0000      1.0079
   43   1 O    8      -3.020000   20.670002   29.927999       6.0000     15.9994
   44   2 H    1      -2.100000   20.430000   29.807999       1.0000      1.0079
   45   2 H    1      -3.360000   20.500002   29.037999       1.0000      1.0079
   46   1 O    8      13.460001   -3.940000   29.987998       6.0000     15.9994
   47   2 H    1      -2.700000   -4.620000   30.107999       1.0000      1.0079
   48   2 H    1      13.320000   -3.980000   28.997999       1.0000      1.0079
   49   1 O    8      -0.900000  -13.330001   38.968000       6.0000     15.9994
   50   2 H    1      -0.780000  -14.080001   39.628000       1.0000      1.0079
   51   2 H    1      -0.270000  -12.570001   39.317998       1.0000      1.0079
   52   1 O    8      13.360001   16.330002   39.827998       6.0000     15.9994
   53   2 H    1      14.250001   15.960001   39.537999       1.0000      1.0079
   54   2 H    1      13.570002   17.270000   39.537999       1.0000      1.0079
   55   1 O    8     -22.139999  -14.680000   38.117999       6.0000     15.9994
   56   2 H    1     -21.200001  -14.940001   38.067998       1.0000      1.0079
   57   2 H    1     -22.670002  -15.500001   38.298000       1.0000      1.0079
   58   1 O    8       0.350000   10.010000   37.568000       6.0000     15.9994
   59   2 H    1      -0.340000   10.370001   36.907999       1.0000      1.0079
   60   2 H    1      -0.060000    9.800000   38.447999       1.0000      1.0079
   61   1 O    8      23.600002   15.440001   38.607999       6.0000     15.9994
   62   2 H    1      22.980001   16.230000   38.327998       1.0000      1.0079
   63   2 H    1      24.510002   15.660001   38.447999       1.0000      1.0079
   64   1 O    8      12.610001   20.280001   32.977998       6.0000     15.9994
   65   2 H    1      12.230001   20.140001   33.877999       1.0000      1.0079
   66   2 H    1      11.810001   20.110001   32.377999       1.0000      1.0079
   67   1 O    8      11.480000   -4.580000   37.197999       6.0000     15.9994
   68   2 H    1      12.120000   -5.110001   37.657998       1.0000      1.0079
   69   2 H    1       2.100000    9.970000   37.458000       1.0000      1.0079
   70   1 O    8       4.390000   25.790003   29.857998       6.0000     15.9994
   71   2 H    1       4.240000   25.420000   29.017999       1.0000      1.0079
   72   2 H    1       4.400000   26.790001   29.697999       1.0000      1.0079
   73   1 O    8     -11.400002   33.460003   39.048000       6.0000     15.9994
   74   2 H    1       6.270000   33.670002   38.488000       1.0000      1.0079
   75   2 H    1     -11.430000   34.100002   39.808000       1.0000      1.0079
   76   1 O    8       0.850000   -2.750000   29.917999       6.0000     15.9994
   77   2 H    1      -0.170000   -2.540000   29.997999       1.0000      1.0079
   78   2 H    1       0.970000   -3.150000   29.097999       1.0000      1.0079
   79   1 O    8      -7.750000    4.470000   32.527999       6.0000     15.9994
   80   2 H    1      -7.300000    5.310000   32.867999       1.0000      1.0079
   81   2 H    1      -8.630000    4.460000   33.007999       1.0000      1.0079
   82   1 O    8     -32.730003    7.670000   36.057999       6.0000     15.9994
   83   2 H    1     -16.060001    8.510000   36.587999       1.0000      1.0079
   84   2 H    1     -15.870001    7.990000   35.107999       1.0000      1.0079
   85   1 O    8      11.510000   -4.750000   34.197999       6.0000     15.9994
   86   2 H    1      11.570001   -4.590000   35.147998       1.0000      1.0079
   87   2 H    1      12.300000   -5.330000   33.907998       1.0000      1.0079
   88   1 O    8      -0.300000   34.570004   32.217999       6.0000     15.9994
   89   2 H    1       0.680000   34.580002   32.187998       1.0000      1.0079
   90   2 H    1      -0.560000   34.630001   31.257999       1.0000      1.0079
   91   1 O    8       9.210001    8.950001   30.867998       6.0000     15.9994
   92   2 H    1       9.640000    9.830000   30.867998       1.0000      1.0079
   93   2 H    1       9.740001    8.470000   30.117998       1.0000      1.0079
   94   1 O    8     -11.730001   17.780001   37.937999       6.0000     15.9994
   95   2 H    1     -12.610001   17.360001   37.787999       1.0000      1.0079
   96   2 H    1     -11.370001   17.750000   37.048000       1.0000      1.0079
   97   1 O    8       8.820001   16.000000   29.817998       6.0000     15.9994
   98   2 H    1       8.450001   15.930000   30.787999       1.0000      1.0079
   99   2 H    1       8.200001   16.400002   29.137999       1.0000      1.0079
  100   1 O    8      26.250002   -4.940000   32.427999       6.0000     15.9994
  101   2 H    1      18.370001    9.830000   33.237998       1.0000      1.0079
  102   2 H    1      25.530003   -5.600000   32.557999       1.0000      1.0079
  103   1 O    8       9.190001    8.200001   36.168000       6.0000     15.9994
  104   2 H    1       8.400001    8.420001   35.677999       1.0000      1.0079
  105   2 H    1       8.950001    8.370000   37.067998       1.0000      1.0079
  106   1 O    8      -1.190000   33.930000   29.907998       6.0000     15.9994
  107   2 H    1      -0.920000   34.210003   29.027998       1.0000      1.0079
  108   2 H    1      14.910001   33.390003   29.767999       1.0000      1.0079
  109   1 O    8      -4.970000    9.990001   38.877998       6.0000     15.9994
  110   2 H    1      -5.610001    9.190001   39.027999       1.0000      1.0079
  111   2 H    1      -4.520000    9.640000   37.987998       1.0000      1.0079
  112   1 O    8       6.740000   -3.030000   33.308000       6.0000     15.9994
  113   2 H    1       5.810000   -3.270000   33.217999       1.0000      1.0079
  114   2 H    1       7.080000   -3.950000   33.167999       1.0000      1.0079
  115   1 O    8      -3.010000    2.720000   30.377999       6.0000     15.9994
  116   2 H    1      -2.700000    1.740000   30.217999       1.0000      1.0079
  117   2 H    1      -2.630000    2.890000   31.237999       1.0000      1.0079
  118   1 O    8     -17.650002   25.890003   38.818000       6.0000     15.9994
  119   2 H    1     -16.670000   26.230001   38.888000       1.0000      1.0079
  120   2 H    1     -18.070000   26.490002   38.158000       1.0000      1.0079
  121   1 O    8       6.550000    8.660001   30.657999       6.0000     15.9994
  122   2 H    1       7.550001    8.680000   30.537999       1.0000      1.0079
  123   2 H    1       6.160001    7.840000   30.267999       1.0000      1.0079
  124   1 O    8       2.670000   -1.850000   32.557999       6.0000     15.9994
  125   2 H    1       3.510000   -1.350000   32.727998       1.0000      1.0079
  126   2 H    1      10.810001   13.140000   31.727998       1.0000      1.0079
  127   1 O    8       6.490001    3.910000   32.907998       6.0000     15.9994
  128   2 H    1       5.770000    4.530000   33.087999       1.0000      1.0079
  129   2 H    1       6.160001    3.570000   32.067998       1.0000      1.0079
  130   1 O    8       2.300000   22.180002   38.917999       6.0000     15.9994
  131   2 H    1       3.180000   21.680002   38.837999       1.0000      1.0079
  132   2 H    1       1.810000   21.690002   39.607999       1.0000      1.0079
  133   1 O    8       2.420000    9.740001   29.997999       6.0000     15.9994
  134   2 H    1     -14.900002    9.720000   30.887999       1.0000      1.0079
  135   2 H    1       3.370000    9.890000   30.087999       1.0000      1.0079
  136   1 O    8      17.780001    1.900000   38.187999       6.0000     15.9994
  137   2 H    1       9.240000   17.490002   38.408000       1.0000      1.0079
  138   2 H    1      18.440001    1.620000   38.857999       1.0000      1.0079
  139   1 O    8      15.730000    5.280000   36.457999       6.0000     15.9994
  140   2 H    1      15.790001    5.240001   37.458000       1.0000      1.0079
  141   2 H    1      16.510000    5.910000   36.267999       1.0000      1.0079
  142   1 O    8      -3.960000   14.710001   32.967999       6.0000     15.9994
  143   2 H    1      -4.600000   15.390000   33.258000       1.0000      1.0079
  144   2 H    1      -3.120000   14.840001   33.387998       1.0000      1.0079
  145   1 O    8     -17.900002    7.870001   32.857999       6.0000     15.9994
  146   2 H    1     -17.580002    6.930000   32.787999       1.0000      1.0079
  147   2 H    1     -18.670002    7.900000   32.187998       1.0000      1.0079
  148   1 O    8       0.760000  -11.320001   39.757999       6.0000     15.9994
  149   2 H    1       0.120000  -10.710001   40.187999       1.0000      1.0079
  150   2 H    1       0.990000  -10.890001   38.958000       1.0000      1.0079
  151   1 O    8      -9.190001    0.700000   32.887999       6.0000     15.9994
  152   2 H    1      -9.220000    1.280000   32.017999       1.0000      1.0079
  153   2 H    1      -8.760000   -0.140000   32.587999       1.0000      1.0079
  154   1 O    8       4.080000   19.660000   32.997999       6.0000     15.9994
  155   2 H    1       4.940000   19.230001   32.927999       1.0000      1.0079
  156   2 H    1       4.020000   19.930002   33.937999       1.0000      1.0079
  157   1 O    8      14.050001   29.440002   29.397998       6.0000     15.9994
  158   2 H    1      14.730001   28.750002   29.817998       1.0000      1.0079
  159   2 H    1      13.130001   29.080002   29.587999       1.0000      1.0079
  160   1 O    8       9.350000   13.100000   35.127999       6.0000     15.9994
  161   2 H    1       8.560000   12.510000   35.037999       1.0000      1.0079
  162   2 H    1       9.780001   13.060001   34.257999       1.0000      1.0079
  163   1 O    8       1.600000   19.280001   37.627998       6.0000     15.9994
  164   2 H    1       2.100000   18.700001   37.058000       1.0000      1.0079
  165   2 H    1       1.940000   20.170002   37.407998       1.0000      1.0079
  166   1 O    8       8.490001   15.520000   35.827999       6.0000     15.9994
  167   2 H    1       8.810000   14.590001   35.517999       1.0000      1.0079
  168   2 H    1       9.070001   15.720000   36.587999       1.0000      1.0079
  169   1 O    8      -3.290000   17.610001   30.337999       6.0000     15.9994
  170   2 H    1      -4.230000   17.240002   30.287999       1.0000      1.0079
  171   2 H    1      -3.350000   18.550001   30.137999       1.0000      1.0079
  172   1 O    8       6.780000   26.040001   36.377999       6.0000     15.9994
  173   2 H    1       5.950000   25.530003   36.537999       1.0000      1.0079
  174   2 H    1       6.790000   26.130001   35.367999       1.0000      1.0079
  175   1 O    8       1.400000    7.300000   29.117998       6.0000     15.9994
  176   2 H    1       1.990000    8.090000   29.297999       1.0000      1.0079
  177   2 H    1       0.480000    7.630000   29.467999       1.0000      1.0079
  178   1 O    8       3.010000   18.670002   30.417999       6.0000     15.9994
  179   2 H    1       2.840000   18.820002   31.387999       1.0000      1.0079
  180   2 H    1       3.860000   18.150002   30.437999       1.0000      1.0079
  181   1 O    8      20.000000    5.930000   35.307999       6.0000     15.9994
  182   2 H    1      19.260002    6.630001   35.447999       1.0000      1.0079
  183   2 H    1      19.770000    5.060000   35.767999       1.0000      1.0079
  184   1 O    8     -19.070000   -1.720000   37.318000       6.0000     15.9994
  185   2 H    1     -20.030001   -1.820000   37.617999       1.0000      1.0079
  186   2 H    1     -18.900002   -0.780000   37.417999       1.0000      1.0079
  187   1 O    8     -10.470000   13.850001   32.927999       6.0000     15.9994
  188   2 H    1     -11.430000   14.130001   32.747999       1.0000      1.0079
  189   2 H    1     -10.500001   13.130001   33.588000       1.0000      1.0079
  190   1 O    8      19.360001    2.890000   30.017999       6.0000     15.9994
  191   2 H    1      19.360001    3.240000   29.077998       1.0000      1.0079
  192   2 H    1      18.530001    2.370000   30.127999       1.0000      1.0079
  193   1 O    8     -14.590001   14.440001   39.667999       6.0000     15.9994
  194   2 H    1     -13.950001   14.550000   40.417999       1.0000      1.0079
  195   2 H    1     -14.180001   13.720001   39.138000       1.0000      1.0079
  196   1 O    8      -1.200000    5.450000   39.677999       6.0000     15.9994
  197   2 H    1      -1.480000    4.540000   39.808000       1.0000      1.0079
  198   2 H    1      -0.290000    5.350000   39.408000       1.0000      1.0079
  199   1 O    8     -19.530001   13.580000   37.597999       6.0000     15.9994
  200   2 H    1     -19.240002   14.490002   37.458000       1.0000      1.0079
  201   2 H    1     -19.090000   12.950001   36.927999       1.0000      1.0079
  202   1 O    8     -14.470000   12.730000   33.417999       6.0000     15.9994
  203   2 H    1     -14.040001   13.430000   32.787999       1.0000      1.0079
  204   2 H    1       2.890000   11.900001   33.397999       1.0000      1.0079
  205   1 O    8       2.710000  -12.490001   36.767999       6.0000     15.9994
  206   2 H    1       2.420000  -12.480001   35.827999       1.0000      1.0079
  207   2 H    1       2.450000  -13.410001   37.147998       1.0000      1.0079
  208   1 O    8       4.100000   -4.350000   32.607999       6.0000     15.9994
  209   2 H    1       3.390000   -4.100000   33.197999       1.0000      1.0079
  210   2 H    1       4.090000   -3.710000   31.827999       1.0000      1.0079
  211   1 O    8      17.190001   13.000001   31.857998       6.0000     15.9994
  212   2 H    1      16.560001   12.340001   32.217999       1.0000      1.0079
  213   2 H    1      17.960001   12.910000   32.607999       1.0000      1.0079
  214   1 O    8     -14.510001   28.730001   29.387999       6.0000     15.9994
  215   2 H    1     -15.150002   29.440002   29.607999       1.0000      1.0079
  216   2 H    1     -15.070001   27.860001   29.417999       1.0000      1.0079
  217   1 O    8      -6.930000   48.780003   38.987998       6.0000     15.9994
  218   2 H    1      -6.220000   48.470001   38.367999       1.0000      1.0079
  219   2 H    1      -6.370000   49.080006   39.747999       1.0000      1.0079
  220   1 O    8       4.430000   37.410004   39.177999       6.0000     15.9994
  221   2 H    1       4.850000   36.850002   39.808000       1.0000      1.0079
  222   2 H    1       4.410000   36.780003   38.478000       1.0000      1.0079
  223   1 O    8      13.710001   22.770002   32.987998       6.0000     15.9994
  224   2 H    1      14.130001   23.000002   32.117998       1.0000      1.0079
  225   2 H    1      13.490001   21.850002   33.007999       1.0000      1.0079
  226   1 O    8      29.340002    5.630000   36.737998       6.0000     15.9994
  227   2 H    1      29.700001    5.030000   37.407998       1.0000      1.0079
  228   2 H    1      29.660000    6.510000   36.937999       1.0000      1.0079
  229   1 O    8      -3.740000    7.770000   32.128000       6.0000     15.9994
  230   2 H    1      -4.130000    7.170000   32.847999       1.0000      1.0079
  231   2 H    1      -3.980000    8.740000   32.327998       1.0000      1.0079
  232   1 O    8       7.610001   -4.590000   39.888000       6.0000     15.9994
  233   2 H    1       7.180000   -3.680000   39.808000       1.0000      1.0079
  234   2 H    1       8.080000   -4.360000   40.728000       1.0000      1.0079
  235   1 O    8      -4.760000   16.070002   35.947999       6.0000     15.9994
  236   2 H    1      -5.050000   15.380001   36.678000       1.0000      1.0079
  237   2 H    1      -5.420001   16.100002   35.197999       1.0000      1.0079
  238   1 O    8       1.920000   21.390001   33.308000       6.0000     15.9994
  239   2 H    1       1.740000   21.910002   32.467998       1.0000      1.0079
  240   2 H    1       1.630000   22.040001   34.017999       1.0000      1.0079
  241   1 O    8      33.020000   16.530001   30.387999       6.0000     15.9994
  242   2 H    1      32.130001   16.990002   30.267999       1.0000      1.0079
  243   2 H    1      32.960003   15.530001   29.977999       1.0000      1.0079
  244   1 O    8       4.680000   -4.920000   36.437999       6.0000     15.9994
  245   2 H    1       3.850000   -4.660000   35.987999       1.0000      1.0079
  246   2 H    1       5.080000   -5.710001   36.047999       1.0000      1.0079
  247   1 O    8     -14.440001   31.590002   33.427999       6.0000     15.9994
  248   2 H    1     -14.380001   32.389999   32.877999       1.0000      1.0079
  249   2 H    1     -15.300001   31.300001   33.267999       1.0000      1.0079
  250   1 O    8      15.850000    8.070001   29.967999       6.0000     15.9994
  251   2 H    1      15.250001    7.770000   29.227999       1.0000      1.0079
  252   2 H    1      15.930000    9.030001   29.957999       1.0000      1.0079
  253   1 O    8      -8.550000   15.930000   32.367998       6.0000     15.9994
  254   2 H    1      -8.810000   15.130001   32.827998       1.0000      1.0079
  255   2 H    1      -9.340000   16.590000   32.537999       1.0000      1.0079
  256   1 O    8     -15.030001   12.140001   29.307998       6.0000     15.9994
  257   2 H    1     -14.890001   11.130000   29.477999       1.0000      1.0079
  258   2 H    1     -15.950001   12.250000   29.567998       1.0000      1.0079
  259   1 O    8       4.750000   -0.890000   30.237999       6.0000     15.9994
  260   2 H    1       3.980000   -0.410000   29.887999       1.0000      1.0079
  261   2 H    1       4.940000   -0.640000   31.147998       1.0000      1.0079
  262   1 O    8       6.620001    9.000000   35.317999       6.0000     15.9994
  263   2 H    1      14.680000   -5.760000   34.357998       1.0000      1.0079
  264   2 H    1       6.400001    8.130000   35.737998       1.0000      1.0079
  265   1 O    8      18.570002   21.690002   29.277999       6.0000     15.9994
  266   2 H    1      17.940001   20.930002   29.437999       1.0000      1.0079
  267   2 H    1      19.550001   21.430000   29.357998       1.0000      1.0079
  268   1 O    8      -0.710000   23.140001   38.798000       6.0000     15.9994
  269   2 H    1      -1.560000   22.590000   38.677999       1.0000      1.0079
  270   2 H    1      -0.920000   24.120003   38.548000       1.0000      1.0079
  271   1 O    8     -19.360001    7.430000   35.237999       6.0000     15.9994
  272   2 H    1     -18.930000    7.480001   34.378000       1.0000      1.0079
  273   2 H    1     -19.050001    6.560000   35.657999       1.0000      1.0079
  274   1 O    8      15.110001   32.560001   32.867999       6.0000     15.9994
  275   2 H    1      15.640001   33.380001   32.827998       1.0000      1.0079
  276   2 H    1      15.010000   32.400002   33.867999       1.0000      1.0079
  277   1 O    8       2.450000   24.680002   35.087999       6.0000     15.9994
  278   2 H    1      18.800001   25.550001   35.107999       1.0000      1.0079
  279   2 H    1      18.640001   24.060001   35.557998       1.0000      1.0079
  280   1 O    8       3.610000   12.850000   37.638000       6.0000     15.9994
  281   2 H    1       3.420000   11.910001   37.537999       1.0000      1.0079
  282   2 H    1       3.100000   13.370000   36.958000       1.0000      1.0079
  283   1 O    8       3.540000   14.960001   32.597999       6.0000     15.9994
  284   2 H    1       3.480000   14.900002   31.577998       1.0000      1.0079
  285   2 H    1       2.970000   15.690001   32.907998       1.0000      1.0079
  286   1 O    8      19.980001   14.360001   29.957999       6.0000     15.9994
  287   2 H    1      19.450001   13.440001   29.767999       1.0000      1.0079
  288   2 H    1      19.310001   15.120001   29.727998       1.0000      1.0079
  289   1 O    8      15.860001   10.770000   29.947998       6.0000     15.9994
  290   2 H    1      15.820000   10.680000   28.967999       1.0000      1.0079
  291   2 H    1      14.890001   10.940001   30.207999       1.0000      1.0079
  292   1 O    8      -2.760000   21.510000   36.517999       6.0000     15.9994
  293   2 H    1      -2.290000   20.660000   36.527998       1.0000      1.0079
  294   2 H    1      -3.620000   21.350000   36.047999       1.0000      1.0079
  295   1 O    8     -18.780001    2.790000   35.597999       6.0000     15.9994
  296   2 H    1     -18.240002    3.610000   35.917999       1.0000      1.0079
  297   2 H    1      -1.300000    1.930000   35.747999       1.0000      1.0079
  298   3 Pt  78       1.720000    0.760000   15.090000      10.0000    195.0840
  299   3 Pt  78       4.550000    0.500000   15.230000      10.0000    195.0840
  300   3 Pt  78       7.400000    0.640000   15.170002      10.0000    195.0840
  301   3 Pt  78      10.280000    0.690000   15.149998      10.0000    195.0840
  302   3 Pt  78      13.020000    0.580000   15.149998      10.0000    195.0840
  303   3 Pt  78      15.800000    0.660000   15.170002      10.0000    195.0840
  304   3 Pt  78       3.140000    3.010000   15.149998      10.0000    195.0840
  305   3 Pt  78       5.960000    3.040000   15.240002      10.0000    195.0840
  306   3 Pt  78       8.850000    3.040000   15.360001      10.0000    195.0840
  307   3 Pt  78      11.560000    3.160000   15.189999      10.0000    195.0840
  308   3 Pt  78      14.330001    3.140000   15.130001      10.0000    195.0840
  309   3 Pt  78       0.160000    3.200000   15.170002      10.0000    195.0840
  310   3 Pt  78       4.460000    5.470000   15.360001      10.0000    195.0840
  311   3 Pt  78       7.300000    5.570001   15.439999      10.0000    195.0840
  312   3 Pt  78      10.070001    5.440001   15.270000      10.0000    195.0840
  313   3 Pt  78      12.950001    5.480001   15.219997      10.0000    195.0840
  314   3 Pt  78      -1.170000    5.660000   15.139999      10.0000    195.0840
  315   3 Pt  78       1.630000    5.680000   15.289997      10.0000    195.0840
  316   3 Pt  78       5.950000    8.000000   15.279999      10.0000    195.0840
  317   3 Pt  78       8.640000    7.980001   15.000000      10.0000    195.0840
  318   3 Pt  78      11.510000    7.830000   15.189999      10.0000    195.0840
  319   3 Pt  78      -2.480000    8.000000   15.130001      10.0000    195.0840
  320   3 Pt  78       0.370000    8.120001   15.299999      10.0000    195.0840
  321   3 Pt  78       3.030000    8.100000   15.189999      10.0000    195.0840
  322   3 Pt  78       7.310000   10.440001   15.170002      10.0000    195.0840
  323   3 Pt  78      10.130000   10.180000   15.009998      10.0000    195.0840
  324   3 Pt  78      -3.890000   10.310000   15.130001      10.0000    195.0840
  325   3 Pt  78      -1.070000   10.400001   15.070000      10.0000    195.0840
  326   3 Pt  78       1.820000   10.470000   15.170002      10.0000    195.0840
  327   3 Pt  78       4.580000   10.450001   15.200001      10.0000    195.0840
  328   3 Pt  78       8.740000   12.890000   15.119999      10.0000    195.0840
  329   3 Pt  78      -5.380001   12.690001   15.130001      10.0000    195.0840
  330   3 Pt  78      -2.430000   12.640000   15.180000      10.0000    195.0840
  331   3 Pt  78       0.450000   12.900001   15.160000      10.0000    195.0840
  332   3 Pt  78       3.190000   12.910000   15.260002      10.0000    195.0840
  333   3 Pt  78       5.970000   12.930001   15.299999      10.0000    195.0840
  334   3 Pt  78       0.260000    1.640000   17.450001      10.0000    195.0840
  335   3 Pt  78       3.080000    1.500000   17.380001      10.0000    195.0840
  336   3 Pt  78       5.920000    1.540000   17.549999      10.0000    195.0840
  337   3 Pt  78       8.640000    1.430000   17.619999      10.0000    195.0840
  338   3 Pt  78      11.560000    1.460000   17.540001      10.0000    195.0840
  339   3 Pt  78      14.340000    1.510000   17.430000      10.0000    195.0840
  340   3 Pt  78       1.800000    4.040000   17.439999      10.0000    195.0840
  341   3 Pt  78       4.530000    3.840000   17.559998      10.0000    195.0840
  342   3 Pt  78       7.380000    3.960000   17.719997      10.0000    195.0840
  343   3 Pt  78      10.130000    3.910000   17.689999      10.0000    195.0840
  344   3 Pt  78      12.910000    3.930000   17.600002      10.0000    195.0840
  345   3 Pt  78      -1.240000    4.030000   17.500000      10.0000    195.0840
  346   3 Pt  78       3.090000    6.480000   17.530003      10.0000    195.0840
  347   3 Pt  78       5.900001    6.370000   17.610001      10.0000    195.0840
  348   3 Pt  78       8.760000    6.450000   17.579998      10.0000    195.0840
  349   3 Pt  78      11.440001    6.340000   17.549999      10.0000    195.0840
  350   3 Pt  78      -2.500000    6.410000   17.549999      10.0000    195.0840
  351   3 Pt  78       0.260000    6.350000   17.600002      10.0000    195.0840
  352   3 Pt  78       4.470000    8.920000   17.590000      10.0000    195.0840
  353   3 Pt  78       7.290000    8.860001   17.509998      10.0000    195.0840
  354   3 Pt  78      10.050000    8.880001   17.419998      10.0000    195.0840
  355   3 Pt  78      -3.930000    8.770000   17.520000      10.0000    195.0840
  356   3 Pt  78      -1.130000    8.830000   17.619999      10.0000    195.0840
  357   3 Pt  78       1.660000    8.890000   17.480000      10.0000    195.0840
  358   3 Pt  78       6.020000   11.190001   17.540001      10.0000    195.0840
  359   3 Pt  78       8.710001   11.380000   17.470001      10.0000    195.0840
  360   3 Pt  78      -5.330000   11.260000   17.400002      10.0000    195.0840
  361   3 Pt  78      -2.410000   11.150000   17.530003      10.0000    195.0840
  362   3 Pt  78       0.390000   11.260000   17.570000      10.0000    195.0840
  363   3 Pt  78       3.200000   11.270000   17.610001      10.0000    195.0840
  364   3 Pt  78       7.340000   13.810000   17.570000      10.0000    195.0840
  365   3 Pt  78      -6.770000   13.770000   17.369999      10.0000    195.0840
  366   3 Pt  78      -3.860000   13.650000   17.480000      10.0000    195.0840
  367   3 Pt  78      -1.110000   13.670001   17.400002      10.0000    195.0840
  368   3 Pt  78       1.690000   13.650000   17.520000      10.0000    195.0840
  369   3 Pt  78       4.520000   13.710001   17.649998      10.0000    195.0840
  370   3 Pt  78      -8.270000   14.570000   19.829998      10.0000    195.0840
  371   3 Pt  78      -5.470000   14.560001   19.670002      10.0000    195.0840
  372   3 Pt  78      -2.590000   14.500000   19.790001      10.0000    195.0840
  373   3 Pt  78       0.180000   14.430000   19.850002      10.0000    195.0840
  374   3 Pt  78       2.960000   14.440001   19.880001      10.0000    195.0840
  375   3 Pt  78       5.810000   14.530001   19.939999      10.0000    195.0840
  376   3 Pt  78       1.550000    2.450000   19.810001      10.0000    195.0840
  377   3 Pt  78       4.440001    2.420000   19.889999      10.0000    195.0840
  378   3 Pt  78       7.290000    2.280000   19.930000      10.0000    195.0840
  379   3 Pt  78      10.030001    2.160000   19.959999      10.0000    195.0840
  380   3 Pt  78      12.880001    2.300000   19.950001      10.0000    195.0840
  381   3 Pt  78      -1.270000    2.310000   19.810001      10.0000    195.0840
  382   3 Pt  78       3.090000    4.820000   19.810001      10.0000    195.0840
  383   3 Pt  78       5.850000    4.830000   19.860001      10.0000    195.0840
  384   3 Pt  78       8.690001    4.840000   19.980003      10.0000    195.0840
  385   3 Pt  78      11.350001    4.770000   19.899998      10.0000    195.0840
  386   3 Pt  78      -2.680000    4.720000   19.829998      10.0000    195.0840
  387   3 Pt  78       0.190000    4.730000   19.820000      10.0000    195.0840
  388   3 Pt  78       4.430000    7.210000   19.880001      10.0000    195.0840
  389   3 Pt  78       7.250000    7.210000   19.860001      10.0000    195.0840
  390   3 Pt  78      10.000000    7.320001   19.860001      10.0000    195.0840
  391   3 Pt  78      -4.060000    7.220001   19.810001      10.0000    195.0840
  392   3 Pt  78      -1.150000    7.160000   19.920002      10.0000    195.0840
  393   3 Pt  78       1.620000    7.210000   19.820000      10.0000    195.0840
  394   3 Pt  78       5.840001    9.680000   19.850002      10.0000    195.0840
  395   3 Pt  78       8.650001    9.650001   19.700001      10.0000    195.0840
  396   3 Pt  78      -5.330000    9.690001   19.670002      10.0000    195.0840
  397   3 Pt  78      -2.590000    9.590000   19.860001      10.0000    195.0840
  398   3 Pt  78       0.260000    9.580001   19.860001      10.0000    195.0840
  399   3 Pt  78       3.010000    9.700001   19.899998      10.0000    195.0840
  400   3 Pt  78       7.190001   12.120000   19.880001      10.0000    195.0840
  401   3 Pt  78      -6.900001   12.100000   19.750000      10.0000    195.0840
  402   3 Pt  78      -4.030000   12.050000   19.750000      10.0000    195.0840
  403   3 Pt  78      -1.200000   11.960001   19.780003      10.0000    195.0840
  404   3 Pt  78       1.560000   12.070000   19.950001      10.0000    195.0840
  405   3 Pt  78       4.400000   12.140001   19.920002      10.0000    195.0840
  406   3 Pt  78       1.630000    0.690000   22.047998      10.0000    195.0840
  407   3 Pt  78       4.430000    0.600000   22.017998      10.0000    195.0840
  408   3 Pt  78       7.150001    0.680000   22.217998      10.0000    195.0840
  409   3 Pt  78       9.950001    0.710000   22.237998      10.0000    195.0840
  410   3 Pt  78      12.740001    0.740000   22.217998      10.0000    195.0840
  411   3 Pt  78      15.600000    0.720000   22.147998      10.0000    195.0840
  412   3 Pt  78       3.060000    3.080000   22.147998      10.0000    195.0840
  413   3 Pt  78       5.730000    3.180000   22.187998      10.0000    195.0840
  414   3 Pt  78       8.520000    3.180000   22.247998      10.0000    195.0840
  415   3 Pt  78      11.300000    3.130000   22.177998      10.0000    195.0840
  416   3 Pt  78      14.190001    3.150000   22.267998      10.0000    195.0840
  417   3 Pt  78       0.140000    3.060000   22.187998      10.0000    195.0840
  418   3 Pt  78       4.380000    5.560000   22.147998      10.0000    195.0840
  419   3 Pt  78       7.170000    5.740000   22.187998      10.0000    195.0840
  420   3 Pt  78       9.900001    5.650000   22.287998      10.0000    195.0840
  421   3 Pt  78      12.730000    5.530000   22.177998      10.0000    195.0840
  422   3 Pt  78      -1.260000    5.520000   22.157998      10.0000    195.0840
  423   3 Pt  78       1.650000    5.470000   22.107998      10.0000    195.0840
  424   3 Pt  78       5.750000    8.080000   22.177998      10.0000    195.0840
  425   3 Pt  78       8.590000    8.050001   22.167998      10.0000    195.0840
  426   3 Pt  78      11.390000    8.050001   22.167998      10.0000    195.0840
  427   3 Pt  78      -2.690000    7.910000   22.157998      10.0000    195.0840
  428   3 Pt  78       0.130000    7.920001   22.137998      10.0000    195.0840
  429   3 Pt  78       2.940000    8.030001   22.097998      10.0000    195.0840
  430   3 Pt  78       7.220001   10.460000   22.117998      10.0000    195.0840
  431   3 Pt  78       9.990001   10.490000   22.027998      10.0000    195.0840
  432   3 Pt  78      -3.980000   10.430001   22.037998      10.0000    195.0840
  433   3 Pt  78      -1.230000   10.330000   22.167998      10.0000    195.0840
  434   3 Pt  78       1.460000   10.440001   22.247998      10.0000    195.0840
  435   3 Pt  78       4.310000   10.450001   22.187998      10.0000    195.0840
  436   3 Pt  78       8.510000   12.940001   22.237998      10.0000    195.0840
  437   3 Pt  78      -5.540000   12.780001   21.917998      10.0000    195.0840
  438   3 Pt  78      -2.600000   12.800001   22.167998      10.0000    195.0840
  439   3 Pt  78       0.100000   12.840000   22.277998      10.0000    195.0840
  440   3 Pt  78       2.890000   12.870001   22.287998      10.0000    195.0840
  441   3 Pt  78       5.680000   12.910000   22.177998      10.0000    195.0840
  442   3 Pt  78       0.230000    1.550000   24.427998      10.0000    195.0840
  443   3 Pt  78       3.070000    1.470000   24.407998      10.0000    195.0840
  444   3 Pt  78       5.800000    1.490000   24.527998      10.0000    195.0840
  445   3 Pt  78       8.570001    1.490000   24.537999      10.0000    195.0840
  446   3 Pt  78      11.280001    1.400000   24.507999      10.0000    195.0840
  447   3 Pt  78      14.280001    1.490000   24.407998      10.0000    195.0840
  448   3 Pt  78       1.530000    3.890000   24.497999      10.0000    195.0840
  449   3 Pt  78       4.360000    3.850000   24.537999      10.0000    195.0840
  450   3 Pt  78       7.120000    3.950000   24.497999      10.0000    195.0840
  451   3 Pt  78       9.850000    4.010000   24.507999      10.0000    195.0840
  452   3 Pt  78      12.770000    3.950000   24.407998      10.0000    195.0840
  453   3 Pt  78      -1.230000    3.860000   24.437999      10.0000    195.0840
  454   3 Pt  78       2.930000    6.290000   24.507999      10.0000    195.0840
  455   3 Pt  78       5.770000    6.410000   24.597999      10.0000    195.0840
  456   3 Pt  78       8.570001    6.400001   24.597999      10.0000    195.0840
  457   3 Pt  78      11.290001    6.350000   24.487999      10.0000    195.0840
  458   3 Pt  78      -2.700000    6.260000   24.477998      10.0000    195.0840
  459   3 Pt  78       0.160000    6.310000   24.387998      10.0000    195.0840
  460   3 Pt  78       4.410000    8.700001   24.457998      10.0000    195.0840
  461   3 Pt  78       7.170000    8.770000   24.437999      10.0000    195.0840
  462   3 Pt  78      10.050000    8.910000   24.487999      10.0000    195.0840
  463   3 Pt  78      -4.150000    8.780001   24.377998      10.0000    195.0840
  464   3 Pt  78      -1.310000    8.670000   24.427998      10.0000    195.0840
  465   3 Pt  78       1.600000    8.650001   24.457998      10.0000    195.0840
  466   3 Pt  78       5.860000   11.140001   24.597999      10.0000    195.0840
  467   3 Pt  78       8.600000   11.270000   24.487999      10.0000    195.0840
  468   3 Pt  78      -5.400000   11.310000   24.317998      10.0000    195.0840
  469   3 Pt  78      -2.650000   11.120001   24.457998      10.0000    195.0840
  470   3 Pt  78       0.130000   11.170001   24.587998      10.0000    195.0840
  471   3 Pt  78       3.000000   11.090001   24.487999      10.0000    195.0840
  472   3 Pt  78       7.200000   13.640001   24.697999      10.0000    195.0840
  473   3 Pt  78      -6.830000   13.770000   24.317998      10.0000    195.0840
  474   3 Pt  78      -4.010000   13.660001   24.387998      10.0000    195.0840
  475   3 Pt  78      -1.360000   13.690001   24.477998      10.0000    195.0840
  476   3 Pt  78       1.490000   13.720001   24.527998      10.0000    195.0840
  477   3 Pt  78       4.370000   13.600000   24.537999      10.0000    195.0840
  478   3 Pt  78      -8.190001   14.600000   26.897999      10.0000    195.0840
  479   3 Pt  78      -5.460000   14.500000   26.837999      10.0000    195.0840
  480   3 Pt  78      -2.690000   14.550000   26.807998      10.0000    195.0840
  481   3 Pt  78       0.100000   14.460001   26.617998      10.0000    195.0840
  482   3 Pt  78       3.000000   14.300001   26.707999      10.0000    195.0840
  483   3 Pt  78       5.840001   14.400001   26.907998      10.0000    195.0840
  484   3 Pt  78       1.560000    2.300000   26.857998      10.0000    195.0840
  485   3 Pt  78       4.330000    2.320000   26.907998      10.0000    195.0840
  486   3 Pt  78       7.280001    2.230000   26.777999      10.0000    195.0840
  487   3 Pt  78      10.040001    2.230000   26.807998      10.0000    195.0840
  488   3 Pt  78      12.830001    2.310000   26.707999      10.0000    195.0840
  489   3 Pt  78      -1.210000    2.320000   26.807998      10.0000    195.0840
  490   3 Pt  78       3.070000    4.610000   26.927999      10.0000    195.0840
  491   3 Pt  78       5.880000    4.620000   27.027999      10.0000    195.0840
  492   3 Pt  78       8.580000    4.570000   26.977999      10.0000    195.0840
  493   3 Pt  78      11.450001    4.520000   26.657998      10.0000    195.0840
  494   3 Pt  78      -2.690000    4.650001   26.867998      10.0000    195.0840
  495   3 Pt  78       0.160000    4.680000   26.897999      10.0000    195.0840
  496   3 Pt  78       4.420000    7.120000   26.817998      10.0000    195.0840
  497   3 Pt  78       7.100000    7.100000   26.897999      10.0000    195.0840
  498   3 Pt  78       9.900001    7.020000   26.937999      10.0000    195.0840
  499   3 Pt  78      -4.120000    7.050000   26.847998      10.0000    195.0840
  500   3 Pt  78      -1.300000    6.980000   26.937999      10.0000    195.0840
  501   3 Pt  78       1.500000    6.990001   26.867998      10.0000    195.0840
  502   3 Pt  78       5.770000    9.510000   26.867998      10.0000    195.0840
  503   3 Pt  78       8.610001    9.530001   26.697999      10.0000    195.0840
  504   3 Pt  78      -5.430000    9.480001   26.807998      10.0000    195.0840
  505   3 Pt  78      -2.650000    9.400001   26.797999      10.0000    195.0840
[...]
 -                                                                             -
 -                                DBCSR STATISTICS                             -
 -                                                                             -
 -------------------------------------------------------------------------------
 COUNTER                                    TOTAL       BLAS       SMM       ACC
 flops     5 x     5 x   120           5908800000       0.0%    100.0%      0.0%
 flops    13 x     5 x   120           7489560000       0.0%    100.0%      0.0%
 flops     5 x    13 x   120           7492680000       0.0%    100.0%      0.0%
 flops    13 x    13 x   120           8884668000       0.0%    100.0%      0.0%
 flops     5 x     5 x    96           9454080000       0.0%    100.0%      0.0%
 flops    13 x     5 x    96          11983296000       0.0%    100.0%      0.0%
 flops     5 x    13 x    96          11988288000       0.0%    100.0%      0.0%
 flops    13 x    20 x   120          12586080000       0.0%    100.0%      0.0%
 flops    20 x    13 x   120          12623520000       0.0%    100.0%      0.0%
 flops     5 x    20 x   120          13615200000       0.0%    100.0%      0.0%
 flops    20 x     5 x   120          13645200000       0.0%    100.0%      0.0%
 flops    13 x    13 x    96          14215468800       0.0%    100.0%      0.0%
 flops    13 x    20 x    96          20137728000       0.0%    100.0%      0.0%
 flops    20 x    13 x    96          20197632000       0.0%    100.0%      0.0%
 flops     5 x    20 x    96          21784320000       0.0%    100.0%      0.0%
 flops    20 x     5 x    96          21832320000       0.0%    100.0%      0.0%
 flops     5 x     5 x   128          81935360000       0.0%    100.0%      0.0%
 flops    13 x     5 x   128         103855232000       0.0%    100.0%      0.0%
 flops     5 x    13 x   128         103898496000       0.0%    100.0%      0.0%
 flops    20 x    20 x   120         112492800000       0.0%    100.0%      0.0%
 flops    13 x    13 x   128         123200729600       0.0%    100.0%      0.0%
 flops    13 x    20 x   128         174526976000       0.0%    100.0%      0.0%
 flops    20 x    13 x   128         175046144000       0.0%    100.0%      0.0%
 flops    20 x    20 x    96         179988480000       0.0%    100.0%      0.0%
 flops     5 x    20 x   128         188797440000       0.0%    100.0%      0.0%
 flops    20 x     5 x   128         189213440000       0.0%    100.0%      0.0%
 flops    20 x    20 x   128        1559900160000       0.0%    100.0%      0.0%
 flops inhomo. stacks                           0       0.0%      0.0%      0.0%
 flops total                         3.206694E+12       0.0%    100.0%      0.0%
 flops max/rank                     28.121642E+09       0.0%    100.0%      0.0%
 matmuls inhomo. stacks                         0       0.0%      0.0%      0.0%
 matmuls total                           78014400       0.0%    100.0%      0.0%
 number of processed stacks                916800       0.0%    100.0%      0.0%
 average stack size                                     0.0      85.1       0.0
 marketing flops                     6.688040E+12
 -------------------------------------------------------------------------------
 # multiplications                             50
 max memory usage/rank               1.638789E+09
 # max total images/rank                        2
 # max 3D layers                                1
 # MPI messages exchanged                  185600
 MPI messages size (bytes):
  total size                       114.713911E+09
  min size                         314.880000E+03
  max size                         845.824000E+03
  average size                     618.070625E+03
 MPI breakdown and total messages size (bytes):
             size <=      128                   0                        0
       128 < size <=     8192                   0                        0
      8192 < size <=    32768                   0                        0
     32768 < size <=   131072                   0                        0
    131072 < size <=  4194304              185600             114713913600
   4194304 < size <= 16777216                   0                        0
  16777216 < size                               0                        0
 -------------------------------------------------------------------------------

 *** WARNING in dbcsr_mm.F:290 :: Using a non-square number of MPI ranks ***
 *** might lead to poor performance. Used ranks: 128 Suggested: 121 256  ***

 -------------------------------------------------------------------------------
 -                                                                             -
 -                      DBCSR MESSAGE PASSING PERFORMANCE                      -
 -                                                                             -
 -------------------------------------------------------------------------------
 ROUTINE             CALLS      AVE VOLUME [Bytes]
 MP_Bcast               28                     12.
 MP_Allreduce          424                     11.
 MP_Alltoall          1412                 569234.
 MP_ISend             3200                 293400.
 MP_IRecv             3200                 286792.
 -------------------------------------------------------------------------------

 -------------------------------------------------------------------------------
 -                                                                             -
 -                                DBM STATISTICS                               -
 -                                                                             -
 -------------------------------------------------------------------------------
    M  x    N  x    K                                          COUNT     PERCENT
 -------------------------------------------------------------------------------

 -------------------------------------------------------------------------------
 -                                                                             -
 -                                GRID STATISTICS                              -
 -                                                                             -
 -------------------------------------------------------------------------------
 LP    KERNEL             BACKEND                              COUNT     PERCENT
 4     collocate general  REF                               20208650      22.44%
 4     integrate general  REF                               20079772      22.30%
 3     collocate general  REF                               13764750      15.28%
 3     integrate general  REF                               13707927      15.22%
 2     collocate general  REF                               10923600      12.13%
 2     integrate general  REF                               10705128      11.89%
 5     integrate general  REF                                 404173       0.45%
 0     collocate general  REF                                 131328       0.15%
 0     integrate general  REF                                  65664       0.07%
 1     integrate general  REF                                  65664       0.07%
 -------------------------------------------------------------------------------

 MEMORY| Estimated peak process memory [MiB]                                1828

 -------------------------------------------------------------------------------
 ----                             MULTIGRID INFO                            ----
 -------------------------------------------------------------------------------
 count for grid        1:        1093648          cutoff [a.u.]          200.00
 count for grid        2:        1088546          cutoff [a.u.]           66.67
 count for grid        3:         711398          cutoff [a.u.]           22.22
 count for grid        4:         549701          cutoff [a.u.]            7.41
 total gridlevel count  :        3443293

 -------------------------------------------------------------------------------
 -                                                                             -
 -                         MESSAGE PASSING PERFORMANCE                         -
 -                                                                             -
 -------------------------------------------------------------------------------

 ROUTINE             CALLS      AVE VOLUME [Bytes]
 MP_Group                4
 MP_Bcast              253                2254465.
 MP_Allreduce         3690                  29247.
 MP_Sync               104
 MP_Alltoall          3022               16915006.
 MP_SendRecv           508                   6165.
 MP_ISendRecv        25400                  61740.
 MP_Wait             44864
 MP_comm_split          50
 MP_ISend            18344                 255994.
 MP_IRecv            18344                 255994.
 MP_Recv               183                1688832.
 MP_Write_All            3                1797408.
 -------------------------------------------------------------------------------


 -------------------------------------------------------------------------------
 -                                                                             -
 -                           R E F E R E N C E S                               -
 -                                                                             -
 -------------------------------------------------------------------------------
 
 CP2K version 2022.1, the CP2K developers group (2022).
 CP2K is freely available from https://www.cp2k.org/ .

 Kuehne,Thomas D.; Iannuzzi,Marcella; Del Ben,Mauro;
 Rybkin,Vladimir V.; Seewald,Patrick; Stein,Frederick; Laino,Teodoro;
 Khaliullin,Rustam Z.; Schuett,Ole; Schiffmann,Florian; Golze,Dorothea;
 Wilhelm,Jan; Chulkov,Sergey; Bani-Hashemian,Mohammad Hossein;
 Weber,Valery; Borstnik,Urban; Taillefumier,Mathieu;
 Jakobovits,Alice Shoshana; Lazzaro,Alfio; Pabst,Hans; Mueller,Tiziano;
 Schade,Robert; Guidon,Manuel; Andermatt,Samuel; Holmberg,Nico;
 Schenter,Gregory K.; Hehn,Anna; Bussy,Augustin; Belleflamme,Fabian;
 Tabacchi,Gloria; Gloess,Andreas; Lass,Michael; Bethune,Iain;
 Mundy,Christopher J.; Plessl,Christian; Watkins,Matt;
 VandeVondele,Joost; Krack,Matthias; Hutter,Juerg. 
 The Journal of Chemical Physics, 152 (19), (2020). 
 CP2K: An electronic structure and molecular dynamics software package -
 Quickstep: Efficient and accurate electronic structure calculations.
 https://doi.org/10.1063/5.0007045

 Goerigk, Lars; Hansen, Andreas; Bauer, Christoph; Ehrlich, Stephan;
 Najibi, Asim; Grimme, Stefan. , 19 (48), (2017). 
 A look at the density functional theory zoo with the advanced GMTKN55 database
 for general main group thermochemistry, kinetics and noncovalent interactions.
 https://doi.org/10.1039/C7CP04913G

 Bani-Hashemian, MH; Bruck, S; Luisier, M; VandeVondele, J. 
 JOURNAL OF CHEMICAL PHYSICS, 144 (4), 044113 (2016). 
 A generalized Poisson solver for first-principles device simulations.
 https://doi.org/10.1063/1.4940796

 Schuett, Ole; Messmer, Peter; Hutter, Juerg; VandeVondele, Joost. 
 Electronic Structure Calculations on Graphics Processing Units, John
 Wiley & Sons, Ltd, 173-190 (2016). 
 GPU-Accelerated Sparse Matrix-Matrix Multiplication for
 Linear Scaling Density Functional Theory.
 https://doi.org/10.1002/9781118670712.ch8

 Heinecke, A; Henry, G; Hutchinson, M; Pabst, H. 
 Proceedings of Intl. Supercomputing Conference, 981-991 (2016). 
 LIBXSMM: Accelerating Small Matrix Multiplications
 by Runtime Code Generation.
 https://doi.org/10.1109/SC.2016.83

 Borstnik, U; VandeVondele, J; Weber, V; Hutter, J. 
 PARALLEL COMPUTING, 40 (5-6), 47-58 (2014). 
 Sparse matrix multiplication: The distributed block-compressed sparse
 row library.
 https://doi.org/10.1016/j.parco.2014.03.012

 Hutter, J; Iannuzzi, M; Schiffmann, F; VandeVondele, J. 
 WIREs Comput Mol Sci., 4 (1), 15-25 (2014). 
 CP2K: atomistic simulations of condensed matter systems.
 https://doi.org/10.1002/wcms.1159

 Marek, A; Blum, V; Johanni, R; Havu, V; Lang, B; Auckenthaler, T;
 Heinecke, A; Bungartz, H; Lederer, H. 
 Journal of Physics: Condensed Matter, 26 (21), (2014). 
 The ELPA library: scalable parallel eigenvalue solutions for
 electronic structure
 theory and computational science.
 https://doi.org/10.1088/0953-8984/26/21/213201

 Grimme, S; Ehrlich, S; Goerigk, L. 
 JOURNAL OF COMPUTATIONAL CHEMISTRY, 32, 1456 (2011). 
 Effect of the damping function in dispersion corrected density functional theory.
 https://doi.org/10.1002/jcc.21759

 Grimme, S; Antony, J; Ehrlich, S; Krieg, H. 
 JOURNAL OF CHEMICAL PHYSICS, 132 (15), 154104 (2010). 
 A consistent and accurate ab initio parametrization of density
 functional dispersion correction (DFT-D) for the 94 elements H-Pu.
 https://doi.org/10.1063/1.3382344

 VandeVondele, J; Hutter, J. 
 JOURNAL OF CHEMICAL PHYSICS, 127 (11), 114105 (2007). 
 Gaussian basis sets for accurate calculations on molecular systems in
 gas and condensed phases.
 https://doi.org/10.1063/1.2770708

 Krack, M. 
 THEORETICAL CHEMISTRY ACCOUNTS, 114 (1-3), 145-152 (2005). 
 Pseudopotentials for H to Kr optimized for gradient-corrected
 exchange-correlation functionals.
 https://doi.org/10.1007/s00214-005-0655-y

 VandeVondele, J; Krack, M; Mohamed, F; Parrinello, M; Chassaing, T;
 Hutter, J. COMPUTER PHYSICS COMMUNICATIONS, 167 (2), 103-128 (2005). 
 QUICKSTEP: Fast and accurate density functional calculations using a
 mixed Gaussian and plane waves approach.
 https://doi.org/10.1016/j.cpc.2004.12.014

 Frigo, M; Johnson, SG. 
 PROCEEDINGS OF THE IEEE, 93 (2), 216-231 (2005). 
 The design and implementation of FFTW3.
 https://doi.org/10.1109/JPROC.2004.840301

 Hartwigsen, C; Goedecker, S; Hutter, J. 
 PHYSICAL REVIEW B, 58 (7), 3641-3662 (1998). 
 Relativistic separable dual-space Gaussian pseudopotentials from H to Rn.
 https://doi.org/10.1103/PhysRevB.58.3641

 Lippert, G; Hutter, J; Parrinello, M. 
 MOLECULAR PHYSICS, 92 (3), 477-487 (1997). 
 A hybrid Gaussian and plane wave density functional scheme.
 https://doi.org/10.1080/002689797170220

 Perdew, JP; Burke, K; Ernzerhof, M. 
 PHYSICAL REVIEW LETTERS, 77 (18), 3865-3868 (1996). 
 Generalized gradient approximation made simple.
 https://doi.org/10.1103/PhysRevLett.77.3865

 Goedecker, S; Teter, M; Hutter, J. 
 PHYSICAL REVIEW B, 54 (3), 1703-1710 (1996). 
 Separable dual-space Gaussian pseudopotentials.
 https://doi.org/10.1103/PhysRevB.54.1703


 -------------------------------------------------------------------------------
 -                                                                             -
 -                                T I M I N G                                  -
 -                                                                             -
 -------------------------------------------------------------------------------
 SUBROUTINE                       CALLS  ASD         SELF TIME        TOTAL TIME
                                MAXIMUM       AVERAGE  MAXIMUM  AVERAGE  MAXIMUM
 CP2K                                 1  1.0    0.018    0.032  352.022  352.023
 qs_forces                            1  2.0    0.002    0.002  351.688  351.689
 qs_energies                          1  3.0    0.000    0.000  345.437  345.440
 scf_env_do_scf                       1  4.0    0.000    0.000  337.073  337.226
 scf_env_do_scf_inner_loop           49  5.0    0.003    0.006  337.073  337.226
 rebuild_ks_matrix                   50  6.9    0.000    0.000  181.077  181.107
 qs_ks_build_kohn_sham_matrix        50  7.9    0.008    0.009  181.077  181.107
 qs_ks_update_qs_env                 49  6.0    0.000    0.000  177.024  177.054
 pw_transfer                       2604 12.2    0.190    0.240  112.739  114.772
 fft_wrap_pw1pw2                   2604 13.2    0.026    0.030  112.550  114.532
 fft_wrap_pw1pw2_200               2304 14.4    7.655    9.120  111.064  113.109
 pw_poisson_solve                    50  8.9    0.005    0.012   97.217   97.258
 qs_scf_new_mos                      49  6.0    0.002    0.006   94.884   95.006
 fft3d_ps                          2604 15.2   32.741   36.206   90.320   93.431
 implicit_poisson_solver_mixed_      50  9.9    2.058    2.498   92.072   92.146
 eigensolver                         49  7.0    0.004    0.006   89.476   89.773
 derive_fft                         300 12.1    0.019    0.022   64.540   64.697
 cp_fm_diag_elpa                     50  8.0    0.001    0.001   62.636   62.797
 cp_fm_redistribute_end              50  9.0    8.194   62.047    8.297   62.110
 cp_fm_diag_elpa_base                50  9.0   52.970   60.656   53.502   61.252
 mp_alltoall_z22v                  2604 17.2   48.070   59.720   48.070   59.720
 qs_rho_update_rho_low               50  6.0    0.000    0.001   57.669   57.678
 calculate_rho_elec                  50  7.0    0.097    0.121   57.668   57.677
 sum_up_and_integrate                50  8.9    0.271    0.341   56.348   56.383
 integrate_v_rspace                  50  9.9    0.002    0.002   56.077   56.187
 apply_P_operator                   250 11.1    1.331    1.474   55.222   55.379
 grid_collocate_task_list            50  8.0   35.839   45.607   35.839   45.607
 grid_integrate_task_list            50 10.9   33.213   41.303   33.213   41.303
 x_to_yz                           1501 16.4    6.380    8.211   36.309   37.675
 rs_pw_transfer                     404 10.4    0.005    0.006   26.698   30.183
 cp_fm_triangular_multiply          147  8.0   28.011   28.316   28.011   28.316
 yz_to_x                            803 16.4    2.199    2.548   20.142   27.415
 qs_vxc_create                       50  8.9    0.001    0.002   24.656   24.953
 xc_vxc_pw_create                    50  9.9    0.425    0.525   24.655   24.952
 density_rs2pw                       50  8.0    0.003    0.004   20.652   24.279
 xc_pw_derive                       300 11.9    0.005    0.007   17.367   19.230
 mp_waitany                       18344 12.4   13.061   17.448   13.061   17.448
 rs_pw_transfer_RS2PW_200            52  9.9    3.351    3.756   13.054   16.512
 apply_poisson_operator_fft          50 10.9    0.001    0.001   16.193   16.463
 apply_inv_laplace_operator_fft     152 11.6    0.375    0.428   14.788   15.315
 potential_pw2rs                     50 10.9    0.015    0.017   14.248   14.368
 mp_alltoall_d11v                   707 10.2   10.145   13.637   10.145   13.637
 xc_pw_divergence                    50 10.9    0.002    0.003   11.731   13.134
 xc_rho_set_and_dset_create          50 10.9    0.247    0.289   12.015   12.972
 rs_gather_matrices                  50 10.9    0.061    0.081    8.602   12.014
 ps_implicit_compute_error_fft      100 10.9    0.629    0.769   10.956   11.718
 ps_implicit_compute_veps            50 10.9    0.289    0.345   10.942   11.111
 pw_scatter_p                      1651 15.4    9.275   10.924    9.275   10.924
 rs_pw_transfer_PW2RS_200            52 12.8    3.910    4.077    8.268    8.488
 gspace_mixing                       48  6.0    0.092    0.114    8.372    8.377
 pw_derive                         1200 13.1    7.632    8.366    7.632    8.366
 -------------------------------------------------------------------------------

 The number of warnings for this run is : 1
 
 -------------------------------------------------------------------------------
  **** **** ******  **  PROGRAM ENDED AT                 2023-12-02 09:40:26.840
 ***** ** ***  *** **   PROGRAM RAN ON                                     cu001
 **    ****   ******    PROGRAM RAN BY                                     jxzhu
 ***** **    ** ** **   PROGRAM PROCESS ID                                 41664
  **** **  *******  **  PROGRAM STOPPED IN /public/home/jxzhu/tmp_calc/3045f7996
                                           f9196d094a9f9f7295f7262475b33a3/calc/
                                           001200.000/search_lo.000000
