 DBCSR| CPU Multiplication driver                                           XSMM
 DBCSR| Multrec recursion limit                                              512
 DBCSR| Multiplication stack size                                           1000
 DBCSR| Maximum elements for images                                    UNLIMITED
 DBCSR| Multiplicative factor virtual images                                   1
 DBCSR| Use multiplication densification                                       T
 DBCSR| Multiplication size stacks                                             3
 DBCSR| Use memory pool for CPU allocation                                     F
 DBCSR| Number of 3D layers                                               SINGLE
 DBCSR| Use MPI memory allocation                                              F
 DBCSR| Use RMA algorithm                                                      F
 DBCSR| Use Communication thread                                               T
 DBCSR| Communication thread load                                             87
 DBCSR| MPI: My node id                                                        0
 DBCSR| MPI: Number of nodes                                                  64
 DBCSR| OMP: Current number of threads                                         1
 DBCSR| OMP: Max number of threads                                             1
 DBCSR| Split modifier for TAS multiplication algorithm                  1.0E+00


  **** **** ******  **  PROGRAM STARTED AT               2023-11-26 16:07:06.021
 ***** ** ***  *** **   PROGRAM STARTED ON                                 cu054
 **    ****   ******    PROGRAM STARTED BY                                 jxzhu
 ***** **    ** ** **   PROGRAM PROCESS ID                                 31210
  **** **  *******  **  PROGRAM STARTED IN /public/home/jxzhu/tmp_calc/af2075565
                                           805657d94fa4669dad6f4b174b0a4fb/calc/
                                           001100.000/pbc

 CP2K| version string:                                       CP2K version 2022.1
 CP2K| source code revision number:                                  git:2caeb6f
 CP2K| cp2kflags: omp libint fftw3 libxc elpa parallel mpi3 scalapack cosma xsmm
 CP2K|             plumed2 spglib mkl sirius libvori libbqb
 CP2K| is freely available from                            https://www.cp2k.org/
 CP2K| Program compiled at                           Mon Jul 3 17:37:06 CST 2023
 CP2K| Program compiled on                                                 mu003
 CP2K| Program compiled for                                                local
 CP2K| Data directory path                             /public/home/jxzhu/basis/
 CP2K| Input file name                                                 input.inp
 
 GLOBAL| Force Environment number                                              1
 GLOBAL| Basis set file name                                        BASIS_MOLOPT
 GLOBAL| Potential file name                                      GTH_POTENTIALS
 GLOBAL| MM Potential file name                                     MM_POTENTIAL
 GLOBAL| Coordinate file name                                          coord.xyz
 GLOBAL| Method name                                                        CP2K
 GLOBAL| Project name                                                       cp2k
 GLOBAL| Run type                                                   ENERGY_FORCE
 GLOBAL| FFT library                                                       FFTW3
 GLOBAL| Diagonalization library                                            ELPA
 GLOBAL| Minimum number of eigenvectors for ELPA usage                        16
 GLOBAL| Orthonormality check for eigenvectors                          DISABLED
 GLOBAL| Matrix multiplication library                                     COSMA
 GLOBAL| All-to-all communication in single precision                          F
 GLOBAL| FFTs using library dependent lengths                                  F
 GLOBAL| Grid backend                                                       AUTO
 GLOBAL| Global print level                                               MEDIUM
 GLOBAL| MPI I/O enabled                                                       T
 GLOBAL| Total number of message passing processes                            64
 GLOBAL| Number of threads for this process                                    1
 GLOBAL| This output is from process                                           0
 GLOBAL| Stack size for threads created by OpenMP (OMP_STACKSIZE)        default
 GLOBAL| CPU model name                 Intel(R) Xeon(R) Gold 6338 CPU @ 2.00GHz
 GLOBAL| CPUID                                                              1003

 MEMORY| system memory details [Kb]
 MEMORY|                        rank 0           min           max       average
 MEMORY| MemTotal            263619172     263619172     263619172     263619172
 MEMORY| MemFree             212405352     212405352     212408452     212405584
 MEMORY| Buffers                  3320          3320          3320          3320
 MEMORY| Cached                2595728       2595728       2595728       2595728
 MEMORY| Slab                  1601220       1601220       1601220       1601220
 MEMORY| SReclaimable           232784        232784        232784        232784
 MEMORY| MemLikelyFree       215237184     215237184     215240284     215237416


 *** Fundamental physical constants (SI units) ***

 *** Literature: B. J. Mohr and B. N. Taylor,
 ***             CODATA recommended values of the fundamental physical
 ***             constants: 2006, Web Version 5.1
 ***             http://physics.nist.gov/constants

 Speed of light in vacuum [m/s]                             2.99792458000000E+08
 Magnetic constant or permeability of vacuum [N/A**2]       1.25663706143592E-06
 Electric constant or permittivity of vacuum [F/m]          8.85418781762039E-12
 Planck constant (h) [J*s]                                  6.62606896000000E-34
 Planck constant (h-bar) [J*s]                              1.05457162825177E-34
 Elementary charge [C]                                      1.60217648700000E-19
 Electron mass [kg]                                         9.10938215000000E-31
 Electron g factor [ ]                                     -2.00231930436220E+00
 Proton mass [kg]                                           1.67262163700000E-27
 Fine-structure constant                                    7.29735253760000E-03
 Rydberg constant [1/m]                                     1.09737315685270E+07
 Avogadro constant [1/mol]                                  6.02214179000000E+23
 Boltzmann constant [J/K]                                   1.38065040000000E-23
 Atomic mass unit [kg]                                      1.66053878200000E-27
 Bohr radius [m]                                            5.29177208590000E-11

 *** Conversion factors ***

 [u] -> [a.u.]                                              1.82288848426455E+03
 [Angstrom] -> [Bohr] = [a.u.]                              1.88972613288564E+00
 [a.u.] = [Bohr] -> [Angstrom]                              5.29177208590000E-01
 [a.u.] -> [s]                                              2.41888432650478E-17
 [a.u.] -> [fs]                                             2.41888432650478E-02
 [a.u.] -> [J]                                              4.35974393937059E-18
 [a.u.] -> [N]                                              8.23872205491840E-08
 [a.u.] -> [K]                                              3.15774647902944E+05
 [a.u.] -> [kJ/mol]                                         2.62549961709828E+03
 [a.u.] -> [kcal/mol]                                       6.27509468713739E+02
 [a.u.] -> [Pa]                                             2.94210107994716E+13
 [a.u.] -> [bar]                                            2.94210107994716E+08
 [a.u.] -> [atm]                                            2.90362800883016E+08
 [a.u.] -> [eV]                                             2.72113838565563E+01
 [a.u.] -> [Hz]                                             6.57968392072181E+15
 [a.u.] -> [1/cm] (wave numbers)                            2.19474631370540E+05
 [a.u./Bohr**2] -> [1/cm]                                   5.14048714338585E+03
 

 CELL_TOP| Volume [angstrom^3]:                                     10221.806009
 CELL_TOP| Vector a [angstrom    16.869     0.000     0.000   |a| =    16.869000
 CELL_TOP| Vector b [angstrom    -8.434    14.609     0.000   |b| =    16.869015
 CELL_TOP| Vector c [angstrom     0.000     0.000    41.478   |c| =    41.478000
 CELL_TOP| Angle (b,c), alpha [degree]:                                90.000000
 CELL_TOP| Angle (a,c), beta  [degree]:                                90.000000
 CELL_TOP| Angle (a,b), gamma [degree]:                               119.999970
 CELL_TOP| Numerically orthorhombic:                                          NO
 
 GENERATE|  Preliminary Number of Bonds generated:                             0
 GENERATE|  Achieved consistency in connectivity generation.

 CELL| Volume [angstrom^3]:                                         10221.806009
 CELL| Vector a [angstrom]:      16.869     0.000     0.000   |a| =    16.869000
 CELL| Vector b [angstrom]:      -8.434    14.609     0.000   |b| =    16.869015
 CELL| Vector c [angstrom]:       0.000     0.000    41.478   |c| =    41.478000
 CELL| Angle (b,c), alpha [degree]:                                    90.000000
 CELL| Angle (a,c), beta  [degree]:                                    90.000000
 CELL| Angle (a,b), gamma [degree]:                                   119.999970
 CELL| Numerically orthorhombic:                                              NO

 CELL_REF| Volume [angstrom^3]:                                     10221.806009
 CELL_REF| Vector a [angstrom    16.869     0.000     0.000   |a| =    16.869000
 CELL_REF| Vector b [angstrom    -8.434    14.609     0.000   |b| =    16.869015
 CELL_REF| Vector c [angstrom     0.000     0.000    41.478   |c| =    41.478000
 CELL_REF| Angle (b,c), alpha [degree]:                                90.000000
 CELL_REF| Angle (a,c), beta  [degree]:                                90.000000
 CELL_REF| Angle (a,b), gamma [degree]:                               119.999970
 CELL_REF| Numerically orthorhombic:                                          NO

 *******************************************************************************
 *******************************************************************************
 **                                                                           **
 **     #####                         ##              ##                      **
 **    ##   ##            ##          ##              ##                      **
 **   ##     ##                       ##            ######                    **
 **   ##     ##  ##   ##  ##   #####  ##  ##   ####   ##    #####    #####    **
 **   ##     ##  ##   ##  ##  ##      ## ##   ##      ##   ##   ##  ##   ##   **
 **   ##  ## ##  ##   ##  ##  ##      ####     ###    ##   ######   ######    **
 **    ##  ###   ##   ##  ##  ##      ## ##      ##   ##   ##       ##        **
 **     #######   #####   ##   #####  ##  ##  ####    ##    #####   ##        **
 **           ##                                                    ##        **
 **                                                                           **
 **                                                ... make the atoms dance   **
 **                                                                           **
 **            Copyright (C) by CP2K developers group (2000-2022)             **
 **                      J. Chem. Phys. 152, 194103 (2020)                    **
 **                                                                           **
 *******************************************************************************

 DFT| Spin restricted Kohn-Sham (RKS) calculation                            RKS
 DFT| Multiplicity                                                             1
 DFT| Number of spin states                                                    1
 DFT| Charge                                                                   0
 DFT| Self-interaction correction (SIC)                                       NO
 DFT| Cutoffs: density                                              1.000000E-10
 DFT|          gradient                                             1.000000E-10
 DFT|          tau                                                  1.000000E-10
 DFT|          cutoff_smoothing_range                               0.000000E+00
 DFT| XC density smoothing                                                  NONE
 DFT| XC derivatives                                                          PW

 FUNCTIONAL| PBE:
 FUNCTIONAL| J.P.Perdew, K.Burke, M.Ernzerhof, Phys. Rev. Letter, vol. 77, n 18,
 FUNCTIONAL|  pp. 3865-3868, (1996){spin unpolarized}                           

 vdW POTENTIAL|                                                   Pair Potential
 vdW POTENTIAL|          DFT-D3 (Version 3.1)
 vdW POTENTIAL|          Potential Form: S. Grimme et al, JCP 132: 154104 (2010)
 vdW POTENTIAL|          Zero Damping
 vdW POTENTIAL|          Cutoff Radius [Bohr]:                             20.00
 vdW POTENTIAL|          s6 Scaling Factor:                               1.0000
 vdW POTENTIAL|          sr6 Scaling Factor:                              1.2170
 vdW POTENTIAL|          s8 Scaling Factor:                               0.7220
 vdW POTENTIAL|          Cutoff for CN calculation:                   0.1000E-05

 QS| Method:                                                                 GPW
 QS| Density plane wave grid type                        NON-SPHERICAL FULLSPACE
 QS| Number of grid levels:                                                    4
 QS| Density cutoff [a.u.]:                                                200.0
 QS| Multi grid cutoff [a.u.]: 1) grid level                               200.0
 QS|                           2) grid level                                66.7
 QS|                           3) grid level                                22.2
 QS|                           4) grid level                                 7.4
 QS| Grid level progression factor:                                          3.0
 QS| Relative density cutoff [a.u.]:                                        20.0
 QS| Interaction thresholds: eps_pgf_orb:                                3.2E-07
 QS|                         eps_filter_matrix:                          0.0E+00
 QS|                         eps_core_charge:                            1.0E-15
 QS|                         eps_rho_gspace:                             1.0E-13
 QS|                         eps_rho_rspace:                             1.0E-13
 QS|                         eps_gvg_rspace:                             3.2E-07
 QS|                         eps_ppl:                                    1.0E-02
 QS|                         eps_ppnl:                                   3.2E-09


 ATOMIC KIND INFORMATION

  1. Atomic kind: O                                     Number of atoms:     230

     Orbital Basis Set                                        DZVP-MOLOPT-SR-GTH

       Number of orbital shell sets:                                           1
       Number of orbital shells:                                               5
       Number of primitive Cartesian functions:                                5
       Number of Cartesian basis functions:                                   14
       Number of spherical basis functions:                                   13
       Norm type:                                                              2

       Normalised Cartesian orbitals:

                        Set   Shell   Orbital            Exponent    Coefficient

                          1       1    2s               10.389228       0.396646
                                                         3.849621       0.208811
                                                         1.388401      -0.301641
                                                         0.496955      -0.274061
                                                         0.162492      -0.033677

                          1       2    3s               10.389228       0.303673
                                                         3.849621       0.240943
                                                         1.388401      -0.313066
                                                         0.496955      -0.043055
                                                         0.162492       0.213991

                          1       3    3px              10.389228      -1.530415
                                                         3.849621      -1.371928
                                                         1.388401      -0.761951
                                                         0.496955      -0.253695
                                                         0.162492      -0.035541
                          1       3    3py              10.389228      -1.530415
                                                         3.849621      -1.371928
                                                         1.388401      -0.761951
                                                         0.496955      -0.253695
                                                         0.162492      -0.035541
                          1       3    3pz              10.389228      -1.530415
                                                         3.849621      -1.371928
                                                         1.388401      -0.761951
                                                         0.496955      -0.253695
                                                         0.162492      -0.035541

                          1       4    4px              10.389228      -0.565392
                                                         3.849621      -0.038231
                                                         1.388401      -0.382373
                                                         0.496955       0.179070
                                                         0.162492       0.122714
                          1       4    4py              10.389228      -0.565392
                                                         3.849621      -0.038231
                                                         1.388401      -0.382373
                                                         0.496955       0.179070
                                                         0.162492       0.122714
                          1       4    4pz              10.389228      -0.565392
                                                         3.849621      -0.038231
                                                         1.388401      -0.382373
                                                         0.496955       0.179070
                                                         0.162492       0.122714

                          1       5    4dx2             10.389228       1.867377
                                                         3.849621       0.670994
                                                         1.388401       1.353441
                                                         0.496955       0.273538
                                                         0.162492       0.006620
                          1       5    4dxy             10.389228       3.234392
                                                         3.849621       1.162195
                                                         1.388401       2.344229
                                                         0.496955       0.473781
                                                         0.162492       0.011466
                          1       5    4dxz             10.389228       3.234392
                                                         3.849621       1.162195
                                                         1.388401       2.344229
                                                         0.496955       0.473781
                                                         0.162492       0.011466
                          1       5    4dy2             10.389228       1.867377
                                                         3.849621       0.670994
                                                         1.388401       1.353441
                                                         0.496955       0.273538
                                                         0.162492       0.006620
                          1       5    4dyz             10.389228       3.234392
                                                         3.849621       1.162195
                                                         1.388401       2.344229
                                                         0.496955       0.473781
                                                         0.162492       0.011466
                          1       5    4dz2             10.389228       1.867377
                                                         3.849621       0.670994
                                                         1.388401       1.353441
                                                         0.496955       0.273538
                                                         0.162492       0.006620

       Atomic covalent radius [Angstrom]:                                  0.730

       Atomic van der Waals radius [Angstrom]:                             1.520

     GTH Potential information for                                    GTH-PBE-q6

       Description:                       Goedecker-Teter-Hutter pseudopotential
                                           Goedecker et al., PRB 54, 1703 (1996)
                                          Hartwigsen et al., PRB 58, 3641 (1998)
                                                      Krack, TCA 114, 145 (2005)

       Gaussian exponent of the core charge distribution:               8.360253
       Electronic configuration (s p d ...):                               2   4

       Parameters of the local part of the GTH pseudopotential:

                          rloc        C1          C2          C3          C4
                        0.244554  -16.667215    2.487311

       Parameters of the non-local part of the GTH pseudopotential:

                   l      r(l)      h(i,j,l)

                   0    0.220956   18.337458
                   1    0.211332

  2. Atomic kind: H                                     Number of atoms:     460

     Orbital Basis Set                                        DZVP-MOLOPT-SR-GTH

       Number of orbital shell sets:                                           1
       Number of orbital shells:                                               3
       Number of primitive Cartesian functions:                                5
       Number of Cartesian basis functions:                                    5
       Number of spherical basis functions:                                    5
       Norm type:                                                              2

       Normalised Cartesian orbitals:

                        Set   Shell   Orbital            Exponent    Coefficient

                          1       1    2s               10.068468      -0.133023
                                                         2.680223      -0.177618
                                                         0.791502      -0.258419
                                                         0.239116      -0.107525
                                                         0.082193      -0.014019

                          1       2    3s               10.068468       0.344673
                                                         2.680223       1.819821
                                                         0.791502      -0.999069
                                                         0.239116       0.017430
                                                         0.082193       0.082660

                          1       3    3px              10.068468       0.155326
                                                         2.680223       0.367157
                                                         0.791502       0.311480
                                                         0.239116       0.080105
                                                         0.082193       0.033440
                          1       3    3py              10.068468       0.155326
                                                         2.680223       0.367157
                                                         0.791502       0.311480
                                                         0.239116       0.080105
                                                         0.082193       0.033440
                          1       3    3pz              10.068468       0.155326
                                                         2.680223       0.367157
                                                         0.791502       0.311480
                                                         0.239116       0.080105
                                                         0.082193       0.033440

       Atomic covalent radius [Angstrom]:                                  0.320

       Atomic van der Waals radius [Angstrom]:                             1.090

     GTH Potential information for                                    GTH-PBE-q1

       Description:                       Goedecker-Teter-Hutter pseudopotential
                                           Goedecker et al., PRB 54, 1703 (1996)
                                          Hartwigsen et al., PRB 58, 3641 (1998)
                                                      Krack, TCA 114, 145 (2005)

       Gaussian exponent of the core charge distribution:              12.500000
       Electronic configuration (s p d ...):                                   1

       Parameters of the local part of the GTH pseudopotential:

                          rloc        C1          C2          C3          C4
                        0.200000   -4.178900    0.724463

  3. Atomic kind: Pt                                    Number of atoms:     216

     Orbital Basis Set                      DZVP-A5-Q10-323-MOL-T1-DERIVED_SET-1

       Number of orbital shell sets:                                           1
       Number of orbital shells:                                               6
       Number of primitive Cartesian functions:                                5
       Number of Cartesian basis functions:                                   23
       Number of spherical basis functions:                                   20
       Norm type:                                                              2

       Normalised Cartesian orbitals:

                        Set   Shell   Orbital            Exponent    Coefficient

                          1       1    2s                2.521825       0.177473
                                                         1.453920      -0.063399
                                                         0.614053      -0.407089
                                                         0.232656       0.262254
                                                         0.074788       0.047371

                          1       2    3s                2.521825      -0.049056
                                                         1.453920       0.044904
                                                         0.614053      -0.009756
                                                         0.232656      -0.144709
                                                         0.074788       0.144085

                          1       3    3px               2.521825      -0.317572
                                                         1.453920       0.534826
                                                         0.614053      -0.489458
                                                         0.232656       0.245631
                                                         0.074788       0.018221
                          1       3    3py               2.521825      -0.317572
                                                         1.453920       0.534826
                                                         0.614053      -0.489458
                                                         0.232656       0.245631
                                                         0.074788       0.018221
                          1       3    3pz               2.521825      -0.317572
                                                         1.453920       0.534826
                                                         0.614053      -0.489458
                                                         0.232656       0.245631
                                                         0.074788       0.018221

                          1       4    4dx2              2.521825       3.008522
                                                         1.453920      -1.224251
                                                         0.614053       0.225691
                                                         0.232656       0.125144
                                                         0.074788      -0.015348
                          1       4    4dxy              2.521825       5.210912
                                                         1.453920      -2.120465
                                                         0.614053       0.390909
                                                         0.232656       0.216756
                                                         0.074788      -0.026584
                          1       4    4dxz              2.521825       5.210912
                                                         1.453920      -2.120465
                                                         0.614053       0.390909
                                                         0.232656       0.216756
                                                         0.074788      -0.026584
                          1       4    4dy2              2.521825       3.008522
                                                         1.453920      -1.224251
                                                         0.614053       0.225691
                                                         0.232656       0.125144
                                                         0.074788      -0.015348
                          1       4    4dyz              2.521825       5.210912
                                                         1.453920      -2.120465
                                                         0.614053       0.390909
                                                         0.232656       0.216756
                                                         0.074788      -0.026584
                          1       4    4dz2              2.521825       3.008522
                                                         1.453920      -1.224251
                                                         0.614053       0.225691
                                                         0.232656       0.125144
                                                         0.074788      -0.015348

                          1       5    5dx2              2.521825       0.698026
                                                         1.453920      -1.511486
                                                         0.614053      -0.335394
                                                         0.232656      -0.025564
                                                         0.074788      -0.002699
                          1       5    5dxy              2.521825       1.209017
                                                         1.453920      -2.617970
                                                         0.614053      -0.580920
                                                         0.232656      -0.044277
                                                         0.074788      -0.004674
                          1       5    5dxz              2.521825       1.209017
                                                         1.453920      -2.617970
                                                         0.614053      -0.580920
                                                         0.232656      -0.044277
                                                         0.074788      -0.004674
                          1       5    5dy2              2.521825       0.698026
                                                         1.453920      -1.511486
                                                         0.614053      -0.335394
                                                         0.232656      -0.025564
                                                         0.074788      -0.002699
                          1       5    5dyz              2.521825       1.209017
                                                         1.453920      -2.617970
                                                         0.614053      -0.580920
                                                         0.232656      -0.044277
                                                         0.074788      -0.004674
                          1       5    5dz2              2.521825       0.698026
                                                         1.453920      -1.511486
                                                         0.614053      -0.335394
                                                         0.232656      -0.025564
                                                         0.074788      -0.002699

                          1       6    6dx2              2.521825       0.831079
                                                         1.453920      -0.709226
                                                         0.614053      -0.137351
                                                         0.232656       0.068642
                                                         0.074788       0.011745
                          1       6    6dxy              2.521825       1.439472
                                                         1.453920      -1.228415
                                                         0.614053      -0.237899
                                                         0.232656       0.118891
                                                         0.074788       0.020343
                          1       6    6dxz              2.521825       1.439472
                                                         1.453920      -1.228415
                                                         0.614053      -0.237899
                                                         0.232656       0.118891
                                                         0.074788       0.020343
                          1       6    6dy2              2.521825       0.831079
                                                         1.453920      -0.709226
                                                         0.614053      -0.137351
                                                         0.232656       0.068642
                                                         0.074788       0.011745
                          1       6    6dyz              2.521825       1.439472
                                                         1.453920      -1.228415
                                                         0.614053      -0.237899
                                                         0.232656       0.118891
                                                         0.074788       0.020343
                          1       6    6dz2              2.521825       0.831079
                                                         1.453920      -0.709226
                                                         0.614053      -0.137351
                                                         0.232656       0.068642
                                                         0.074788       0.011745

       Atomic covalent radius [Angstrom]:                                  1.300

       Atomic van der Waals radius [Angstrom]:                             1.750

     GTH Potential information for                                   GTH-PBE-q10

       Description:                       Goedecker-Teter-Hutter pseudopotential
                                           Goedecker et al., PRB 54, 1703 (1996)
                                          Hartwigsen et al., PRB 58, 3641 (1998)
                                                      Krack, TCA 114, 145 (2005)

       Gaussian exponent of the core charge distribution:               1.317676
       Electronic configuration (s p d ...):                           1   0   9

       Parameters of the local part of the GTH pseudopotential:

                          rloc        C1          C2          C3          C4
                        0.616000   11.313635

       Parameters of the non-local part of the GTH pseudopotential:

                   l      r(l)      h(i,j,l)

                   0    0.550904    4.733491   -1.784594
                                   -1.784594    2.303901
                   1    0.674138    2.534798   -1.778066
                                   -1.778066    2.103836
                   2    0.457392   -7.264011    2.558665
                                    2.558665   -2.901253


 MOLECULE KIND INFORMATION


 All atoms are their own molecule, skipping detailed information


 TOTAL NUMBERS AND MAXIMUM NUMBERS

  Total number of            - Atomic kinds:                                   3
                             - Atoms:                                        906
                             - Shell sets:                                   906
                             - Shells:                                      3826
                             - Primitive Cartesian functions:               4530
                             - Cartesian basis functions:                  10488
                             - Spherical basis functions:                   9610

  Maximum angular momentum of- Orbital basis functions:                        2
                             - Local part of the GTH pseudopotential:          2
                             - Non-local part of the GTH pseudopotential:      4


 MODULE QUICKSTEP:  ATOMIC COORDINATES IN angstrom

 Atom  Kind  Element       X           Y           Z          Z(eff)       Mass
    1   1 O    8       7.560000    1.980000   16.410000       6.0000     15.9994
    2   2 H    1       7.190001    2.800000   16.710001       1.0000      1.0079
    3   2 H    1       7.180000    1.400000   17.030001       1.0000      1.0079
    4   1 O    8       6.370000    5.930000    8.900001       6.0000     15.9994
    5   2 H    1       5.940001    5.630000    8.090000       1.0000      1.0079
    6   2 H    1       5.960000    5.330000    9.600000       1.0000      1.0079
    7   1 O    8       3.950000   -0.160000   16.880001       6.0000     15.9994
    8   2 H    1       3.460000    0.740000   16.690001       1.0000      1.0079
    9   2 H    1       3.390000   -0.870000   17.240002       1.0000      1.0079
   10   1 O    8       3.070000    2.170000   16.590000       6.0000     15.9994
   11   2 H    1       2.280000    2.570000   16.090000       1.0000      1.0079
   12   2 H    1       2.720000    2.220000   17.630001       1.0000      1.0079
   13   1 O    8       8.050001   -4.830000   25.100002       6.0000     15.9994
   14   2 H    1       8.300000   -4.430000   24.230001       1.0000      1.0079
   15   2 H    1       8.460000   -5.720000   25.140001       1.0000      1.0079
   16   1 O    8       2.660000   23.870001    8.140000       6.0000     15.9994
   17   2 H    1       1.690000   23.930000    8.310000       1.0000      1.0079
   18   2 H    1       3.190000   23.010002    8.430000       1.0000      1.0079
   19   1 O    8      -6.010000   31.720001   19.050001       6.0000     15.9994
   20   2 H    1      -6.150000   31.670000   18.060001       1.0000      1.0079
   21   2 H    1      -5.510000   30.860003   19.180000       1.0000      1.0079
   22   1 O    8      -4.760000   26.400002    9.280001       6.0000     15.9994
   23   2 H    1      -3.800000   26.160002    9.170000       1.0000      1.0079
   24   2 H    1       3.370000   12.650002    8.830000       1.0000      1.0079
   25   1 O    8      -9.940001  -15.470000   23.090000       6.0000     15.9994
   26   2 H    1     -10.290001  -15.970001   23.800001       1.0000      1.0079
   27   2 H    1     -10.480001  -15.630001   22.290001       1.0000      1.0079
   28   1 O    8       8.230000   12.120000   26.450003       6.0000     15.9994
   29   2 H    1       8.020000   11.610001   27.330000       1.0000      1.0079
   30   2 H    1       7.240000   12.360001   26.360001       1.0000      1.0079
   31   1 O    8       6.090000    1.440000   13.740001       6.0000     15.9994
   32   2 H    1       5.560000    0.620000   13.990001       1.0000      1.0079
   33   2 H    1       6.640000    1.670000   14.500000       1.0000      1.0079
   34   1 O    8      -2.630000   -5.870000   25.830002       6.0000     15.9994
   35   2 H    1      -2.770000   -5.210000   26.450003       1.0000      1.0079
   36   2 H    1      -3.560000   -6.040000   25.350000       1.0000      1.0079
   37   1 O    8      -8.780001  -21.820002   26.120003       6.0000     15.9994
   38   2 H    1      -9.680000  -21.550003   25.830002       1.0000      1.0079
   39   2 H    1      -8.720000  -21.690002   27.050001       1.0000      1.0079
   40   1 O    8      18.240002   17.270000    8.350000       6.0000     15.9994
   41   2 H    1      18.690001   18.180000    8.280001       1.0000      1.0079
   42   2 H    1      17.250000   17.360001    8.430000       1.0000      1.0079
   43   1 O    8      13.200001   -4.310000   30.300003       6.0000     15.9994
   44   2 H    1      12.870001   -5.290000   30.490002       1.0000      1.0079
   45   2 H    1      13.480000   -3.880000   31.150002       1.0000      1.0079
   46   1 O    8      -8.330001    4.000000   30.320000       6.0000     15.9994
   47   2 H    1      -8.110001    4.970000   30.370003       1.0000      1.0079
   48   2 H    1      -8.130000    3.670000   29.430000       1.0000      1.0079
   49   1 O    8     -10.250001   17.110001   16.590000       6.0000     15.9994
   50   2 H    1     -10.580001   16.200001   16.760002       1.0000      1.0079
   51   2 H    1     -10.570001   17.650002   17.400002       1.0000      1.0079
   52   1 O    8       4.190001   19.820002   14.720001       6.0000     15.9994
   53   2 H    1       4.580000   18.920000   14.610001       1.0000      1.0079
   54   2 H    1       4.010000   19.600000   15.670000       1.0000      1.0079
   55   1 O    8      -3.670000  -10.550001   29.060001       6.0000     15.9994
   56   2 H    1      -3.010000  -11.270000   28.930000       1.0000      1.0079
   57   2 H    1      -4.340000  -10.490000   28.380001       1.0000      1.0079
   58   1 O    8      18.320002    2.100000   22.230000       6.0000     15.9994
   59   2 H    1      18.050001    1.740000   23.100002       1.0000      1.0079
   60   2 H    1      17.750000    1.700000   21.530001       1.0000      1.0079
   61   1 O    8     -19.720001   29.220001   29.830000       6.0000     15.9994
   62   2 H    1     -18.750002   29.139999   29.830000       1.0000      1.0079
   63   2 H    1      -3.060000   29.710003   28.940001       1.0000      1.0079
   64   1 O    8      14.620000   -6.990001   15.230001       6.0000     15.9994
   65   2 H    1      15.630001   -7.310000   15.210000       1.0000      1.0079
   66   2 H    1      30.980000   -7.770000   15.080000       1.0000      1.0079
   67   1 O    8       9.860001    1.960000   11.610001       6.0000     15.9994
   68   2 H    1       0.450000   16.430000   11.440001       1.0000      1.0079
   69   2 H    1      10.260000    1.730000   10.730000       1.0000      1.0079
   70   1 O    8      -9.150001   20.270002   33.240002       6.0000     15.9994
   71   2 H    1      -8.240001   20.540001   32.960003       1.0000      1.0079
   72   2 H    1      -9.800000   20.880001   32.890003       1.0000      1.0079
   73   1 O    8       2.930000    5.120000   27.320002       6.0000     15.9994
   74   2 H    1       2.570000    4.940000   26.430000       1.0000      1.0079
   75   2 H    1       2.760000    6.080000   27.510002       1.0000      1.0079
   76   1 O    8      -4.740000    8.470000   32.029999       6.0000     15.9994
   77   2 H    1      -5.650000    8.860001   32.190002       1.0000      1.0079
   78   2 H    1      -4.290000    8.910000   31.270000       1.0000      1.0079
   79   1 O    8      -6.420000  -26.630001   16.440001       6.0000     15.9994
   80   2 H    1      -7.250000  -26.900002   16.030001       1.0000      1.0079
   81   2 H    1      -5.750000  -27.100000   15.880001       1.0000      1.0079
   82   1 O    8       6.080000    3.640000   20.680000       6.0000     15.9994
   83   2 H    1       5.140000    3.810000   20.740002       1.0000      1.0079
   84   2 H    1       6.350000    3.890000   19.740002       1.0000      1.0079
   85   1 O    8      -6.330000   24.530001   13.460001       6.0000     15.9994
   86   2 H    1      -6.590000   24.490002   14.390000       1.0000      1.0079
   87   2 H    1      -7.150001   24.480001   12.900001       1.0000      1.0079
   88   1 O    8      11.080000   -4.990000    8.250000       6.0000     15.9994
   89   2 H    1      -5.480001   -4.060000    8.490001       1.0000      1.0079
   90   2 H    1      11.830001   -5.430000    8.650001       1.0000      1.0079
   91   1 O    8      -1.160000   -3.880000   23.820002       6.0000     15.9994
   92   2 H    1      -0.420000   -3.580000   24.330002       1.0000      1.0079
   93   2 H    1      -1.580000   -4.440001   24.500000       1.0000      1.0079
   94   1 O    8      14.910001   14.490002   17.840000       6.0000     15.9994
   95   2 H    1      14.970001   14.830000   18.750002       1.0000      1.0079
   96   2 H    1      13.950001   14.470000   17.560001       1.0000      1.0079
   97   1 O    8     -13.650000  -12.640000   14.230001       6.0000     15.9994
   98   2 H    1     -13.870001  -12.110001   13.420000       1.0000      1.0079
   99   2 H    1     -12.680000  -12.400000   14.160000       1.0000      1.0079
  100   1 O    8       1.100000   -5.300000   21.040001       6.0000     15.9994
  101   2 H    1       0.870000   -6.260000   21.130001       1.0000      1.0079
  102   2 H    1       1.610000   -5.170000   20.200001       1.0000      1.0079
  103   1 O    8      19.270000   14.870001   29.570004       6.0000     15.9994
  104   2 H    1      20.020000   14.340000   30.000002       1.0000      1.0079
  105   2 H    1       2.560000   14.450001   28.700001       1.0000      1.0079
  106   1 O    8      -0.370000   13.310001   14.590001       6.0000     15.9994
  107   2 H    1       0.490000   13.440001   14.110001       1.0000      1.0079
  108   2 H    1      -0.610000   14.180001   14.940001       1.0000      1.0079
  109   1 O    8      22.430000   14.890001   17.130001       6.0000     15.9994
  110   2 H    1      23.059999   14.400001   17.730001       1.0000      1.0079
  111   2 H    1      22.120001   14.230001   16.420000       1.0000      1.0079
  112   1 O    8      -8.950001    8.030001   28.730001       6.0000     15.9994
  113   2 H    1      -9.760000    7.590001   29.170000       1.0000      1.0079
  114   2 H    1      -9.220000    9.010000   28.870001       1.0000      1.0079
  115   1 O    8      14.650001   19.890001   11.530000       6.0000     15.9994
  116   2 H    1      15.580001   19.550001   11.380000       1.0000      1.0079
  117   2 H    1      14.010000   19.180000   11.730001       1.0000      1.0079
  118   1 O    8     -17.410000   15.100001   27.140003       6.0000     15.9994
  119   2 H    1     -17.030001   15.840001   27.650002       1.0000      1.0079
  120   2 H    1     -18.110001   14.650001   27.630003       1.0000      1.0079
  121   1 O    8      19.670002   11.920000   22.590000       6.0000     15.9994
  122   2 H    1      19.610001   11.640000   21.500000       1.0000      1.0079
  123   2 H    1      19.530001   12.880001   22.530001       1.0000      1.0079
  124   1 O    8     -11.760000   16.130001   27.570002       6.0000     15.9994
  125   2 H    1     -19.740002   31.630001   27.870003       1.0000      1.0079
  126   2 H    1     -12.640000   16.620001   27.510002       1.0000      1.0079
  127   1 O    8      16.690001   -3.290000   15.110001       6.0000     15.9994
  128   2 H    1      15.990001   -3.780000   14.560001       1.0000      1.0079
  129   2 H    1       8.110001   12.310000   15.010000       1.0000      1.0079
  130   1 O    8      -1.030000    0.740000   33.380001       6.0000     15.9994
  131   2 H    1      -1.890000    0.410000   33.090004       1.0000      1.0079
  132   2 H    1      -1.050000    1.740000   33.180000       1.0000      1.0079
  133   1 O    8       0.180000   23.800001    8.770000       6.0000     15.9994
  134   2 H    1       0.160000   22.840002    9.030001       1.0000      1.0079
  135   2 H    1      -0.530000   23.670002    8.050001       1.0000      1.0079
  136   1 O    8     -20.559999   -0.190000   25.310001       6.0000     15.9994
  137   2 H    1     -21.290001   -0.090000   24.640003       1.0000      1.0079
  138   2 H    1     -20.500002    0.680000   25.770000       1.0000      1.0079
  139   1 O    8       2.510000   10.920000   20.200001       6.0000     15.9994
  140   2 H    1       2.590000   11.500001   19.400002       1.0000      1.0079
  141   2 H    1       3.060000   10.120001   20.150002       1.0000      1.0079
  142   1 O    8      -0.100000   12.360001   17.080000       6.0000     15.9994
  143   2 H    1      -0.080000   12.600001   16.080000       1.0000      1.0079
  144   2 H    1      -0.900000   12.910000   17.340000       1.0000      1.0079
  145   1 O    8     -10.290001   33.570000   18.000000       6.0000     15.9994
  146   2 H    1       6.890000   34.480003   18.170000       1.0000      1.0079
  147   2 H    1     -11.260000   33.750004   17.720001       1.0000      1.0079
  148   1 O    8     -24.209999   17.830002   28.200001       6.0000     15.9994
  149   2 H    1     -23.570002   18.600002   28.140001       1.0000      1.0079
  150   2 H    1     -24.200001   17.550001   29.250002       1.0000      1.0079
  151   1 O    8      -1.170000   28.030003   18.680000       6.0000     15.9994
  152   2 H    1      -0.720000   27.150002   18.260000       1.0000      1.0079
  153   2 H    1      -1.650000   27.660000   19.460001       1.0000      1.0079
  154   1 O    8       4.410000   -3.890000   22.530001       6.0000     15.9994
  155   2 H    1       4.380000   -2.980000   22.220001       1.0000      1.0079
  156   2 H    1       4.540000   -4.510000   21.639999       1.0000      1.0079
  157   1 O    8       1.560000   -1.550000   22.550001       6.0000     15.9994
  158   2 H    1       0.610000   -1.300000   22.820000       1.0000      1.0079
  159   2 H    1       1.610000   -2.450000   22.920000       1.0000      1.0079
  160   1 O    8       1.670000   -0.240000    8.660001       6.0000     15.9994
  161   2 H    1       2.010000   -0.950000    9.190001       1.0000      1.0079
  162   2 H    1       1.780000   -0.560000    7.680000       1.0000      1.0079
  163   1 O    8      39.010002   -7.370000   27.960003       6.0000     15.9994
  164   2 H    1      38.570000   -6.610000   28.350000       1.0000      1.0079
  165   2 H    1      38.750004   -7.190001   26.980001       1.0000      1.0079
  166   1 O    8      -4.820000    4.950000   17.250000       6.0000     15.9994
  167   2 H    1      -5.310000    5.850000   17.320002       1.0000      1.0079
  168   2 H    1      -5.530000    4.320000   17.040001       1.0000      1.0079
  169   1 O    8     -33.420002    5.950000   15.830001       6.0000     15.9994
  170   2 H    1     -15.880001    6.640000   16.090000       1.0000      1.0079
  171   2 H    1     -17.250000    5.990000   16.580002       1.0000      1.0079
  172   1 O    8      10.290001   -0.570000   12.960000       6.0000     15.9994
  173   2 H    1      10.050000    0.260000   12.500000       1.0000      1.0079
  174   2 H    1      11.230000   -0.480000   13.100000       1.0000      1.0079
  175   1 O    8       7.450001    9.180000   18.840000       6.0000     15.9994
  176   2 H    1       7.670000    8.250000   19.050001       1.0000      1.0079
  177   2 H    1       7.050000    9.540001   19.700001       1.0000      1.0079
  178   1 O    8      -2.290000   13.440001   28.170002       6.0000     15.9994
  179   2 H    1      -2.820000   13.140000   27.380001       1.0000      1.0079
  180   2 H    1      -3.040000   13.670001   28.720001       1.0000      1.0079
  181   1 O    8      13.680000   -3.020000   32.570004       6.0000     15.9994
  182   2 H    1      14.640001   -2.860000   32.700001       1.0000      1.0079
  183   2 H    1      13.370000   -2.980000   33.520004       1.0000      1.0079
  184   1 O    8       9.540001   13.830000   32.130001       6.0000     15.9994
  185   2 H    1      10.270000   13.590001   32.740002       1.0000      1.0079
  186   2 H    1       8.890000   14.360001   32.710003       1.0000      1.0079
  187   1 O    8       3.090000   36.400002   13.050001       6.0000     15.9994
  188   2 H    1       2.650000   37.320000   13.210001       1.0000      1.0079
  189   2 H    1       3.960000   36.540001   12.490001       1.0000      1.0079
  190   1 O    8       4.920000   14.490002   32.430004       6.0000     15.9994
  191   2 H    1       5.350000   14.640001   31.490002       1.0000      1.0079
  192   2 H    1       4.300000   15.230001   32.630001       1.0000      1.0079
  193   1 O    8       6.190000   10.890001    9.160001       6.0000     15.9994
  194   2 H    1       5.890000    9.990001    8.890000       1.0000      1.0079
  195   2 H    1       6.690001   11.250000    8.360001       1.0000      1.0079
  196   1 O    8     -29.960001    7.970000   30.230003       6.0000     15.9994
  197   2 H    1     -29.250002    7.330000   30.200003       1.0000      1.0079
  198   2 H    1     -30.220001    8.120001   29.260002       1.0000      1.0079
  199   1 O    8     -10.230000   21.150000   14.050001       6.0000     15.9994
  200   2 H    1     -11.020000   20.630001   14.300001       1.0000      1.0079
  201   2 H    1      -9.420000   20.760002   14.430000       1.0000      1.0079
  202   1 O    8       7.350000   17.990002    8.970000       6.0000     15.9994
  203   2 H    1       7.380000   17.910002    7.950000       1.0000      1.0079
  204   2 H    1       7.800000   18.790001    9.240000       1.0000      1.0079
  205   1 O    8      25.730001   -6.180000    9.440001       6.0000     15.9994
  206   2 H    1      16.400002    8.440001    9.050000       1.0000      1.0079
  207   2 H    1      26.170002   -5.480001    8.860001       1.0000      1.0079
  208   1 O    8       3.500000  -18.150002   25.000000       6.0000     15.9994
  209   2 H    1       3.410000  -17.770000   24.020002       1.0000      1.0079
  210   2 H    1       4.370000  -17.720001   25.200003       1.0000      1.0079
  211   1 O    8       6.390000  -11.460000   24.610003       6.0000     15.9994
  212   2 H    1       6.240000  -11.530000   25.560001       1.0000      1.0079
  213   2 H    1       7.060000  -12.160001   24.440001       1.0000      1.0079
  214   1 O    8       8.890000    7.310000   15.100001       6.0000     15.9994
  215   2 H    1       9.220000    6.480000   14.540001       1.0000      1.0079
  216   2 H    1       9.310000    8.090000   14.620000       1.0000      1.0079
  217   1 O    8     -16.580002    0.050000   27.040003       6.0000     15.9994
  218   2 H    1     -16.630001   -0.970000   26.800001       1.0000      1.0079
  219   2 H    1     -15.630001    0.230000   26.950001       1.0000      1.0079
  220   1 O    8      28.110001    3.580000   24.500000       6.0000     15.9994
  221   2 H    1      28.190002    4.600000   24.209999       1.0000      1.0079
  222   2 H    1      28.710001    3.100000   23.910000       1.0000      1.0079
  223   1 O    8      -5.890000   12.200001   17.750000       6.0000     15.9994
  224   2 H    1       9.970000   12.000000   17.500002       1.0000      1.0079
  225   2 H    1      -6.100000   12.610001   18.710001       1.0000      1.0079
  226   1 O    8       2.950000   33.639999    8.100000       6.0000     15.9994
  227   2 H    1       3.050000   32.720001    8.370000       1.0000      1.0079
  228   2 H    1      18.980001   34.050003    8.560000       1.0000      1.0079
  229   1 O    8      -2.730000    8.400001   16.190001       6.0000     15.9994
  230   2 H    1      -2.350000    8.110001   15.390000       1.0000      1.0079
  231   2 H    1      -2.740000    7.560000   16.710001       1.0000      1.0079
  232   1 O    8       3.080000    8.270000   33.270000       6.0000     15.9994
  233   2 H    1       2.730000    9.150001   33.090004       1.0000      1.0079
  234   2 H    1       2.400000    7.640000   32.870003       1.0000      1.0079
  235   1 O    8      -8.470000   25.670002   22.500000       6.0000     15.9994
  236   2 H    1      -7.640000   25.980000   22.060001       1.0000      1.0079
  237   2 H    1      -8.900001   26.560001   22.680000       1.0000      1.0079
  238   1 O    8       4.660000   -4.080000   33.370003       6.0000     15.9994
  239   2 H    1      -2.880000   10.540000   33.020000       1.0000      1.0079
  240   2 H    1       4.280000   -4.910000   32.980000       1.0000      1.0079
  241   1 O    8      10.960001   -6.750000   27.930002       6.0000     15.9994
  242   2 H    1      10.120001   -6.280000   28.190002       1.0000      1.0079
  243   2 H    1      11.050000   -6.600000   26.970001       1.0000      1.0079
  244   1 O    8       4.240000   -2.910000    8.030001       6.0000     15.9994
  245   2 H    1       5.090000   -3.470000    8.250000       1.0000      1.0079
  246   2 H    1       3.520000   -3.550000    8.010000       1.0000      1.0079
  247   1 O    8      18.600002    6.460000   32.050003       6.0000     15.9994
  248   2 H    1      18.220001    6.580000   31.140001       1.0000      1.0079
  249   2 H    1      19.490002    5.970000   31.930000       1.0000      1.0079
  250   1 O    8      16.970001    7.660000   30.040001       6.0000     15.9994
  251   2 H    1      17.320002    8.580000   30.000002       1.0000      1.0079
  252   2 H    1      16.690001    7.310000   29.110003       1.0000      1.0079
  253   1 O    8      -3.620000    3.760000    9.450001       6.0000     15.9994
  254   2 H    1      -2.700000    3.500000    9.240000       1.0000      1.0079
  255   2 H    1      -3.450000    4.380000   10.220001       1.0000      1.0079
  256   1 O    8      11.380000   -8.160001   19.290001       6.0000     15.9994
  257   2 H    1      10.380001   -8.140000   19.230001       1.0000      1.0079
  258   2 H    1      11.830001   -8.610001   18.520000       1.0000      1.0079
  259   1 O    8     -20.200001   23.920002   17.140001       6.0000     15.9994
  260   2 H    1     -19.470001   24.050003   17.830002       1.0000      1.0079
  261   2 H    1     -19.920002   23.300001   16.420000       1.0000      1.0079
  262   1 O    8       5.350000    7.820001   11.640000       6.0000     15.9994
  263   2 H    1       5.890000    6.990001   11.760000       1.0000      1.0079
  264   2 H    1       5.860000    8.530001   12.100000       1.0000      1.0079
  265   1 O    8       2.720000   -1.660000   10.620001       6.0000     15.9994
  266   2 H    1       2.570000   -2.660000   10.770000       1.0000      1.0079
  267   2 H    1      12.120000   13.050001   10.350000       1.0000      1.0079
  268   1 O    8       1.520000   -8.100000   29.720001       6.0000     15.9994
  269   2 H    1       1.830000   -7.540000   30.430002       1.0000      1.0079
  270   2 H    1       0.860000   -7.500000   29.220001       1.0000      1.0079
  271   1 O    8       4.430000    3.530000   12.890000       6.0000     15.9994
  272   2 H    1       3.490000    3.350000   12.650002       1.0000      1.0079
  273   2 H    1       4.810000    2.740000   13.340001       1.0000      1.0079
  274   1 O    8      -1.550000   15.980000   24.820002       6.0000     15.9994
  275   2 H    1      -1.000000   15.730000   25.630001       1.0000      1.0079
  276   2 H    1      -0.930000   16.600000   24.310001       1.0000      1.0079
  277   1 O    8       0.050000   11.760000    9.050000       6.0000     15.9994
  278   2 H    1     -16.160000   11.610001    9.730001       1.0000      1.0079
  279   2 H    1       0.380000   11.520000    8.150001       1.0000      1.0079
  280   1 O    8      31.330002   -9.200000   32.530003       6.0000     15.9994
  281   2 H    1      31.980001   -9.970000   32.480003       1.0000      1.0079
  282   2 H    1      31.100002   -9.160001   33.480000       1.0000      1.0079
  283   1 O    8      16.500000   -0.650000   14.620000       6.0000     15.9994
  284   2 H    1       7.410001   14.120001   13.960000       1.0000      1.0079
  285   2 H    1      17.410000   -0.610000   14.080001       1.0000      1.0079
  286   1 O    8     -29.540003   30.950001   24.860001       6.0000     15.9994
  287   2 H    1     -11.660000   31.020002   24.790001       1.0000      1.0079
  288   2 H    1     -29.610003   30.950001   25.820000       1.0000      1.0079
  289   1 O    8      -1.800000    5.470000   23.370001       6.0000     15.9994
  290   2 H    1      -1.970000    4.680000   23.920002       1.0000      1.0079
  291   2 H    1      -1.360000    6.070001   24.110001       1.0000      1.0079
  292   1 O    8      13.170000    6.390000   21.590002       6.0000     15.9994
  293   2 H    1      13.980001    5.920000   21.890001       1.0000      1.0079
  294   2 H    1      12.650002    5.760000   21.070002       1.0000      1.0079
  295   1 O    8      -1.550000   17.090000   32.660004       6.0000     15.9994
  296   2 H    1      -1.900000   17.200001   33.600002       1.0000      1.0079
  297   2 H    1      -0.600000   17.200001   32.770000       1.0000      1.0079
  298   1 O    8      -1.320000   25.520000   28.840000       6.0000     15.9994
  299   2 H    1      -1.120000   26.010000   29.700001       1.0000      1.0079
  300   2 H    1      -2.280000   25.180000   29.100000       1.0000      1.0079
  301   1 O    8      -3.880000   14.030001   14.400001       6.0000     15.9994
  302   2 H    1      -3.440000   13.160001   14.130001       1.0000      1.0079
  303   2 H    1      -4.150000   14.030001   15.400001       1.0000      1.0079
  304   1 O    8      19.380001   12.450000   17.800001       6.0000     15.9994
  305   2 H    1      18.480000   12.400000   17.440001       1.0000      1.0079
  306   2 H    1      20.090000   12.230001   17.140001       1.0000      1.0079
  307   1 O    8     -16.340000    6.140000   12.360001       6.0000     15.9994
  308   2 H    1     -15.430001    6.230001   12.790001       1.0000      1.0079
  309   2 H    1     -16.690001    7.070000   12.380000       1.0000      1.0079
  310   1 O    8     -15.050001   25.010002   23.440001       6.0000     15.9994
  311   2 H    1     -14.040001   24.950001   23.360003       1.0000      1.0079
  312   2 H    1     -15.360001   24.610003   22.600000       1.0000      1.0079
  313   1 O    8      16.120001    6.400001   27.860001       6.0000     15.9994
  314   2 H    1      15.430001    7.140000   27.980001       1.0000      1.0079
  315   2 H    1      15.740002    5.500000   28.020000       1.0000      1.0079
  316   1 O    8       0.810000   -9.780001   11.190001       6.0000     15.9994
  317   2 H    1       0.770000   -9.130000   10.420000       1.0000      1.0079
  318   2 H    1       1.010000  -10.710001   10.940001       1.0000      1.0079
  319   1 O    8      -2.660000    2.870000   14.050001       6.0000     15.9994
  320   2 H    1      -1.860000    3.020000   13.440001       1.0000      1.0079
  321   2 H    1      -2.270000    2.690000   14.930000       1.0000      1.0079
  322   1 O    8      16.290001    9.770000   17.440001       6.0000     15.9994
  323   2 H    1      15.580001    9.420000   16.860001       1.0000      1.0079
  324   2 H    1      16.400002   10.770000   17.340000       1.0000      1.0079
  325   1 O    8       7.510000   17.900002   32.640003       6.0000     15.9994
  326   2 H    1       8.220000   17.870001   31.970003       1.0000      1.0079
  327   2 H    1       7.690001   18.830002   33.000000       1.0000      1.0079
  328   1 O    8       3.880000   21.960001    9.220000       6.0000     15.9994
  329   2 H    1       3.600000   22.170000   10.200001       1.0000      1.0079
  330   2 H    1       4.830000   21.730001    9.230001       1.0000      1.0079
  331   1 O    8     -24.920002   32.160000   27.750000       6.0000     15.9994
  332   2 H    1     -25.310001   32.740002   27.100000       1.0000      1.0079
  333   2 H    1     -23.950003   32.250000   27.650002       1.0000      1.0079
  334   1 O    8     -16.940001    4.300000   21.620003       6.0000     15.9994
  335   2 H    1     -16.290001    3.760000   22.110003       1.0000      1.0079
  336   2 H    1     -17.420002    4.870000   22.230000       1.0000      1.0079
  337   1 O    8       1.090000   17.720001   32.510002       6.0000     15.9994
  338   2 H    1       9.360001    3.470000   31.580002       1.0000      1.0079
  339   2 H    1     -14.840001   17.310001   32.360001       1.0000      1.0079
  340   1 O    8      14.100000   28.770000    8.500000       6.0000     15.9994
  341   2 H    1      14.970001   29.220001    8.760000       1.0000      1.0079
  342   2 H    1      13.450001   29.510002    8.510000       1.0000      1.0079
  343   1 O    8      10.620001   14.290000   13.050001       6.0000     15.9994
  344   2 H    1      11.460000   14.220000   13.520001       1.0000      1.0079
  345   2 H    1      10.930000   13.730000   12.170000       1.0000      1.0079
  346   1 O    8       4.380000   -8.870000   32.470001       6.0000     15.9994
  347   2 H    1       4.660000   -8.790001   33.410000       1.0000      1.0079
  348   2 H    1       4.210001   -7.920001   32.280003       1.0000      1.0079
  349   1 O    8      15.310000    6.060000   17.850000       6.0000     15.9994
  350   2 H    1      15.570001    6.580000   18.610001       1.0000      1.0079
  351   2 H    1      15.120001    5.230000   18.300001       1.0000      1.0079
  352   1 O    8       9.180000    1.270000   21.119999       6.0000     15.9994
  353   2 H    1       9.530001    1.850000   20.400002       1.0000      1.0079
  354   2 H    1       8.270000    1.040000   20.830002       1.0000      1.0079
  355   1 O    8      10.510000   -0.240000   22.920000       6.0000     15.9994
  356   2 H    1      10.160000   -0.140000   23.840000       1.0000      1.0079
  357   2 H    1       9.890000    0.100000   22.240002       1.0000      1.0079
  358   1 O    8       1.870000   20.520000   13.410001       6.0000     15.9994
  359   2 H    1       1.410000   20.150002   12.590000       1.0000      1.0079
  360   2 H    1       2.640000   20.030001   13.760000       1.0000      1.0079
  361   1 O    8      -3.730000    9.530001   29.670002       6.0000     15.9994
  362   2 H    1      -2.840000    9.920000   29.530001       1.0000      1.0079
  363   2 H    1      -4.250000    9.980000   28.940001       1.0000      1.0079
  364   1 O    8       3.680000   14.490002   19.100000       6.0000     15.9994
  365   2 H    1       3.200000   13.680000   18.790001       1.0000      1.0079
  366   2 H    1       4.270000   14.670001   18.360001       1.0000      1.0079
  367   1 O    8       4.750000   13.400001   11.810001       6.0000     15.9994
  368   2 H    1       4.560000   12.870001   11.060000       1.0000      1.0079
  369   2 H    1       5.750000   13.660001   11.830001       1.0000      1.0079
  370   1 O    8     -17.570002   -2.950000   31.710003       6.0000     15.9994
  371   2 H    1     -16.910002   -2.210000   31.910002       1.0000      1.0079
  372   2 H    1     -17.020000   -3.770000   31.870001       1.0000      1.0079
  373   1 O    8      -3.340000   10.180000   24.850002       6.0000     15.9994
  374   2 H    1      -2.380000   10.110001   24.830000       1.0000      1.0079
  375   2 H    1      -3.650000   10.400001   23.950003       1.0000      1.0079
  376   1 O    8      -1.040000   17.750000    9.010000       6.0000     15.9994
  377   2 H    1      -1.480000   17.030001    9.530001       1.0000      1.0079
  378   2 H    1      -1.720000   17.980001    8.280001       1.0000      1.0079
  379   1 O    8       1.840000   -2.350000   29.530001       6.0000     15.9994
  380   2 H    1       1.900000   -3.040000   28.810001       1.0000      1.0079
  381   2 H    1       2.170000   -2.750000   30.340002       1.0000      1.0079
  382   1 O    8      -6.860001    0.600000   25.470001       6.0000     15.9994
  383   2 H    1      -6.530001    1.270000   26.010000       1.0000      1.0079
  384   2 H    1      -7.640000    0.200000   25.960003       1.0000      1.0079
  385   1 O    8       5.260000   24.330002   11.770000       6.0000     15.9994
  386   2 H    1       4.500000   23.800001   12.040001       1.0000      1.0079
  387   2 H    1       5.390000   25.020000   12.500000       1.0000      1.0079
  388   1 O    8       0.810000    5.540000    9.520000       6.0000     15.9994
  389   2 H    1       0.410000    6.340000    9.150001       1.0000      1.0079
  390   2 H    1       0.890000    5.810000   10.460000       1.0000      1.0079
  391   1 O    8       2.910000   19.300001    8.080000       6.0000     15.9994
  392   2 H    1       2.710000   20.170002    8.410000       1.0000      1.0079
  393   2 H    1       3.770000   19.020000    8.430000       1.0000      1.0079
  394   1 O    8      12.050000   19.230001   31.780003       6.0000     15.9994
  395   2 H    1      21.440001    4.830000   32.080002       1.0000      1.0079
  396   2 H    1      12.300000   19.080002   30.760002       1.0000      1.0079
  397   1 O    8      -3.410000    9.030001   20.440002       6.0000     15.9994
  398   2 H    1      -3.830000    8.270000   20.910000       1.0000      1.0079
  399   2 H    1      -2.460000    8.710001   20.260000       1.0000      1.0079
  400   1 O    8       9.940001   19.420002   24.740002       6.0000     15.9994
  401   2 H    1      10.610001   19.350000   23.960001       1.0000      1.0079
  402   2 H    1       9.440001   18.630001   24.520000       1.0000      1.0079
  403   1 O    8      30.940001   40.760002   13.750001       6.0000     15.9994
  404   2 H    1      30.640001   40.440002   14.620000       1.0000      1.0079
  405   2 H    1      31.770000   41.110001   13.850001       1.0000      1.0079
  406   1 O    8       8.830000   -4.690000   27.750000       6.0000     15.9994
  407   2 H    1       9.310000   -3.820000   27.610001       1.0000      1.0079
  408   2 H    1       8.430000   -4.700000   26.890001       1.0000      1.0079
  409   1 O    8      14.120001    3.850000   18.860001       6.0000     15.9994
  410   2 H    1      14.100000    3.420000   19.750002       1.0000      1.0079
  411   2 H    1      13.220000    4.050000   18.600002       1.0000      1.0079
  412   1 O    8     -15.680000   -8.290001   21.840000       6.0000     15.9994
  413   2 H    1     -16.560001   -8.720000   22.250002       1.0000      1.0079
  414   2 H    1     -14.970001   -8.380001   22.550001       1.0000      1.0079
  415   1 O    8      -8.940001   15.420000    9.450001       6.0000     15.9994
  416   2 H    1      -8.100000   15.030001    9.060000       1.0000      1.0079
  417   2 H    1      -9.020000   16.390001    9.210001       1.0000      1.0079
  418   1 O    8      37.760002   37.990002   19.630001       6.0000     15.9994
  419   2 H    1      37.389999   37.060001   19.630001       1.0000      1.0079
  420   2 H    1      38.000000   38.209999   18.690001       1.0000      1.0079
  421   1 O    8      19.870001    2.020000    9.220000       6.0000     15.9994
  422   2 H    1      19.480001    1.180000    8.820001       1.0000      1.0079
  423   2 H    1      19.450001    2.090000   10.190001       1.0000      1.0079
  424   1 O    8      -3.850000   14.940001   32.180000       6.0000     15.9994
  425   2 H    1      -2.840000   15.090000   32.400002       1.0000      1.0079
  426   2 H    1       4.070000    1.200000   32.490002       1.0000      1.0079
  427   1 O    8       0.300000    6.460000   19.700001       6.0000     15.9994
  428   2 H    1       0.150000    7.250000   20.380001       1.0000      1.0079
  429   2 H    1       0.180000    5.550000   20.170002       1.0000      1.0079
  430   1 O    8     -10.660001   17.120001   21.040001       6.0000     15.9994
  431   2 H    1     -11.340000   16.880001   21.660002       1.0000      1.0079
  432   2 H    1     -10.020000   17.730001   21.520002       1.0000      1.0079
  433   1 O    8      -0.080000   -8.070001   18.980001       6.0000     15.9994
  434   2 H    1       0.700000   -7.890000   18.440001       1.0000      1.0079
  435   2 H    1       0.250000   -8.180000   19.930002       1.0000      1.0079
  436   1 O    8       1.650000   23.750000   25.770000       6.0000     15.9994
  437   2 H    1       0.970000   23.040001   25.960003       1.0000      1.0079
  438   2 H    1      10.060000    9.500000   24.820002       1.0000      1.0079
  439   1 O    8      -2.020000   -4.510000   21.110001       6.0000     15.9994
  440   2 H    1      -1.460000   -4.390000   21.920002       1.0000      1.0079
  441   2 H    1      -2.830000   -4.960000   21.440001       1.0000      1.0079
  442   1 O    8      13.110001   12.260000   26.310001       6.0000     15.9994
  443   2 H    1      13.280001   11.350001   25.750000       1.0000      1.0079
  444   2 H    1      12.690001   12.820001   25.600002       1.0000      1.0079
  445   1 O    8     -16.950001    8.900001   12.170000       6.0000     15.9994
  446   2 H    1     -16.660002    8.840000   11.190001       1.0000      1.0079
  447   2 H    1     -17.930000    8.920000   12.190001       1.0000      1.0079
  448   1 O    8     -12.670001   11.460000   13.520001       6.0000     15.9994
  449   2 H    1     -13.530001   10.940001   13.350000       1.0000      1.0079
  450   2 H    1       4.390000   12.100000   12.850000       1.0000      1.0079
  451   1 O    8       0.830000    2.280000   30.600002       6.0000     15.9994
  452   2 H    1       0.530000    1.430000   30.240002       1.0000      1.0079
  453   2 H    1       1.560000    2.070000   31.250002       1.0000      1.0079
  454   1 O    8       8.270000   14.410001   29.580002       6.0000     15.9994
  455   2 H    1       8.870000   13.650000   29.750002       1.0000      1.0079
  456   2 H    1       8.370000   14.560001   28.540001       1.0000      1.0079
  457   1 O    8       1.880000   -7.490000   17.280001       6.0000     15.9994
  458   2 H    1       1.400000   -7.370000   16.440001       1.0000      1.0079
  459   2 H    1       2.290000   -6.610000   17.540001       1.0000      1.0079
  460   1 O    8      13.170000   13.670001   21.570000       6.0000     15.9994
  461   2 H    1      12.760000   13.900002   22.440002       1.0000      1.0079
  462   2 H    1      -4.620000   13.600000   21.020000       1.0000      1.0079
  463   1 O    8     -11.300000  -16.900002   26.350002       6.0000     15.9994
  464   2 H    1     -11.680001  -17.030001   27.230000       1.0000      1.0079
  465   2 H    1     -11.500001  -16.000000   26.060001       1.0000      1.0079
  466   1 O    8       1.780000   -4.230000   11.590000       6.0000     15.9994
  467   2 H    1       1.940000   -3.990000   12.530001       1.0000      1.0079
  468   2 H    1       0.780000   -3.910000   11.520000       1.0000      1.0079
  469   1 O    8      -6.650000   -2.550000   26.930000       6.0000     15.9994
  470   2 H    1      -6.110000   -2.140000   27.650002       1.0000      1.0079
  471   2 H    1      -5.920000   -2.850000   26.280001       1.0000      1.0079
  472   1 O    8       3.690000   -0.350000   29.630001       6.0000     15.9994
  473   2 H    1       3.790000   -0.070000   30.570002       1.0000      1.0079
  474   2 H    1       3.020000   -1.030000   29.490002       1.0000      1.0079
  475   1 O    8      14.550000   10.220001    9.480001       6.0000     15.9994
  476   2 H    1      14.070001   10.050000   10.330000       1.0000      1.0079
  477   2 H    1      15.410002   10.680000    9.610001       1.0000      1.0079
  478   1 O    8     -11.590000   29.960001    9.040001       6.0000     15.9994
  479   2 H    1     -12.510000   30.389999    9.100000       1.0000      1.0079
  480   2 H    1     -11.580001   29.760000    8.080000       1.0000      1.0079
  481   1 O    8       5.800000    8.420001   33.170002       6.0000     15.9994
  482   2 H    1       4.780000    8.400001   33.010002       1.0000      1.0079
  483   2 H    1       6.100000    9.360001   33.250000       1.0000      1.0079
  484   1 O    8      -6.030001   42.930000   20.050001       6.0000     15.9994
  485   2 H    1      -6.440001   42.840004   20.900002       1.0000      1.0079
  486   2 H    1      -6.230001   43.830002   19.740002       1.0000      1.0079
  487   1 O    8       6.650000   29.990002   20.500002       6.0000     15.9994
  488   2 H    1       5.950000   29.350002   20.830002       1.0000      1.0079
  489   2 H    1       6.360001   30.960003   20.540001       1.0000      1.0079
  490   1 O    8      14.610001   24.330002   13.300000       6.0000     15.9994
  491   2 H    1      14.610001   23.590002   13.980001       1.0000      1.0079
  492   2 H    1      13.750001   24.860001   13.380001       1.0000      1.0079
  493   1 O    8      -1.130000   10.950001   32.250000       6.0000     15.9994
  494   2 H    1      -9.500000   26.530001   32.520000       1.0000      1.0079
  495   2 H    1      -1.160000   11.110001   31.310001       1.0000      1.0079
  496   1 O    8      15.340000    3.850000   28.150002       6.0000     15.9994
  497   2 H    1       6.740000   18.500002   29.130001       1.0000      1.0079
  498   2 H    1       7.810000   18.160002   28.110001       1.0000      1.0079
  499   1 O    8      19.560001   24.170000   18.740002       6.0000     15.9994
  500   2 H    1      20.389999   23.780001   19.100000       1.0000      1.0079
  501   2 H    1      19.690001   25.110001   18.350000       1.0000      1.0079
  502   1 O    8       9.820001    9.530001   32.610001       6.0000     15.9994
  503   2 H    1       9.200000    8.730000   32.580002       1.0000      1.0079
  504   2 H    1       9.870001    9.830000   33.560001       1.0000      1.0079
  505   1 O    8      21.730001    8.330001    8.960000       6.0000     15.9994
[...]
    899      3      Pt         -0.01087643     0.00624275    -0.00065019
    900      3      Pt          0.01013968    -0.00504733     0.00915260
    901      3      Pt          0.01500944    -0.02002239     0.00054856
    902      3      Pt         -0.02086113     0.01163528    -0.00793245
    903      3      Pt          0.00399070     0.00743425    -0.00410327
    904      3      Pt          0.00202137    -0.01366228     0.00498083
    905      3      Pt         -0.01075003    -0.00288083     0.01487818
    906      3      Pt         -0.00325058    -0.01882457    -0.01462658
 SUM OF ATOMIC FORCES           0.00693372    -0.01630852    -0.04709684     0.05032054

 STRESS| Analytical stress tensor [GPa]
 STRESS|                        x                   y                   z
 STRESS|      x       -2.32472199262E+00  -2.28322672485E-02   3.39932127760E-01
 STRESS|      y       -2.28322672485E-02  -2.56003983284E+00  -7.12083843505E-03
 STRESS|      z        3.39932127760E-01  -7.12083843505E-03  -4.45619524396E-01
 STRESS| 1/3 Trace                                            -1.77679378328E+00
 STRESS| Determinant                                          -2.35576834335E+00

 STRESS| Eigenvectors and eigenvalues of the analytical stress tensor [GPa]
 STRESS|                        1                   2                   3
 STRESS| Eigenvalues  -2.56262976644E+00  -2.38179088231E+00  -3.85960701100E-01
 STRESS|      x           0.117475187795      0.977934090869      0.172755590849
 STRESS|      y           0.992954484523     -0.118389132530     -0.005040333851
 STRESS|      z          -0.015523270238     -0.172130552825      0.984951826672

 -------------------------------------------------------------------------------
 -                                                                             -
 -                                DBCSR STATISTICS                             -
 -                                                                             -
 -------------------------------------------------------------------------------
 COUNTER                                    TOTAL       BLAS       SMM       ACC
 flops     5 x     5 x   288          88583616000       0.0%    100.0%      0.0%
 flops     5 x     5 x   292          89813944000       0.0%    100.0%      0.0%
 flops     5 x    13 x   288          99682427520       0.0%    100.0%      0.0%
 flops    13 x     5 x   288          99903473280       0.0%    100.0%      0.0%
 flops     5 x    13 x   292         101066905680       0.0%    100.0%      0.0%
 flops    13 x     5 x   292         101291021520       0.0%    100.0%      0.0%
 flops    20 x    13 x   288         102466990080       0.0%    100.0%      0.0%
 flops    13 x    20 x   288         102737157120       0.0%    100.0%      0.0%
 flops    20 x    13 x   292         103890142720       0.0%    100.0%      0.0%
 flops    13 x    20 x   292         104164062080       0.0%    100.0%      0.0%
 flops    13 x    13 x   288         106251170688       0.0%    100.0%      0.0%
 flops    13 x    13 x   292         107726881392       0.0%    100.0%      0.0%
 flops    20 x     5 x   288         111722572800       0.0%    100.0%      0.0%
 flops     5 x    20 x   288         111817036800       0.0%    100.0%      0.0%
 flops    20 x     5 x   292         113274275200       0.0%    100.0%      0.0%
 flops     5 x    20 x   292         113370051200       0.0%    100.0%      0.0%
 flops    20 x    20 x   288         442771660800       0.0%    100.0%      0.0%
 flops    20 x    20 x   292         448921267200       0.0%    100.0%      0.0%
 flops     5 x     5 x   320         590557440000       0.0%    100.0%      0.0%
 flops     5 x    13 x   320         664549516800       0.0%    100.0%      0.0%
 flops    13 x     5 x   320         666023155200       0.0%    100.0%      0.0%
 flops    20 x    13 x   320         683113267200       0.0%    100.0%      0.0%
 flops    13 x    20 x   320         684914380800       0.0%    100.0%      0.0%
 flops    13 x    13 x   320         708341137920       0.0%    100.0%      0.0%
 flops    20 x     5 x   320         744817152000       0.0%    100.0%      0.0%
 flops     5 x    20 x   320         745446912000       0.0%    100.0%      0.0%
 flops    20 x    20 x   320        2951811072000       0.0%    100.0%      0.0%
 flops inhomo. stacks                           0       0.0%      0.0%      0.0%
 flops total                        10.989029E+12       0.0%    100.0%      0.0%
 flops max/rank                    177.845700E+09       0.0%    100.0%      0.0%
 matmuls inhomo. stacks                         0       0.0%      0.0%      0.0%
 matmuls total                          157974640       0.0%    100.0%      0.0%
 number of processed stacks                419840       0.0%    100.0%      0.0%
 average stack size                                     0.0     376.3       0.0
 marketing flops                    31.222936E+12
 -------------------------------------------------------------------------------
 # multiplications                             82
 max memory usage/rank               1.875407E+09
 # max total images/rank                        1
 # max 3D layers                                1
 # MPI messages exchanged                   73472
 MPI messages size (bytes):
  total size                       220.645474E+09
  min size                           2.762496E+06
  max size                           3.077120E+06
  average size                       3.003123E+06
 MPI breakdown and total messages size (bytes):
             size <=      128                   0                        0
       128 < size <=     8192                   0                        0
      8192 < size <=    32768                   0                        0
     32768 < size <=   131072                   0                        0
    131072 < size <=  4194304               73472             220645600000
   4194304 < size <= 16777216                   0                        0
  16777216 < size                               0                        0
 -------------------------------------------------------------------------------
 -                                                                             -
 -                      DBCSR MESSAGE PASSING PERFORMANCE                      -
 -                                                                             -
 -------------------------------------------------------------------------------
 ROUTINE             CALLS      AVE VOLUME [Bytes]
 MP_Bcast               28                     12.
 MP_Allreduce          648                     10.
 MP_Alltoall          2296                1988869.
 MP_ISend             2624                1329597.
 MP_IRecv             2624                1310413.
 -------------------------------------------------------------------------------

 -------------------------------------------------------------------------------
 -                                                                             -
 -                                DBM STATISTICS                               -
 -                                                                             -
 -------------------------------------------------------------------------------
    M  x    N  x    K                                          COUNT     PERCENT
 -------------------------------------------------------------------------------

 -------------------------------------------------------------------------------
 -                                                                             -
 -                                GRID STATISTICS                              -
 -                                                                             -
 -------------------------------------------------------------------------------
 LP    KERNEL             BACKEND                              COUNT     PERCENT
 3     collocate general  REF                               57075936      18.94%
 3     integrate general  REF                               56437872      18.73%
 2     collocate general  REF                               53350512      17.70%
 2     integrate general  REF                               52699896      17.49%
 4     collocate general  REF                               40125142      13.32%
 4     integrate general  REF                               39635811      13.15%
 6     integrate general  REF                                 696048       0.23%
 5     integrate general  REF                                 650616       0.22%
 7     integrate general  REF                                 489331       0.16%
 0     collocate general  REF                                 115968       0.04%
 0     integrate general  REF                                  57984       0.02%
 -------------------------------------------------------------------------------

 MEMORY| Estimated peak process memory [MiB]                                2104

 -------------------------------------------------------------------------------
 ----                             MULTIGRID INFO                            ----
 -------------------------------------------------------------------------------
 count for grid        1:         730768          cutoff [a.u.]          200.00
 count for grid        2:         807035          cutoff [a.u.]           66.67
 count for grid        3:         741265          cutoff [a.u.]           22.22
 count for grid        4:         830080          cutoff [a.u.]            7.41
 total gridlevel count  :        3109148

 -------------------------------------------------------------------------------
 -                                                                             -
 -                         MESSAGE PASSING PERFORMANCE                         -
 -                                                                             -
 -------------------------------------------------------------------------------

 ROUTINE             CALLS      AVE VOLUME [Bytes]
 MP_Group                4
 MP_Bcast              264                2236233.
 MP_Allreduce         1376                   1822.
 MP_Sync                85
 MP_Alltoall          1820               13003827.
 MP_SendRecv           252                  13812.
 MP_ISendRecv        20664                 113680.
 MP_Wait             46228
 MP_ISend            23904                 340012.
 MP_IRecv            23904                 340012.
 MP_Recv               385                2460160.
 MP_Write_All            3                1540656.
 -------------------------------------------------------------------------------


 -------------------------------------------------------------------------------
 -                                                                             -
 -                           R E F E R E N C E S                               -
 -                                                                             -
 -------------------------------------------------------------------------------
 
 CP2K version 2022.1, the CP2K developers group (2022).
 CP2K is freely available from https://www.cp2k.org/ .

 Kuehne,Thomas D.; Iannuzzi,Marcella; Del Ben,Mauro;
 Rybkin,Vladimir V.; Seewald,Patrick; Stein,Frederick; Laino,Teodoro;
 Khaliullin,Rustam Z.; Schuett,Ole; Schiffmann,Florian; Golze,Dorothea;
 Wilhelm,Jan; Chulkov,Sergey; Bani-Hashemian,Mohammad Hossein;
 Weber,Valery; Borstnik,Urban; Taillefumier,Mathieu;
 Jakobovits,Alice Shoshana; Lazzaro,Alfio; Pabst,Hans; Mueller,Tiziano;
 Schade,Robert; Guidon,Manuel; Andermatt,Samuel; Holmberg,Nico;
 Schenter,Gregory K.; Hehn,Anna; Bussy,Augustin; Belleflamme,Fabian;
 Tabacchi,Gloria; Gloess,Andreas; Lass,Michael; Bethune,Iain;
 Mundy,Christopher J.; Plessl,Christian; Watkins,Matt;
 VandeVondele,Joost; Krack,Matthias; Hutter,Juerg. 
 The Journal of Chemical Physics, 152 (19), (2020). 
 CP2K: An electronic structure and molecular dynamics software package -
 Quickstep: Efficient and accurate electronic structure calculations.
 https://doi.org/10.1063/5.0007045

 Goerigk, Lars; Hansen, Andreas; Bauer, Christoph; Ehrlich, Stephan;
 Najibi, Asim; Grimme, Stefan. , 19 (48), (2017). 
 A look at the density functional theory zoo with the advanced GMTKN55 database
 for general main group thermochemistry, kinetics and noncovalent interactions.
 https://doi.org/10.1039/C7CP04913G

 Schuett, Ole; Messmer, Peter; Hutter, Juerg; VandeVondele, Joost. 
 Electronic Structure Calculations on Graphics Processing Units, John
 Wiley & Sons, Ltd, 173-190 (2016). 
 GPU-Accelerated Sparse Matrix-Matrix Multiplication for
 Linear Scaling Density Functional Theory.
 https://doi.org/10.1002/9781118670712.ch8

 Heinecke, A; Henry, G; Hutchinson, M; Pabst, H. 
 Proceedings of Intl. Supercomputing Conference, 981-991 (2016). 
 LIBXSMM: Accelerating Small Matrix Multiplications
 by Runtime Code Generation.
 https://doi.org/10.1109/SC.2016.83

 Borstnik, U; VandeVondele, J; Weber, V; Hutter, J. 
 PARALLEL COMPUTING, 40 (5-6), 47-58 (2014). 
 Sparse matrix multiplication: The distributed block-compressed sparse
 row library.
 https://doi.org/10.1016/j.parco.2014.03.012

 Hutter, J; Iannuzzi, M; Schiffmann, F; VandeVondele, J. 
 WIREs Comput Mol Sci., 4 (1), 15-25 (2014). 
 CP2K: atomistic simulations of condensed matter systems.
 https://doi.org/10.1002/wcms.1159

 Marek, A; Blum, V; Johanni, R; Havu, V; Lang, B; Auckenthaler, T;
 Heinecke, A; Bungartz, H; Lederer, H. 
 Journal of Physics: Condensed Matter, 26 (21), (2014). 
 The ELPA library: scalable parallel eigenvalue solutions for
 electronic structure
 theory and computational science.
 https://doi.org/10.1088/0953-8984/26/21/213201

 Grimme, S; Ehrlich, S; Goerigk, L. 
 JOURNAL OF COMPUTATIONAL CHEMISTRY, 32, 1456 (2011). 
 Effect of the damping function in dispersion corrected density functional theory.
 https://doi.org/10.1002/jcc.21759

 Grimme, S; Antony, J; Ehrlich, S; Krieg, H. 
 JOURNAL OF CHEMICAL PHYSICS, 132 (15), 154104 (2010). 
 A consistent and accurate ab initio parametrization of density
 functional dispersion correction (DFT-D) for the 94 elements H-Pu.
 https://doi.org/10.1063/1.3382344

 VandeVondele, J; Hutter, J. 
 JOURNAL OF CHEMICAL PHYSICS, 127 (11), 114105 (2007). 
 Gaussian basis sets for accurate calculations on molecular systems in
 gas and condensed phases.
 https://doi.org/10.1063/1.2770708

 Krack, M. 
 THEORETICAL CHEMISTRY ACCOUNTS, 114 (1-3), 145-152 (2005). 
 Pseudopotentials for H to Kr optimized for gradient-corrected
 exchange-correlation functionals.
 https://doi.org/10.1007/s00214-005-0655-y

 VandeVondele, J; Krack, M; Mohamed, F; Parrinello, M; Chassaing, T;
 Hutter, J. COMPUTER PHYSICS COMMUNICATIONS, 167 (2), 103-128 (2005). 
 QUICKSTEP: Fast and accurate density functional calculations using a
 mixed Gaussian and plane waves approach.
 https://doi.org/10.1016/j.cpc.2004.12.014

 Frigo, M; Johnson, SG. 
 PROCEEDINGS OF THE IEEE, 93 (2), 216-231 (2005). 
 The design and implementation of FFTW3.
 https://doi.org/10.1109/JPROC.2004.840301

 Hartwigsen, C; Goedecker, S; Hutter, J. 
 PHYSICAL REVIEW B, 58 (7), 3641-3662 (1998). 
 Relativistic separable dual-space Gaussian pseudopotentials from H to Rn.
 https://doi.org/10.1103/PhysRevB.58.3641

 Lippert, G; Hutter, J; Parrinello, M. 
 MOLECULAR PHYSICS, 92 (3), 477-487 (1997). 
 A hybrid Gaussian and plane wave density functional scheme.
 https://doi.org/10.1080/002689797170220

 Perdew, JP; Burke, K; Ernzerhof, M. 
 PHYSICAL REVIEW LETTERS, 77 (18), 3865-3868 (1996). 
 Generalized gradient approximation made simple.
 https://doi.org/10.1103/PhysRevLett.77.3865

 Goedecker, S; Teter, M; Hutter, J. 
 PHYSICAL REVIEW B, 54 (3), 1703-1710 (1996). 
 Separable dual-space Gaussian pseudopotentials.
 https://doi.org/10.1103/PhysRevB.54.1703


 -------------------------------------------------------------------------------
 -                                                                             -
 -                                T I M I N G                                  -
 -                                                                             -
 -------------------------------------------------------------------------------
 SUBROUTINE                       CALLS  ASD         SELF TIME        TOTAL TIME
                                MAXIMUM       AVERAGE  MAXIMUM  AVERAGE  MAXIMUM
 CP2K                                 1  1.0    0.028    0.038  969.652  969.654
 qs_forces                            1  2.0    0.002    0.003  969.238  969.240
 qs_energies                          1  3.0    0.000    0.000  956.707  956.716
 scf_env_do_scf                       1  4.0    0.000    0.000  948.489  948.727
 scf_env_do_scf_inner_loop           81  5.0    0.004    0.014  948.489  948.727
 qs_scf_new_mos                      81  6.0    0.005    0.011  385.994  386.745
 eigensolver                         81  7.0    0.007    0.011  358.829  359.190
 rebuild_ks_matrix                   82  7.0    0.000    0.000  299.842  299.893
 qs_ks_build_kohn_sham_matrix        82  8.0    0.012    0.014  299.842  299.893
 qs_ks_update_qs_env                 81  6.0    0.001    0.001  291.851  291.900
 qs_rho_update_rho_low               82  6.0    0.001    0.001  256.002  256.037
 calculate_rho_elec                  82  7.0    0.192    0.226  256.001  256.036
 sum_up_and_integrate                82  9.0    0.346    0.443  251.760  251.818
 integrate_v_rspace                  82 10.0    0.003    0.004  251.414  251.496
 grid_collocate_task_list            82  8.0  225.052  231.246  225.052  231.246
 grid_integrate_task_list            82 11.0  219.242  225.394  219.242  225.394
 cp_fm_diag_elpa                     81  8.0    0.001    0.001  210.675  211.206
 cp_fm_diag_elpa_base                81  9.0  207.451  208.148  210.343  210.402
 cp_fm_triangular_multiply          243  8.0  145.158  147.038  145.158  147.038
 pw_transfer                       1640 10.9    0.116    0.154   45.229   46.143
 fft_wrap_pw1pw2                   1476 12.0    0.014    0.018   44.715   45.613
 rs_pw_transfer                     660 10.5    0.007    0.009   39.507   44.217
 fft_wrap_pw1pw2_200                984 13.3    4.052    4.386   43.103   43.970
 qs_vxc_create                       82  9.0    0.003    0.003   42.374   42.618
 xc_vxc_pw_create                    82 10.0    0.752    0.790   42.372   42.615
 fft3d_ps                          1476 14.0   16.365   18.569   32.989   34.190
 density_rs2pw                       82  8.0    0.005    0.006   28.199   32.834
 xc_pw_derive                       492 12.0    0.008    0.010   26.959   28.284
 xc_rho_set_and_dset_create          82 11.0    0.400    0.434   22.804   24.318
 potential_pw2rs                     82 11.0    0.031    0.037   23.573   23.650
 mp_waitany                       23904 12.4   16.807   21.848   16.807   21.848
 cp_dbcsr_plus_fm_fm_t_native        82  8.0    0.004    0.008   19.677   20.458
 calculate_dm_sparse                 81  7.0    0.025    0.030   19.739   20.454
 rs_pw_transfer_RS2PW_200            84 10.0    5.361    5.789   15.693   20.396
 -------------------------------------------------------------------------------

 The number of warnings for this run is : 1
 
 -------------------------------------------------------------------------------
  **** **** ******  **  PROGRAM ENDED AT                 2023-11-26 16:23:17.618
 ***** ** ***  *** **   PROGRAM RAN ON                                     cu054
 **    ****   ******    PROGRAM RAN BY                                     jxzhu
 ***** **    ** ** **   PROGRAM PROCESS ID                                 31210
  **** **  *******  **  PROGRAM STOPPED IN /public/home/jxzhu/tmp_calc/af2075565
                                           805657d94fa4669dad6f4b174b0a4fb/calc/
                                           001100.000/pbc
