 DBCSR| CPU Multiplication driver                                           XSMM
 DBCSR| Multrec recursion limit                                              512
 DBCSR| Multiplication stack size                                           1000
 DBCSR| Maximum elements for images                                    UNLIMITED
 DBCSR| Multiplicative factor virtual images                                   1
 DBCSR| Use multiplication densification                                       T
 DBCSR| Multiplication size stacks                                             3
 DBCSR| Use memory pool for CPU allocation                                     F
 DBCSR| Number of 3D layers                                               SINGLE
 DBCSR| Use MPI memory allocation                                              F
 DBCSR| Use RMA algorithm                                                      F
 DBCSR| Use Communication thread                                               T
 DBCSR| Communication thread load                                             87
 DBCSR| MPI: My node id                                                        0
 DBCSR| MPI: Number of nodes                                                 128
 DBCSR| OMP: Current number of threads                                         1
 DBCSR| OMP: Max number of threads                                             1
 DBCSR| Split modifier for TAS multiplication algorithm                  1.0E+00


  **** **** ******  **  PROGRAM STARTED AT               2023-12-02 10:51:56.374
 ***** ** ***  *** **   PROGRAM STARTED ON                                 cu001
 **    ****   ******    PROGRAM STARTED BY                                 jxzhu
 ***** **    ** ** **   PROGRAM PROCESS ID                                 62395
  **** **  *******  **  PROGRAM STARTED IN /public/home/jxzhu/tmp_calc/188f0e3df
                                           06040b711fa3a6135f9747372f5fd4e/calc/
                                           001300.000/search_hi.000000

 CP2K| version string:                                       CP2K version 2022.1
 CP2K| source code revision number:                                  git:2caeb6f
 CP2K| cp2kflags: omp libint fftw3 libxc elpa parallel mpi3 scalapack cosma xsmm
 CP2K|             plumed2 spglib mkl sirius libvori libbqb
 CP2K| is freely available from                            https://www.cp2k.org/
 CP2K| Program compiled at                           Mon Jul 3 17:37:06 CST 2023
 CP2K| Program compiled on                                                 mu003
 CP2K| Program compiled for                                                local
 CP2K| Data directory path                             /public/home/jxzhu/basis/
 CP2K| Input file name                                                 input.inp
 
 GLOBAL| Force Environment number                                              1
 GLOBAL| Basis set file name                                        BASIS_MOLOPT
 GLOBAL| Potential file name                                      GTH_POTENTIALS
 GLOBAL| MM Potential file name                                     MM_POTENTIAL
 GLOBAL| Coordinate file name                                          coord.xyz
 GLOBAL| Method name                                                        CP2K
 GLOBAL| Project name                                                       cp2k
 GLOBAL| Run type                                                   ENERGY_FORCE
 GLOBAL| FFT library                                                       FFTW3
 GLOBAL| Diagonalization library                                            ELPA
 GLOBAL| Minimum number of eigenvectors for ELPA usage                        16
 GLOBAL| Orthonormality check for eigenvectors                          DISABLED
 GLOBAL| Matrix multiplication library                                     COSMA
 GLOBAL| All-to-all communication in single precision                          F
 GLOBAL| FFTs using library dependent lengths                                  T
 GLOBAL| Grid backend                                                       AUTO
 GLOBAL| Global print level                                               MEDIUM
 GLOBAL| MPI I/O enabled                                                       T
 GLOBAL| Total number of message passing processes                           128
 GLOBAL| Number of threads for this process                                    1
 GLOBAL| This output is from process                                           0
 GLOBAL| Stack size for threads created by OpenMP (OMP_STACKSIZE)        default
 GLOBAL| CPU model name                 Intel(R) Xeon(R) Gold 6338 CPU @ 2.00GHz
 GLOBAL| CPUID                                                              1003

 MEMORY| system memory details [Kb]
 MEMORY|                        rank 0           min           max       average
 MEMORY| MemTotal            263619172     263619172     263619172     263619172
 MEMORY| MemFree             219099852     216137604     219101092     217618926
 MEMORY| Buffers                    20            20            36            28
 MEMORY| Cached                1596480        786296       1596480       1191388
 MEMORY| Slab                  1379868       1379868       1426708       1403288
 MEMORY| SReclaimable           244256        230276        244256        237266
 MEMORY| MemLikelyFree       220940608     217154212     220941848     219047608


 *** Fundamental physical constants (SI units) ***

 *** Literature: B. J. Mohr and B. N. Taylor,
 ***             CODATA recommended values of the fundamental physical
 ***             constants: 2006, Web Version 5.1
 ***             http://physics.nist.gov/constants

 Speed of light in vacuum [m/s]                             2.99792458000000E+08
 Magnetic constant or permeability of vacuum [N/A**2]       1.25663706143592E-06
 Electric constant or permittivity of vacuum [F/m]          8.85418781762039E-12
 Planck constant (h) [J*s]                                  6.62606896000000E-34
 Planck constant (h-bar) [J*s]                              1.05457162825177E-34
 Elementary charge [C]                                      1.60217648700000E-19
 Electron mass [kg]                                         9.10938215000000E-31
 Electron g factor [ ]                                     -2.00231930436220E+00
 Proton mass [kg]                                           1.67262163700000E-27
 Fine-structure constant                                    7.29735253760000E-03
 Rydberg constant [1/m]                                     1.09737315685270E+07
 Avogadro constant [1/mol]                                  6.02214179000000E+23
 Boltzmann constant [J/K]                                   1.38065040000000E-23
 Atomic mass unit [kg]                                      1.66053878200000E-27
 Bohr radius [m]                                            5.29177208590000E-11

 *** Conversion factors ***

 [u] -> [a.u.]                                              1.82288848426455E+03
 [Angstrom] -> [Bohr] = [a.u.]                              1.88972613288564E+00
 [a.u.] = [Bohr] -> [Angstrom]                              5.29177208590000E-01
 [a.u.] -> [s]                                              2.41888432650478E-17
 [a.u.] -> [fs]                                             2.41888432650478E-02
 [a.u.] -> [J]                                              4.35974393937059E-18
 [a.u.] -> [N]                                              8.23872205491840E-08
 [a.u.] -> [K]                                              3.15774647902944E+05
 [a.u.] -> [kJ/mol]                                         2.62549961709828E+03
 [a.u.] -> [kcal/mol]                                       6.27509468713739E+02
 [a.u.] -> [Pa]                                             2.94210107994716E+13
 [a.u.] -> [bar]                                            2.94210107994716E+08
 [a.u.] -> [atm]                                            2.90362800883016E+08
 [a.u.] -> [eV]                                             2.72113838565563E+01
 [a.u.] -> [Hz]                                             6.57968392072181E+15
 [a.u.] -> [1/cm] (wave numbers)                            2.19474631370540E+05
 [a.u./Bohr**2] -> [1/cm]                                   5.14048714338585E+03
 

 CELL_TOP| Volume [angstrom^3]:                                     17614.982639
 CELL_TOP| Vector a [angstrom    16.869     0.000     0.000   |a| =    16.869000
 CELL_TOP| Vector b [angstrom    -8.434    14.609     0.000   |b| =    16.869015
 CELL_TOP| Vector c [angstrom     0.000     0.000    71.478   |c| =    71.478000
 CELL_TOP| Angle (b,c), alpha [degree]:                                90.000000
 CELL_TOP| Angle (a,c), beta  [degree]:                                90.000000
 CELL_TOP| Angle (a,b), gamma [degree]:                               119.999970
 CELL_TOP| Numerically orthorhombic:                                          NO
 
 GENERATE|  Preliminary Number of Bonds generated:                             0
 GENERATE|  Achieved consistency in connectivity generation.

 CELL| Volume [angstrom^3]:                                         17614.982639
 CELL| Vector a [angstrom]:      16.869     0.000     0.000   |a| =    16.869000
 CELL| Vector b [angstrom]:      -8.434    14.609     0.000   |b| =    16.869015
 CELL| Vector c [angstrom]:       0.000     0.000    71.478   |c| =    71.478000
 CELL| Angle (b,c), alpha [degree]:                                    90.000000
 CELL| Angle (a,c), beta  [degree]:                                    90.000000
 CELL| Angle (a,b), gamma [degree]:                                   119.999970
 CELL| Numerically orthorhombic:                                              NO

 CELL_REF| Volume [angstrom^3]:                                     17614.982639
 CELL_REF| Vector a [angstrom    16.869     0.000     0.000   |a| =    16.869000
 CELL_REF| Vector b [angstrom    -8.434    14.609     0.000   |b| =    16.869015
 CELL_REF| Vector c [angstrom     0.000     0.000    71.478   |c| =    71.478000
 CELL_REF| Angle (b,c), alpha [degree]:                                90.000000
 CELL_REF| Angle (a,c), beta  [degree]:                                90.000000
 CELL_REF| Angle (a,b), gamma [degree]:                               119.999970
 CELL_REF| Numerically orthorhombic:                                          NO

 *******************************************************************************
 *******************************************************************************
 **                                                                           **
 **     #####                         ##              ##                      **
 **    ##   ##            ##          ##              ##                      **
 **   ##     ##                       ##            ######                    **
 **   ##     ##  ##   ##  ##   #####  ##  ##   ####   ##    #####    #####    **
 **   ##     ##  ##   ##  ##  ##      ## ##   ##      ##   ##   ##  ##   ##   **
 **   ##  ## ##  ##   ##  ##  ##      ####     ###    ##   ######   ######    **
 **    ##  ###   ##   ##  ##  ##      ## ##      ##   ##   ##       ##        **
 **     #######   #####   ##   #####  ##  ##  ####    ##    #####   ##        **
 **           ##                                                    ##        **
 **                                                                           **
 **                                                ... make the atoms dance   **
 **                                                                           **
 **            Copyright (C) by CP2K developers group (2000-2022)             **
 **                      J. Chem. Phys. 152, 194103 (2020)                    **
 **                                                                           **
 *******************************************************************************

 DFT| Spin restricted Kohn-Sham (RKS) calculation                            RKS
 DFT| Multiplicity                                                             1
 DFT| Number of spin states                                                    1
 DFT| Charge                                                                   0
 DFT| Self-interaction correction (SIC)                                       NO
 DFT| Cutoffs: density                                              1.000000E-10
 DFT|          gradient                                             1.000000E-10
 DFT|          tau                                                  1.000000E-10
 DFT|          cutoff_smoothing_range                               0.000000E+00
 DFT| XC density smoothing                                                  NONE
 DFT| XC derivatives                                                          PW

 FUNCTIONAL| PBE:
 FUNCTIONAL| J.P.Perdew, K.Burke, M.Ernzerhof, Phys. Rev. Letter, vol. 77, n 18,
 FUNCTIONAL|  pp. 3865-3868, (1996){spin unpolarized}                           

 vdW POTENTIAL|                                                   Pair Potential
 vdW POTENTIAL|          DFT-D3 (Version 3.1)
 vdW POTENTIAL|          Potential Form: S. Grimme et al, JCP 132: 154104 (2010)
 vdW POTENTIAL|          Zero Damping
 vdW POTENTIAL|          Cutoff Radius [Bohr]:                             20.00
 vdW POTENTIAL|          s6 Scaling Factor:                               1.0000
 vdW POTENTIAL|          sr6 Scaling Factor:                              1.2170
 vdW POTENTIAL|          s8 Scaling Factor:                               0.7220
 vdW POTENTIAL|          Cutoff for CN calculation:                   0.1000E-05

 QS| Method:                                                                 GPW
 QS| Density plane wave grid type                        NON-SPHERICAL FULLSPACE
 QS| Number of grid levels:                                                    4
 QS| Density cutoff [a.u.]:                                                200.0
 QS| Multi grid cutoff [a.u.]: 1) grid level                               200.0
 QS|                           2) grid level                                66.7
 QS|                           3) grid level                                22.2
 QS|                           4) grid level                                 7.4
 QS| Grid level progression factor:                                          3.0
 QS| Relative density cutoff [a.u.]:                                        20.0
 QS| Interaction thresholds: eps_pgf_orb:                                3.2E-07
 QS|                         eps_filter_matrix:                          0.0E+00
 QS|                         eps_core_charge:                            1.0E-15
 QS|                         eps_rho_gspace:                             1.0E-13
 QS|                         eps_rho_rspace:                             1.0E-13
 QS|                         eps_gvg_rspace:                             3.2E-07
 QS|                         eps_ppl:                                    1.0E-02
 QS|                         eps_ppnl:                                   3.2E-09


 ATOMIC KIND INFORMATION

  1. Atomic kind: O                                     Number of atoms:     101

     Orbital Basis Set                                        DZVP-MOLOPT-SR-GTH

       Number of orbital shell sets:                                           1
       Number of orbital shells:                                               5
       Number of primitive Cartesian functions:                                5
       Number of Cartesian basis functions:                                   14
       Number of spherical basis functions:                                   13
       Norm type:                                                              2

       Normalised Cartesian orbitals:

                        Set   Shell   Orbital            Exponent    Coefficient

                          1       1    2s               10.389228       0.396646
                                                         3.849621       0.208811
                                                         1.388401      -0.301641
                                                         0.496955      -0.274061
                                                         0.162492      -0.033677

                          1       2    3s               10.389228       0.303673
                                                         3.849621       0.240943
                                                         1.388401      -0.313066
                                                         0.496955      -0.043055
                                                         0.162492       0.213991

                          1       3    3px              10.389228      -1.530415
                                                         3.849621      -1.371928
                                                         1.388401      -0.761951
                                                         0.496955      -0.253695
                                                         0.162492      -0.035541
                          1       3    3py              10.389228      -1.530415
                                                         3.849621      -1.371928
                                                         1.388401      -0.761951
                                                         0.496955      -0.253695
                                                         0.162492      -0.035541
                          1       3    3pz              10.389228      -1.530415
                                                         3.849621      -1.371928
                                                         1.388401      -0.761951
                                                         0.496955      -0.253695
                                                         0.162492      -0.035541

                          1       4    4px              10.389228      -0.565392
                                                         3.849621      -0.038231
                                                         1.388401      -0.382373
                                                         0.496955       0.179070
                                                         0.162492       0.122714
                          1       4    4py              10.389228      -0.565392
                                                         3.849621      -0.038231
                                                         1.388401      -0.382373
                                                         0.496955       0.179070
                                                         0.162492       0.122714
                          1       4    4pz              10.389228      -0.565392
                                                         3.849621      -0.038231
                                                         1.388401      -0.382373
                                                         0.496955       0.179070
                                                         0.162492       0.122714

                          1       5    4dx2             10.389228       1.867377
                                                         3.849621       0.670994
                                                         1.388401       1.353441
                                                         0.496955       0.273538
                                                         0.162492       0.006620
                          1       5    4dxy             10.389228       3.234392
                                                         3.849621       1.162195
                                                         1.388401       2.344229
                                                         0.496955       0.473781
                                                         0.162492       0.011466
                          1       5    4dxz             10.389228       3.234392
                                                         3.849621       1.162195
                                                         1.388401       2.344229
                                                         0.496955       0.473781
                                                         0.162492       0.011466
                          1       5    4dy2             10.389228       1.867377
                                                         3.849621       0.670994
                                                         1.388401       1.353441
                                                         0.496955       0.273538
                                                         0.162492       0.006620
                          1       5    4dyz             10.389228       3.234392
                                                         3.849621       1.162195
                                                         1.388401       2.344229
                                                         0.496955       0.473781
                                                         0.162492       0.011466
                          1       5    4dz2             10.389228       1.867377
                                                         3.849621       0.670994
                                                         1.388401       1.353441
                                                         0.496955       0.273538
                                                         0.162492       0.006620

       Atomic covalent radius [Angstrom]:                                  0.730

       Atomic van der Waals radius [Angstrom]:                             1.520

     GTH Potential information for                                    GTH-PBE-q6

       Description:                       Goedecker-Teter-Hutter pseudopotential
                                           Goedecker et al., PRB 54, 1703 (1996)
                                          Hartwigsen et al., PRB 58, 3641 (1998)
                                                      Krack, TCA 114, 145 (2005)

       Gaussian exponent of the core charge distribution:               8.360253
       Electronic configuration (s p d ...):                               2   4

       Parameters of the local part of the GTH pseudopotential:

                          rloc        C1          C2          C3          C4
                        0.244554  -16.667215    2.487311

       Parameters of the non-local part of the GTH pseudopotential:

                   l      r(l)      h(i,j,l)

                   0    0.220956   18.337458
                   1    0.211332

  2. Atomic kind: H                                     Number of atoms:     202

     Orbital Basis Set                                        DZVP-MOLOPT-SR-GTH

       Number of orbital shell sets:                                           1
       Number of orbital shells:                                               3
       Number of primitive Cartesian functions:                                5
       Number of Cartesian basis functions:                                    5
       Number of spherical basis functions:                                    5
       Norm type:                                                              2

       Normalised Cartesian orbitals:

                        Set   Shell   Orbital            Exponent    Coefficient

                          1       1    2s               10.068468      -0.133023
                                                         2.680223      -0.177618
                                                         0.791502      -0.258419
                                                         0.239116      -0.107525
                                                         0.082193      -0.014019

                          1       2    3s               10.068468       0.344673
                                                         2.680223       1.819821
                                                         0.791502      -0.999069
                                                         0.239116       0.017430
                                                         0.082193       0.082660

                          1       3    3px              10.068468       0.155326
                                                         2.680223       0.367157
                                                         0.791502       0.311480
                                                         0.239116       0.080105
                                                         0.082193       0.033440
                          1       3    3py              10.068468       0.155326
                                                         2.680223       0.367157
                                                         0.791502       0.311480
                                                         0.239116       0.080105
                                                         0.082193       0.033440
                          1       3    3pz              10.068468       0.155326
                                                         2.680223       0.367157
                                                         0.791502       0.311480
                                                         0.239116       0.080105
                                                         0.082193       0.033440

       Atomic covalent radius [Angstrom]:                                  0.320

       Atomic van der Waals radius [Angstrom]:                             1.090

     GTH Potential information for                                    GTH-PBE-q1

       Description:                       Goedecker-Teter-Hutter pseudopotential
                                           Goedecker et al., PRB 54, 1703 (1996)
                                          Hartwigsen et al., PRB 58, 3641 (1998)
                                                      Krack, TCA 114, 145 (2005)

       Gaussian exponent of the core charge distribution:              12.500000
       Electronic configuration (s p d ...):                                   1

       Parameters of the local part of the GTH pseudopotential:

                          rloc        C1          C2          C3          C4
                        0.200000   -4.178900    0.724463

  3. Atomic kind: Pt                                    Number of atoms:     216

     Orbital Basis Set                      DZVP-A5-Q10-323-MOL-T1-DERIVED_SET-1

       Number of orbital shell sets:                                           1
       Number of orbital shells:                                               6
       Number of primitive Cartesian functions:                                5
       Number of Cartesian basis functions:                                   23
       Number of spherical basis functions:                                   20
       Norm type:                                                              2

       Normalised Cartesian orbitals:

                        Set   Shell   Orbital            Exponent    Coefficient

                          1       1    2s                2.521825       0.177473
                                                         1.453920      -0.063399
                                                         0.614053      -0.407089
                                                         0.232656       0.262254
                                                         0.074788       0.047371

                          1       2    3s                2.521825      -0.049056
                                                         1.453920       0.044904
                                                         0.614053      -0.009756
                                                         0.232656      -0.144709
                                                         0.074788       0.144085

                          1       3    3px               2.521825      -0.317572
                                                         1.453920       0.534826
                                                         0.614053      -0.489458
                                                         0.232656       0.245631
                                                         0.074788       0.018221
                          1       3    3py               2.521825      -0.317572
                                                         1.453920       0.534826
                                                         0.614053      -0.489458
                                                         0.232656       0.245631
                                                         0.074788       0.018221
                          1       3    3pz               2.521825      -0.317572
                                                         1.453920       0.534826
                                                         0.614053      -0.489458
                                                         0.232656       0.245631
                                                         0.074788       0.018221

                          1       4    4dx2              2.521825       3.008522
                                                         1.453920      -1.224251
                                                         0.614053       0.225691
                                                         0.232656       0.125144
                                                         0.074788      -0.015348
                          1       4    4dxy              2.521825       5.210912
                                                         1.453920      -2.120465
                                                         0.614053       0.390909
                                                         0.232656       0.216756
                                                         0.074788      -0.026584
                          1       4    4dxz              2.521825       5.210912
                                                         1.453920      -2.120465
                                                         0.614053       0.390909
                                                         0.232656       0.216756
                                                         0.074788      -0.026584
                          1       4    4dy2              2.521825       3.008522
                                                         1.453920      -1.224251
                                                         0.614053       0.225691
                                                         0.232656       0.125144
                                                         0.074788      -0.015348
                          1       4    4dyz              2.521825       5.210912
                                                         1.453920      -2.120465
                                                         0.614053       0.390909
                                                         0.232656       0.216756
                                                         0.074788      -0.026584
                          1       4    4dz2              2.521825       3.008522
                                                         1.453920      -1.224251
                                                         0.614053       0.225691
                                                         0.232656       0.125144
                                                         0.074788      -0.015348

                          1       5    5dx2              2.521825       0.698026
                                                         1.453920      -1.511486
                                                         0.614053      -0.335394
                                                         0.232656      -0.025564
                                                         0.074788      -0.002699
                          1       5    5dxy              2.521825       1.209017
                                                         1.453920      -2.617970
                                                         0.614053      -0.580920
                                                         0.232656      -0.044277
                                                         0.074788      -0.004674
                          1       5    5dxz              2.521825       1.209017
                                                         1.453920      -2.617970
                                                         0.614053      -0.580920
                                                         0.232656      -0.044277
                                                         0.074788      -0.004674
                          1       5    5dy2              2.521825       0.698026
                                                         1.453920      -1.511486
                                                         0.614053      -0.335394
                                                         0.232656      -0.025564
                                                         0.074788      -0.002699
                          1       5    5dyz              2.521825       1.209017
                                                         1.453920      -2.617970
                                                         0.614053      -0.580920
                                                         0.232656      -0.044277
                                                         0.074788      -0.004674
                          1       5    5dz2              2.521825       0.698026
                                                         1.453920      -1.511486
                                                         0.614053      -0.335394
                                                         0.232656      -0.025564
                                                         0.074788      -0.002699

                          1       6    6dx2              2.521825       0.831079
                                                         1.453920      -0.709226
                                                         0.614053      -0.137351
                                                         0.232656       0.068642
                                                         0.074788       0.011745
                          1       6    6dxy              2.521825       1.439472
                                                         1.453920      -1.228415
                                                         0.614053      -0.237899
                                                         0.232656       0.118891
                                                         0.074788       0.020343
                          1       6    6dxz              2.521825       1.439472
                                                         1.453920      -1.228415
                                                         0.614053      -0.237899
                                                         0.232656       0.118891
                                                         0.074788       0.020343
                          1       6    6dy2              2.521825       0.831079
                                                         1.453920      -0.709226
                                                         0.614053      -0.137351
                                                         0.232656       0.068642
                                                         0.074788       0.011745
                          1       6    6dyz              2.521825       1.439472
                                                         1.453920      -1.228415
                                                         0.614053      -0.237899
                                                         0.232656       0.118891
                                                         0.074788       0.020343
                          1       6    6dz2              2.521825       0.831079
                                                         1.453920      -0.709226
                                                         0.614053      -0.137351
                                                         0.232656       0.068642
                                                         0.074788       0.011745

       Atomic covalent radius [Angstrom]:                                  1.300

       Atomic van der Waals radius [Angstrom]:                             1.750

     GTH Potential information for                                   GTH-PBE-q10

       Description:                       Goedecker-Teter-Hutter pseudopotential
                                           Goedecker et al., PRB 54, 1703 (1996)
                                          Hartwigsen et al., PRB 58, 3641 (1998)
                                                      Krack, TCA 114, 145 (2005)

       Gaussian exponent of the core charge distribution:               1.317676
       Electronic configuration (s p d ...):                           1   0   9

       Parameters of the local part of the GTH pseudopotential:

                          rloc        C1          C2          C3          C4
                        0.616000   11.313635

       Parameters of the non-local part of the GTH pseudopotential:

                   l      r(l)      h(i,j,l)

                   0    0.550904    4.733491   -1.784594
                                   -1.784594    2.303901
                   1    0.674138    2.534798   -1.778066
                                   -1.778066    2.103836
                   2    0.457392   -7.264011    2.558665
                                    2.558665   -2.901253


 MOLECULE KIND INFORMATION


 All atoms are their own molecule, skipping detailed information


 TOTAL NUMBERS AND MAXIMUM NUMBERS

  Total number of            - Atomic kinds:                                   3
                             - Atoms:                                        519
                             - Shell sets:                                   519
                             - Shells:                                      2407
                             - Primitive Cartesian functions:               2595
                             - Cartesian basis functions:                   7392
                             - Spherical basis functions:                   6643

  Maximum angular momentum of- Orbital basis functions:                        2
                             - Local part of the GTH pseudopotential:          2
                             - Non-local part of the GTH pseudopotential:      4


 MODULE QUICKSTEP:  ATOMIC COORDINATES IN angstrom

 Atom  Kind  Element       X           Y           Z          Z(eff)       Mass
    1   1 O    8     -15.550001  -21.290001   32.328000       6.0000     15.9994
    2   2 H    1     -14.670001  -21.160002   32.837999       1.0000      1.0079
    3   2 H    1     -15.580001  -22.260000   32.418001       1.0000      1.0079
    4   1 O    8       6.380000    4.410000   38.037999       6.0000     15.9994
    5   2 H    1       5.900001    5.110001   37.527999       1.0000      1.0079
    6   2 H    1       7.320001    4.500000   37.667999       1.0000      1.0079
    7   1 O    8     -10.010000  -16.170002   32.857999       6.0000     15.9994
    8   2 H    1      -9.570000  -16.370001   31.958000       1.0000      1.0079
    9   2 H    1     -11.010000  -16.280001   32.778001       1.0000      1.0079
   10   1 O    8       5.820000   -5.300000   31.837999       6.0000     15.9994
   11   2 H    1       6.480000   -5.400000   32.597999       1.0000      1.0079
   12   2 H    1       4.920000   -5.290000   32.247999       1.0000      1.0079
   13   1 O    8      -4.250000    8.600000   35.718000       6.0000     15.9994
   14   2 H    1      -3.410000    9.140000   35.708000       1.0000      1.0079
   15   2 H    1      -4.730000    8.880001   34.857999       1.0000      1.0079
   16   1 O    8       2.730000  -15.150002   29.988000       6.0000     15.9994
   17   2 H    1       3.460000  -14.550000   30.087999       1.0000      1.0079
   18   2 H    1       2.560000  -15.510001   29.107999       1.0000      1.0079
   19   1 O    8      20.670002   -0.930000   35.917999       6.0000     15.9994
   20   2 H    1      20.200001   -0.010000   35.927999       1.0000      1.0079
   21   2 H    1      20.120001   -1.540000   36.417999       1.0000      1.0079
   22   1 O    8     -20.980000   29.710003   35.987998       6.0000     15.9994
   23   2 H    1     -20.740002   30.660002   35.987998       1.0000      1.0079
   24   2 H    1      -3.220000   29.230001   35.708000       1.0000      1.0079
   25   1 O    8     -12.520000   20.570002   36.378000       6.0000     15.9994
   26   2 H    1     -12.370001   20.640001   37.357999       1.0000      1.0079
   27   2 H    1     -12.580000   21.540001   36.087999       1.0000      1.0079
   28   1 O    8      -4.460000    2.570000   39.058000       6.0000     15.9994
   29   2 H    1      -3.510000    2.690000   38.837999       1.0000      1.0079
   30   2 H    1      -4.660000    1.820000   38.468000       1.0000      1.0079
   31   1 O    8      -8.010000    9.930000   30.007997       6.0000     15.9994
   32   2 H    1      -8.930000    9.590000   29.968000       1.0000      1.0079
   33   2 H    1      -7.660000    9.520000   29.197999       1.0000      1.0079
   34   1 O    8      -1.520000  -13.220000   39.688001       6.0000     15.9994
   35   2 H    1      -0.770000  -12.700001   40.197999       1.0000      1.0079
   36   2 H    1      -1.120000  -14.060000   39.537999       1.0000      1.0079
   37   1 O    8      23.660002   10.850000   39.068000       6.0000     15.9994
   38   2 H    1      24.360001   10.130000   39.138000       1.0000      1.0079
   39   2 H    1       7.260000   11.630001   39.437999       1.0000      1.0079
   40   1 O    8     -10.460000   11.000000   36.347999       6.0000     15.9994
   41   2 H    1     -10.390000   11.940001   36.027997       1.0000      1.0079
   42   2 H    1     -10.240001   11.050000   37.318000       1.0000      1.0079
   43   1 O    8     -24.980001   19.530001   32.918001       6.0000     15.9994
   44   2 H    1     -24.440001   18.800001   32.578000       1.0000      1.0079
   45   2 H    1     -25.830002   19.440001   32.427999       1.0000      1.0079
   46   1 O    8      17.100000   12.190001   33.777999       6.0000     15.9994
   47   2 H    1      17.540001   12.720001   33.097999       1.0000      1.0079
   48   2 H    1      17.620001   12.320002   34.628000       1.0000      1.0079
   49   1 O    8     -13.950001   18.360001   32.667999       6.0000     15.9994
   50   2 H    1     -23.040001   32.240002   32.778001       1.0000      1.0079
   51   2 H    1     -13.410001   18.210001   33.498000       1.0000      1.0079
   52   1 O    8      -2.400000    6.250000   33.187999       6.0000     15.9994
   53   2 H    1      -3.060000    6.170001   32.427999       1.0000      1.0079
   54   2 H    1      -3.080000    6.190000   33.898000       1.0000      1.0079
   55   1 O    8     -26.880001    5.620000   32.447999       6.0000     15.9994
   56   2 H    1     -27.590000    5.100000   32.047998       1.0000      1.0079
   57   2 H    1     -27.050001    6.620001   32.468000       1.0000      1.0079
   58   1 O    8      -1.570000    8.940001   35.998000       6.0000     15.9994
   59   2 H    1      -1.330000    8.140000   36.588001       1.0000      1.0079
   60   2 H    1      -1.140000    8.760000   35.117999       1.0000      1.0079
   61   1 O    8      -3.200000    5.810000   38.878000       6.0000     15.9994
   62   2 H    1      -3.590000    6.570000   39.407998       1.0000      1.0079
   63   2 H    1      -2.810000    5.280000   39.648000       1.0000      1.0079
   64   1 O    8     -32.090000   20.820000   35.687999       6.0000     15.9994
   65   2 H    1     -32.000000   20.610001   34.728000       1.0000      1.0079
   66   2 H    1     -31.240002   20.840000   36.168001       1.0000      1.0079
   67   1 O    8      -6.690001  -13.450001   38.347999       6.0000     15.9994
   68   2 H    1      -7.270000  -12.840000   38.867999       1.0000      1.0079
   69   2 H    1      -6.170001  -14.070001   38.947999       1.0000      1.0079
   70   1 O    8      39.590000   -7.100000   29.887998       6.0000     15.9994
   71   2 H    1      39.950001   -6.640000   29.067998       1.0000      1.0079
   72   2 H    1      39.780003   -6.500000   30.648000       1.0000      1.0079
   73   1 O    8      -8.230000   15.000001   36.117999       6.0000     15.9994
   74   2 H    1      -8.650001   15.860001   35.827998       1.0000      1.0079
   75   2 H    1      -7.960001   15.140000   37.048002       1.0000      1.0079
   76   1 O    8      15.630001    2.710000   29.837999       6.0000     15.9994
   77   2 H    1      14.820002    2.210000   29.927999       1.0000      1.0079
   78   2 H    1      15.900001    2.590000   28.827997       1.0000      1.0079
   79   1 O    8       7.960001    9.830000   34.267999       6.0000     15.9994
   80   2 H    1       8.800000   10.330000   34.068000       1.0000      1.0079
   81   2 H    1       7.500000   10.570001   34.728000       1.0000      1.0079
   82   1 O    8      12.970000   18.790001   32.427999       6.0000     15.9994
   83   2 H    1      13.430000   18.010002   32.867997       1.0000      1.0079
   84   2 H    1      12.720001   19.360001   33.148000       1.0000      1.0079
   85   1 O    8     -35.590004   -1.100000   35.597999       6.0000     15.9994
   86   2 H    1     -34.750000   -0.670000   35.887998       1.0000      1.0079
   87   2 H    1     -35.480000   -1.290000   34.618001       1.0000      1.0079
   88   1 O    8      -0.500000  -13.410001   35.308000       6.0000     15.9994
   89   2 H    1      -1.010000  -13.020000   36.068000       1.0000      1.0079
   90   2 H    1      -0.830000  -14.360001   35.357999       1.0000      1.0079
   91   1 O    8      -8.150001   12.760000   39.128000       6.0000     15.9994
   92   2 H    1       9.240000   12.410001   38.408000       1.0000      1.0079
   93   2 H    1      -7.420001   13.030001   39.758001       1.0000      1.0079
   94   1 O    8       4.860000    5.750000   29.137998       6.0000     15.9994
   95   2 H    1       4.320000    5.030000   29.438001       1.0000      1.0079
   96   2 H    1       4.450000    6.590000   29.447999       1.0000      1.0079
   97   1 O    8      -6.860001   31.270000   36.428001       6.0000     15.9994
   98   2 H    1      -7.220001   32.180000   36.638000       1.0000      1.0079
   99   2 H    1      -7.520000   30.870001   35.857999       1.0000      1.0079
  100   1 O    8      -0.490000   -2.130000   30.287999       6.0000     15.9994
  101   2 H    1      -8.290001   11.620001   30.207998       1.0000      1.0079
  102   2 H    1       0.090000   -1.350000   30.148000       1.0000      1.0079
  103   1 O    8      15.930000    5.390000   29.898000       6.0000     15.9994
  104   2 H    1      15.280001    6.110000   30.058000       1.0000      1.0079
  105   2 H    1      15.430001    4.500000   29.937997       1.0000      1.0079
  106   1 O    8      -6.940000   -8.970000   29.128000       6.0000     15.9994
  107   2 H    1      -7.870001   -8.990001   29.558000       1.0000      1.0079
  108   2 H    1      -6.420000   -9.700001   29.558000       1.0000      1.0079
  109   1 O    8      33.190002   -8.150001   29.847997       6.0000     15.9994
  110   2 H    1      32.920002   -8.380001   30.767999       1.0000      1.0079
  111   2 H    1      32.590000   -8.580000   29.168001       1.0000      1.0079
  112   1 O    8     -35.520004   31.550003   38.557998       6.0000     15.9994
  113   2 H    1     -17.889999   31.940002   39.088001       1.0000      1.0079
  114   2 H    1     -35.290001   31.510002   37.578000       1.0000      1.0079
  115   1 O    8      -8.670000   -0.790000   39.098001       6.0000     15.9994
  116   2 H    1      -9.080001   -1.470000   38.598001       1.0000      1.0079
  117   2 H    1      -7.800000   -0.570000   38.677999       1.0000      1.0079
  118   1 O    8      -1.470000   17.580002   29.878000       6.0000     15.9994
  119   2 H    1      -1.560000   17.730001   28.938001       1.0000      1.0079
  120   2 H    1      -0.520000   17.790001   29.997999       1.0000      1.0079
  121   1 O    8      -4.880000   23.440001   37.697999       6.0000     15.9994
  122   2 H    1      -4.890000   24.150002   36.997999       1.0000      1.0079
  123   2 H    1      -4.340000   22.700003   37.337999       1.0000      1.0079
  124   1 O    8     -16.110001   26.700001   34.068000       6.0000     15.9994
  125   2 H    1     -15.240001   27.140003   33.928001       1.0000      1.0079
  126   2 H    1     -16.780001   27.210003   33.687999       1.0000      1.0079
  127   1 O    8       5.160000    1.910000   34.007999       6.0000     15.9994
  128   2 H    1       4.440001    2.100000   34.628000       1.0000      1.0079
  129   2 H    1       5.870000    1.510000   34.507999       1.0000      1.0079
  130   1 O    8      -2.440000  -12.650002   37.287999       6.0000     15.9994
  131   2 H    1      -2.240000  -12.940001   38.277999       1.0000      1.0079
  132   2 H    1      -2.430000  -11.660000   37.597999       1.0000      1.0079
  133   1 O    8       7.990000   19.570002   35.587999       6.0000     15.9994
  134   2 H    1       8.810000   19.330002   36.068000       1.0000      1.0079
  135   2 H    1       8.250000   19.750002   34.648000       1.0000      1.0079
  136   1 O    8     -23.610001   37.620003   31.937999       6.0000     15.9994
  137   2 H    1     -23.970001   36.920002   32.477998       1.0000      1.0079
  138   2 H    1     -24.290001   38.160004   31.398000       1.0000      1.0079
  139   1 O    8       3.420000   25.230000   30.258001       6.0000     15.9994
  140   2 H    1      12.830001   10.540000   30.247999       1.0000      1.0079
  141   2 H    1     -13.780001   24.760000   29.497999       1.0000      1.0079
  142   1 O    8       3.110000   -7.230001   29.707998       6.0000     15.9994
  143   2 H    1       4.130000   -7.250000   29.747999       1.0000      1.0079
  144   2 H    1       2.820000   -6.780000   30.497999       1.0000      1.0079
  145   1 O    8      12.590000   -1.020000   39.507999       6.0000     15.9994
  146   2 H    1      13.540001   -0.780000   39.518001       1.0000      1.0079
  147   2 H    1      12.120000   -0.370000   40.148000       1.0000      1.0079
  148   1 O    8       4.020000   10.720000   35.227998       6.0000     15.9994
  149   2 H    1       4.850000   10.880001   35.847999       1.0000      1.0079
  150   2 H    1       3.340000   11.280001   35.638000       1.0000      1.0079
  151   1 O    8     -13.290001    8.650001   33.668001       6.0000     15.9994
  152   2 H    1     -12.410001    8.360001   33.347999       1.0000      1.0079
  153   2 H    1     -13.100000    9.270000   34.367999       1.0000      1.0079
  154   1 O    8     -18.780001    1.080000   33.048000       6.0000     15.9994
  155   2 H    1     -18.380001    0.220000   32.878000       1.0000      1.0079
  156   2 H    1     -19.700001    0.930000   32.767999       1.0000      1.0079
  157   1 O    8      -7.810000    1.980000   32.857999       6.0000     15.9994
  158   2 H    1      -8.110001    2.180000   31.988000       1.0000      1.0079
  159   2 H    1      -8.660001    2.090000   33.457998       1.0000      1.0079
  160   1 O    8      -4.200000   -2.290000   32.937997       6.0000     15.9994
  161   2 H    1      -4.340000   -2.900000   33.697999       1.0000      1.0079
  162   2 H    1      -4.740000   -1.440000   33.107999       1.0000      1.0079
  163   1 O    8     -13.330001    1.690000   36.287999       6.0000     15.9994
  164   2 H    1     -14.030001    1.920000   36.927999       1.0000      1.0079
  165   2 H    1     -12.510000    1.610000   36.847999       1.0000      1.0079
  166   1 O    8       9.570000   21.809999   38.947999       6.0000     15.9994
  167   2 H    1      17.260000    7.150001   38.327998       1.0000      1.0079
  168   2 H    1      10.090000   22.610001   38.817998       1.0000      1.0079
  169   1 O    8      -7.860000    4.370000   37.578000       6.0000     15.9994
  170   2 H    1      -7.410001    4.540000   38.447999       1.0000      1.0079
  171   2 H    1      -7.460001    5.040000   36.947999       1.0000      1.0079
  172   1 O    8       7.290000   25.610001   30.307996       6.0000     15.9994
  173   2 H    1       6.860001   24.900000   30.857999       1.0000      1.0079
  174   2 H    1       7.870001   24.930000   29.828000       1.0000      1.0079
  175   1 O    8      10.430001   -2.500000   36.048000       6.0000     15.9994
  176   2 H    1      10.620001   -1.660000   36.558000       1.0000      1.0079
  177   2 H    1       9.780001   -3.190000   36.468000       1.0000      1.0079
  178   1 O    8       0.540000   13.270000   31.357999       6.0000     15.9994
  179   2 H    1       0.170000   12.460001   30.908000       1.0000      1.0079
  180   2 H    1       9.800000   -1.010000   30.857999       1.0000      1.0079
  181   1 O    8      -5.330000    9.720000   37.978000       6.0000     15.9994
  182   2 H    1      -6.280000    9.480001   38.157998       1.0000      1.0079
  183   2 H    1      -5.110001    9.140000   37.177999       1.0000      1.0079
  184   1 O    8     -16.370001   10.300001   37.388000       6.0000     15.9994
  185   2 H    1     -16.930000    9.630001   36.918001       1.0000      1.0079
  186   2 H    1     -16.140001   10.040001   38.287999       1.0000      1.0079
  187   1 O    8       3.570000   27.280003   33.627998       6.0000     15.9994
  188   2 H    1       3.770000   27.950001   32.937997       1.0000      1.0079
  189   2 H    1      12.140001   13.150001   34.507999       1.0000      1.0079
  190   1 O    8      14.200001   12.770000   29.098001       6.0000     15.9994
  191   2 H    1      14.650001   13.610001   29.387998       1.0000      1.0079
  192   2 H    1      14.730001   12.010001   29.558000       1.0000      1.0079
  193   1 O    8       4.850000    0.130000   32.027999       6.0000     15.9994
  194   2 H    1       5.690000    0.240000   31.477998       1.0000      1.0079
  195   2 H    1       4.880000    0.850000   32.678001       1.0000      1.0079
  196   1 O    8       2.220000   14.280001   37.848001       6.0000     15.9994
  197   2 H    1       3.130000   14.230001   38.238000       1.0000      1.0079
  198   2 H    1       2.250000   14.780001   37.027999       1.0000      1.0079
  199   1 O    8      -5.520000    0.020000   33.498000       6.0000     15.9994
  200   2 H    1      -5.090000    0.320000   34.407998       1.0000      1.0079
  201   2 H    1      -6.480000    0.110000   33.537999       1.0000      1.0079
  202   1 O    8       1.700000    2.470000   32.607999       6.0000     15.9994
  203   2 H    1       0.840000    1.960000   32.567998       1.0000      1.0079
  204   2 H    1       1.910000    2.440000   31.617997       1.0000      1.0079
  205   1 O    8       3.520000    8.050001   29.957998       6.0000     15.9994
  206   2 H    1       3.660000    8.920000   29.547998       1.0000      1.0079
  207   2 H    1       2.630000    7.910000   30.337999       1.0000      1.0079
  208   1 O    8      -0.910000   35.890003   37.468000       6.0000     15.9994
  209   2 H    1      -0.830000   35.290001   36.668001       1.0000      1.0079
  210   2 H    1      -1.710000   35.610001   38.008001       1.0000      1.0079
  211   1 O    8       1.850000   10.970000   29.628000       6.0000     15.9994
  212   2 H    1      -6.670001   25.840000   28.677999       1.0000      1.0079
  213   2 H    1       1.470000   10.100000   29.668001       1.0000      1.0079
  214   1 O    8       9.470000    5.700001   33.087999       6.0000     15.9994
  215   2 H    1       0.010000   20.170002   32.937997       1.0000      1.0079
  216   2 H    1       1.610000   19.610001   32.737998       1.0000      1.0079
  217   1 O    8       6.200000    8.260000   32.537999       6.0000     15.9994
  218   2 H    1       6.820001    8.760000   33.128000       1.0000      1.0079
  219   2 H    1       6.170001    8.630000   31.617997       1.0000      1.0079
  220   1 O    8      14.110001   21.320002   36.837999       6.0000     15.9994
  221   2 H    1      13.710001   21.480000   35.978000       1.0000      1.0079
  222   2 H    1      14.950001   21.809999   36.847999       1.0000      1.0079
  223   1 O    8     -18.630001   13.410001   35.478000       6.0000     15.9994
  224   2 H    1     -18.250000   12.960000   34.628000       1.0000      1.0079
  225   2 H    1     -19.630001   13.440001   35.408000       1.0000      1.0079
  226   1 O    8      11.980001    9.750000   33.408000       6.0000     15.9994
  227   2 H    1      11.190001    9.380000   32.857999       1.0000      1.0079
  228   2 H    1      12.040001   10.760001   33.308000       1.0000      1.0079
  229   1 O    8       6.180000    9.420000   29.977998       6.0000     15.9994
  230   2 H    1       6.160001    9.040001   29.067998       1.0000      1.0079
  231   2 H    1       5.490000   10.200001   29.887998       1.0000      1.0079
  232   1 O    8     -16.610001    8.770000   29.787999       6.0000     15.9994
  233   2 H    1     -16.610001    7.930000   30.367997       1.0000      1.0079
  234   2 H    1     -16.680000    8.420001   28.907998       1.0000      1.0079
  235   1 O    8       3.280000    1.410000   30.048002       6.0000     15.9994
  236   2 H    1       3.700000    1.290000   29.107999       1.0000      1.0079
  237   2 H    1       3.830000    0.840000   30.667999       1.0000      1.0079
  238   1 O    8      10.460000   18.980001   36.437999       6.0000     15.9994
  239   2 H    1      10.450001   19.160002   37.388000       1.0000      1.0079
  240   2 H    1      10.860001   18.150002   36.228000       1.0000      1.0079
  241   1 O    8       9.080001    8.970000   38.557998       6.0000     15.9994
  242   2 H    1       8.930000    8.310000   39.267999       1.0000      1.0079
  243   2 H    1       8.770000    8.520000   37.727998       1.0000      1.0079
  244   1 O    8      26.970001    5.440001   29.008001       6.0000     15.9994
  245   2 H    1      27.580002    6.200000   29.258001       1.0000      1.0079
  246   2 H    1      26.040001    5.760000   29.317998       1.0000      1.0079
  247   1 O    8     -19.070000   11.640000   37.508001       6.0000     15.9994
  248   2 H    1     -18.650002   12.270001   36.847999       1.0000      1.0079
  249   2 H    1     -18.440001   10.920000   37.578000       1.0000      1.0079
  250   1 O    8     -21.330002   20.610001   34.328000       6.0000     15.9994
  251   2 H    1     -21.980001   20.290001   34.978000       1.0000      1.0079
  252   2 H    1     -21.620003   21.520002   34.238000       1.0000      1.0079
  253   1 O    8      29.970001    4.190001   30.708000       6.0000     15.9994
  254   2 H    1      29.060001    4.150000   31.157998       1.0000      1.0079
  255   2 H    1      29.720001    4.430000   29.758001       1.0000      1.0079
  256   1 O    8      -1.740000    0.060000   39.688001       6.0000     15.9994
  257   2 H    1      -1.970000    0.760000   39.128000       1.0000      1.0079
  258   2 H    1      -1.020000   -0.580000   39.398000       1.0000      1.0079
  259   1 O    8       3.060000    4.020000   30.307996       6.0000     15.9994
  260   2 H    1       3.520000    4.010000   31.227998       1.0000      1.0079
  261   2 H    1       3.190000    3.140000   29.937997       1.0000      1.0079
  262   1 O    8     -12.290001   -2.690000   39.537999       6.0000     15.9994
  263   2 H    1     -11.690001   -2.620000   38.708000       1.0000      1.0079
  264   2 H    1     -13.020000   -3.250000   39.177999       1.0000      1.0079
  265   1 O    8     -13.310001   18.010002   35.237998       6.0000     15.9994
  266   2 H    1     -12.940001   18.570002   35.927999       1.0000      1.0079
  267   2 H    1     -14.010000   17.380001   35.597999       1.0000      1.0079
  268   1 O    8       9.720000    2.960000   30.148000       6.0000     15.9994
  269   2 H    1       1.590000   18.420002   29.707998       1.0000      1.0079
  270   2 H    1      10.050000    2.240000   29.578000       1.0000      1.0079
  271   1 O    8     -17.420002    9.300001   33.527997       6.0000     15.9994
  272   2 H    1     -17.160000   10.240001   33.527997       1.0000      1.0079
  273   2 H    1     -16.650002    8.720000   33.257999       1.0000      1.0079
  274   1 O    8      13.020000    1.270000   29.957998       6.0000     15.9994
  275   2 H    1      13.200001    1.390000   28.947999       1.0000      1.0079
  276   2 H    1      13.010001    2.200000   30.348001       1.0000      1.0079
  277   1 O    8     -18.680000    2.570000   35.478000       6.0000     15.9994
  278   2 H    1     -18.180000    3.450000   35.378000       1.0000      1.0079
  279   2 H    1     -18.610001    2.130000   34.597999       1.0000      1.0079
  280   1 O    8      -5.400000   12.900001   29.107999       6.0000     15.9994
  281   2 H    1      -5.230000   12.040001   29.578000       1.0000      1.0079
  282   2 H    1      -4.490000   13.190001   29.187997       1.0000      1.0079
  283   1 O    8      -9.970000   29.550001   30.367997       6.0000     15.9994
  284   2 H    1      -9.210001   29.120003   30.817998       1.0000      1.0079
  285   2 H    1      -9.830000   30.570002   30.218000       1.0000      1.0079
  286   1 O    8      24.980001    7.970000   36.347999       6.0000     15.9994
  287   2 H    1      25.680000    7.330000   35.947999       1.0000      1.0079
  288   2 H    1      24.920002    8.600000   35.558000       1.0000      1.0079
  289   1 O    8      -6.330000   19.330002   39.098001       6.0000     15.9994
  290   2 H    1      -6.590000   20.300003   39.128000       1.0000      1.0079
  291   2 H    1      -5.600000   19.210001   39.767999       1.0000      1.0079
  292   1 O    8      -6.390000  -17.260000   37.058000       6.0000     15.9994
  293   2 H    1      -6.850000  -17.380001   36.208000       1.0000      1.0079
  294   2 H    1      -5.850000  -18.160002   37.097999       1.0000      1.0079
  295   1 O    8       9.100000   14.880000   30.398000       6.0000     15.9994
  296   2 H    1      10.060000   14.940001   30.348001       1.0000      1.0079
  297   2 H    1       8.820001   15.720000   30.118001       1.0000      1.0079
  298   1 O    8     -11.210001   13.120001   29.057996       6.0000     15.9994
  299   2 H    1     -10.190001   12.870001   29.357999       1.0000      1.0079
  300   2 H    1     -11.880001   12.420001   29.398000       1.0000      1.0079
  301   1 O    8      -4.060000   -3.230000   30.367997       6.0000     15.9994
  302   2 H    1      -4.220000   -2.940000   31.317998       1.0000      1.0079
  303   2 H    1      -4.970000   -3.530000   30.027997       1.0000      1.0079
  304   3 Pt  78       1.640000    0.760000   26.938001      10.0000    195.0840
  305   3 Pt  78       4.430000    0.710000   26.828000      10.0000    195.0840
  306   3 Pt  78       7.300000    0.820000   26.718000      10.0000    195.0840
  307   3 Pt  78      10.070001    0.690000   26.907998      10.0000    195.0840
  308   3 Pt  78      12.800001    0.700000   26.828000      10.0000    195.0840
  309   3 Pt  78      15.580001    0.700000   26.938001      10.0000    195.0840
  310   3 Pt  78       3.120000    3.200000   26.837999      10.0000    195.0840
  311   3 Pt  78       5.890000    3.070000   26.617997      10.0000    195.0840
  312   3 Pt  78       8.680000    3.210000   26.728002      10.0000    195.0840
  313   3 Pt  78      11.490001    3.120000   26.798002      10.0000    195.0840
  314   3 Pt  78      14.210001    3.130000   26.657998      10.0000    195.0840
  315   3 Pt  78       0.240000    3.000000   26.917997      10.0000    195.0840
  316   3 Pt  78       4.530000    5.660000   26.907998      10.0000    195.0840
  317   3 Pt  78       7.290000    5.660000   26.808000      10.0000    195.0840
  318   3 Pt  78      10.080000    5.530000   26.808000      10.0000    195.0840
  319   3 Pt  78      12.910000    5.600000   26.878000      10.0000    195.0840
  320   3 Pt  78      -1.270000    5.440001   26.817998      10.0000    195.0840
  321   3 Pt  78       1.620000    5.550000   26.997999      10.0000    195.0840
  322   3 Pt  78       6.120000    8.120001   26.857999      10.0000    195.0840
  323   3 Pt  78       8.830000    8.010000   27.058000      10.0000    195.0840
  324   3 Pt  78      11.520000    8.080000   26.917997      10.0000    195.0840
  325   3 Pt  78      -2.520000    8.000000   26.798002      10.0000    195.0840
  326   3 Pt  78       0.170000    8.010000   26.648000      10.0000    195.0840
  327   3 Pt  78       3.090000    8.090000   26.847997      10.0000    195.0840
  328   3 Pt  78       7.230001   10.559999   26.817998      10.0000    195.0840
  329   3 Pt  78       9.980000   10.450001   26.947999      10.0000    195.0840
  330   3 Pt  78      -4.000000   10.400001   26.718000      10.0000    195.0840
  331   3 Pt  78      -1.250000   10.430001   26.677999      10.0000    195.0840
  332   3 Pt  78       1.650000   10.510000   26.697999      10.0000    195.0840
  333   3 Pt  78       4.400000   10.540000   26.837999      10.0000    195.0840
  334   3 Pt  78       8.550000   12.890000   26.987996      10.0000    195.0840
  335   3 Pt  78      -5.640000   12.860001   26.958001      10.0000    195.0840
  336   3 Pt  78      -2.590000   12.830001   26.777997      10.0000    195.0840
  337   3 Pt  78       0.180000   12.970000   26.847997      10.0000    195.0840
  338   3 Pt  78       2.970000   12.930001   26.728002      10.0000    195.0840
  339   3 Pt  78       5.850000   12.920000   26.787999      10.0000    195.0840
  340   3 Pt  78       0.040000    1.540000   24.567998      10.0000    195.0840
  341   3 Pt  78       2.950000    1.440000   24.567998      10.0000    195.0840
  342   3 Pt  78       5.770000    1.470000   24.407998      10.0000    195.0840
  343   3 Pt  78       8.580000    1.550000   24.328000      10.0000    195.0840
  344   3 Pt  78      11.330000    1.490000   24.368001      10.0000    195.0840
  345   3 Pt  78      14.200001    1.540000   24.468000      10.0000    195.0840
  346   3 Pt  78       1.690000    4.010000   24.607999      10.0000    195.0840
  347   3 Pt  78       4.440001    4.060000   24.508001      10.0000    195.0840
  348   3 Pt  78       7.320001    3.960000   24.337999      10.0000    195.0840
  349   3 Pt  78      10.150002    4.010000   24.438001      10.0000    195.0840
  350   3 Pt  78      12.810000    3.940000   24.458001      10.0000    195.0840
  351   3 Pt  78      -1.220000    4.000000   24.458001      10.0000    195.0840
  352   3 Pt  78       3.120000    6.450000   24.628000      10.0000    195.0840
  353   3 Pt  78       5.840001    6.370000   24.528001      10.0000    195.0840
  354   3 Pt  78       8.590000    6.390000   24.567998      10.0000    195.0840
  355   3 Pt  78      11.410000    6.470000   24.537999      10.0000    195.0840
  356   3 Pt  78      -2.620000    6.330000   24.438001      10.0000    195.0840
  357   3 Pt  78       0.300000    6.370000   24.617997      10.0000    195.0840
  358   3 Pt  78       4.500000    8.870000   24.487996      10.0000    195.0840
  359   3 Pt  78       7.250000    8.930000   24.458001      10.0000    195.0840
  360   3 Pt  78       9.900001    8.750001   24.598001      10.0000    195.0840
  361   3 Pt  78      -4.000000    8.880001   24.508001      10.0000    195.0840
  362   3 Pt  78      -1.190000    8.700001   24.308000      10.0000    195.0840
  363   3 Pt  78       1.740000    8.870000   24.477998      10.0000    195.0840
  364   3 Pt  78       5.810000   11.230000   24.407998      10.0000    195.0840
  365   3 Pt  78       8.660001   11.310000   24.547998      10.0000    195.0840
  366   3 Pt  78      -5.420001   11.330000   24.558000      10.0000    195.0840
  367   3 Pt  78      -2.600000   11.300000   24.417997      10.0000    195.0840
  368   3 Pt  78       0.240000   11.290001   24.438001      10.0000    195.0840
  369   3 Pt  78       3.040000   11.220001   24.458001      10.0000    195.0840
  370   3 Pt  78       7.130001   13.650000   24.468000      10.0000    195.0840
  371   3 Pt  78      -6.790000   13.610001   24.648000      10.0000    195.0840
  372   3 Pt  78      -3.980000   13.600000   24.587999      10.0000    195.0840
  373   3 Pt  78      -1.070000   13.690001   24.567998      10.0000    195.0840
  374   3 Pt  78       1.610000   13.650000   24.328000      10.0000    195.0840
  375   3 Pt  78       4.380000   13.720001   24.427999      10.0000    195.0840
  376   3 Pt  78      -8.270000   14.510001   22.237996      10.0000    195.0840
  377   3 Pt  78      -5.370000   14.550000   22.357999      10.0000    195.0840
  378   3 Pt  78      -2.540000   14.400001   22.227998      10.0000    195.0840
  379   3 Pt  78       0.170000   14.390000   22.067998      10.0000    195.0840
  380   3 Pt  78       3.010000   14.440001   22.148000      10.0000    195.0840
  381   3 Pt  78       5.780000   14.540001   22.037996      10.0000    195.0840
  382   3 Pt  78       1.610000    2.380000   22.277997      10.0000    195.0840
  383   3 Pt  78       4.430000    2.460000   22.227998      10.0000    195.0840
  384   3 Pt  78       7.220001    2.370000   22.078000      10.0000    195.0840
  385   3 Pt  78       9.940001    2.190000   22.128000      10.0000    195.0840
  386   3 Pt  78      12.840000    2.320000   22.097997      10.0000    195.0840
  387   3 Pt  78      -1.210000    2.290000   22.107999      10.0000    195.0840
  388   3 Pt  78       3.090000    4.830000   22.148000      10.0000    195.0840
  389   3 Pt  78       5.830000    4.850000   22.137998      10.0000    195.0840
  390   3 Pt  78       8.730000    4.760000   22.118001      10.0000    195.0840
  391   3 Pt  78      11.400002    4.770000   22.118001      10.0000    195.0840
  392   3 Pt  78      -2.590000    4.740000   22.197999      10.0000    195.0840
  393   3 Pt  78       0.220000    4.720000   22.188001      10.0000    195.0840
  394   3 Pt  78       4.470000    7.270000   22.167997      10.0000    195.0840
  395   3 Pt  78       7.210000    7.250000   22.197999      10.0000    195.0840
  396   3 Pt  78       9.980000    7.330000   22.267999      10.0000    195.0840
  397   3 Pt  78      -4.090000    7.210000   22.207998      10.0000    195.0840
  398   3 Pt  78      -1.140000    7.140000   22.137998      10.0000    195.0840
  399   3 Pt  78       1.600000    7.150001   22.227998      10.0000    195.0840
  400   3 Pt  78       5.820000    9.700001   22.148000      10.0000    195.0840
  401   3 Pt  78       8.660001    9.640000   22.287999      10.0000    195.0840
  402   3 Pt  78      -5.390000    9.660000   22.247999      10.0000    195.0840
  403   3 Pt  78      -2.660000    9.550000   22.247999      10.0000    195.0840
  404   3 Pt  78       0.270000    9.570000   22.128000      10.0000    195.0840
  405   3 Pt  78       2.980000    9.660000   22.118001      10.0000    195.0840
  406   3 Pt  78       7.210000   12.090001   22.157998      10.0000    195.0840
  407   3 Pt  78      -6.900001   12.060001   22.328000      10.0000    195.0840
  408   3 Pt  78      -4.000000   12.110001   22.207998      10.0000    195.0840
  409   3 Pt  78      -1.190000   11.940001   22.207998      10.0000    195.0840
  410   3 Pt  78       1.560000   12.070000   22.078000      10.0000    195.0840
  411   3 Pt  78       4.330000   12.130001   22.137998      10.0000    195.0840
  412   3 Pt  78       1.630000    0.730000   20.000001      10.0000    195.0840
  413   3 Pt  78       4.410000    0.640000   19.940001      10.0000    195.0840
  414   3 Pt  78       7.200000    0.710000   19.860001      10.0000    195.0840
  415   3 Pt  78       9.930000    0.640000   19.710001      10.0000    195.0840
  416   3 Pt  78      12.750001    0.620000   19.820001      10.0000    195.0840
  417   3 Pt  78      15.550001    0.710000   19.790001      10.0000    195.0840
  418   3 Pt  78       3.030000    3.070000   19.920001      10.0000    195.0840
  419   3 Pt  78       5.750000    3.170000   19.760001      10.0000    195.0840
  420   3 Pt  78       8.580000    3.170000   19.810001      10.0000    195.0840
  421   3 Pt  78      11.330000    3.050000   19.820001      10.0000    195.0840
  422   3 Pt  78      14.210001    3.100000   19.840001      10.0000    195.0840
  423   3 Pt  78       0.190000    3.070000   19.830001      10.0000    195.0840
  424   3 Pt  78       4.390000    5.590000   19.740001      10.0000    195.0840
  425   3 Pt  78       7.160000    5.650000   19.850001      10.0000    195.0840
  426   3 Pt  78       9.900001    5.670000   19.880001      10.0000    195.0840
  427   3 Pt  78      12.690001    5.510000   19.930001      10.0000    195.0840
  428   3 Pt  78      -1.240000    5.530000   19.920001      10.0000    195.0840
  429   3 Pt  78       1.680000    5.500000   19.890001      10.0000    195.0840
  430   3 Pt  78       5.800000    8.080000   19.860001      10.0000    195.0840
  431   3 Pt  78       8.570001    8.130000   19.800001      10.0000    195.0840
  432   3 Pt  78      11.400002    8.010000   19.880001      10.0000    195.0840
  433   3 Pt  78      -2.640000    7.960001   19.950001      10.0000    195.0840
  434   3 Pt  78       0.260000    7.880001   19.840001      10.0000    195.0840
  435   3 Pt  78       3.000000    7.990000   19.840001      10.0000    195.0840
  436   3 Pt  78       7.210000   10.480001   19.900001      10.0000    195.0840
  437   3 Pt  78      10.010000   10.470000   19.970001      10.0000    195.0840
  438   3 Pt  78      -3.960000   10.440001   20.010001      10.0000    195.0840
  439   3 Pt  78      -1.250000   10.370001   19.820001      10.0000    195.0840
  440   3 Pt  78       1.470000   10.450001   19.770001      10.0000    195.0840
  441   3 Pt  78       4.370000   10.430001   19.930001      10.0000    195.0840
  442   3 Pt  78       8.570001   12.950001   19.870001      10.0000    195.0840
  443   3 Pt  78      -5.550000   12.790001   20.070001      10.0000    195.0840
  444   3 Pt  78      -2.690000   12.790001   19.810001      10.0000    195.0840
  445   3 Pt  78       0.070000   12.750001   19.780001      10.0000    195.0840
  446   3 Pt  78       2.900000   12.880001   19.750001      10.0000    195.0840
  447   3 Pt  78       5.730000   12.820001   19.800001      10.0000    195.0840
  448   3 Pt  78       0.130000    1.340000   17.680001      10.0000    195.0840
  449   3 Pt  78       2.900000    1.460000   17.660001      10.0000    195.0840
  450   3 Pt  78       5.770000    1.240000   17.530000      10.0000    195.0840
  451   3 Pt  78       8.500000    1.540000   17.560001      10.0000    195.0840
  452   3 Pt  78      11.370001    1.420000   17.360001      10.0000    195.0840
  453   3 Pt  78      14.150001    1.410000   17.500000      10.0000    195.0840
  454   3 Pt  78       1.570000    3.810000   17.560001      10.0000    195.0840
  455   3 Pt  78       4.320000    3.750000   17.530000      10.0000    195.0840
  456   3 Pt  78       7.160000    3.980000   17.360001      10.0000    195.0840
  457   3 Pt  78       9.970000    4.050000   17.500000      10.0000    195.0840
  458   3 Pt  78      12.880001    3.920000   17.630001      10.0000    195.0840
  459   3 Pt  78      -1.280000    3.930000   17.620000      10.0000    195.0840
  460   3 Pt  78       2.920000    6.300001   17.490001      10.0000    195.0840
  461   3 Pt  78       5.760000    6.480000   17.540001      10.0000    195.0840
  462   3 Pt  78       8.560000    6.410000   17.570001      10.0000    195.0840
  463   3 Pt  78      11.450001    6.410000   17.490001      10.0000    195.0840
  464   3 Pt  78      -2.720000    6.370000   17.670001      10.0000    195.0840
  465   3 Pt  78       0.110000    6.370000   17.450001      10.0000    195.0840
  466   3 Pt  78       4.340000    8.760000   17.440001      10.0000    195.0840
  467   3 Pt  78       7.070000    8.830000   17.330001      10.0000    195.0840
  468   3 Pt  78      10.020000    8.750001   17.620000      10.0000    195.0840
  469   3 Pt  78      -3.980000    8.830000   17.570001      10.0000    195.0840
  470   3 Pt  78      -1.230000    8.700001   17.440001      10.0000    195.0840
  471   3 Pt  78       1.520000    8.680000   17.580000      10.0000    195.0840
  472   3 Pt  78       5.770000   11.160001   17.460001      10.0000    195.0840
  473   3 Pt  78       8.560000   11.160001   17.630001      10.0000    195.0840
  474   3 Pt  78      -5.470000   11.140001   17.690001      10.0000    195.0840
  475   3 Pt  78      -2.510000   11.140001   17.550000      10.0000    195.0840
  476   3 Pt  78       0.220000   11.160001   17.400001      10.0000    195.0840
  477   3 Pt  78       3.040000   11.140001   17.510000      10.0000    195.0840
  478   3 Pt  78       7.140000   13.620001   17.580000      10.0000    195.0840
  479   3 Pt  78      -6.930000   13.580000   17.690001      10.0000    195.0840
  480   3 Pt  78      -4.060000   13.480000   17.640001      10.0000    195.0840
  481   3 Pt  78      -1.200000   13.520001   17.530000      10.0000    195.0840
  482   3 Pt  78       1.520000   13.610001   17.510000      10.0000    195.0840
  483   3 Pt  78       4.320000   13.510000   17.440001      10.0000    195.0840
  484   3 Pt  78      -8.240001   14.360001   15.320000      10.0000    195.0840
  485   3 Pt  78      -5.390000   14.310001   15.450000      10.0000    195.0840
  486   3 Pt  78      -2.540000   14.310001   15.240000      10.0000    195.0840
  487   3 Pt  78       0.270000   14.440001   15.130000      10.0000    195.0840
  488   3 Pt  78       3.000000   14.370001   15.130000      10.0000    195.0840
  489   3 Pt  78       5.710001   14.490002   15.140000      10.0000    195.0840
  490   3 Pt  78       1.500000    2.140000   15.250000      10.0000    195.0840
  491   3 Pt  78       4.340000    2.160000   15.360001      10.0000    195.0840
  492   3 Pt  78       7.080000    2.140000   15.160001      10.0000    195.0840
  493   3 Pt  78      10.000000    2.320000   15.080000      10.0000    195.0840
  494   3 Pt  78      12.820001    2.240000   15.120000      10.0000    195.0840
  495   3 Pt  78      -1.220000    2.110000   15.430001      10.0000    195.0840
  496   3 Pt  78       3.110000    4.540000   15.290001      10.0000    195.0840
  497   3 Pt  78       6.010000    4.640000   15.120000      10.0000    195.0840
  498   3 Pt  78       8.730000    4.690000   15.060000      10.0000    195.0840
  499   3 Pt  78      11.420001    4.630000   15.310000      10.0000    195.0840
  500   3 Pt  78      -2.570000    4.740000   15.150001      10.0000    195.0840
  501   3 Pt  78       0.230000    4.650001   15.330000      10.0000    195.0840
  502   3 Pt  78       4.440001    7.120000   15.210001      10.0000    195.0840
  503   3 Pt  78       7.210000    7.100000   15.210001      10.0000    195.0840
  504   3 Pt  78      10.130000    7.060000   15.270000      10.0000    195.0840
  505   3 Pt  78      -3.960000    7.040000   15.090000      10.0000    195.0840
[...]
 -------------------------------------------------------------------------------
 COUNTER                                    TOTAL       BLAS       SMM       ACC
 flops     5 x    32 x     5           4047558400       0.0%    100.0%      0.0%
 flops    13 x    32 x     5           5167685120       0.0%    100.0%      0.0%
 flops     5 x    32 x    13           5167685120       0.0%    100.0%      0.0%
 flops     5 x     5 x    96           5707756800       0.0%    100.0%      0.0%
 flops    13 x    32 x    13           6112446080       0.0%    100.0%      0.0%
 flops    13 x     5 x    96           7243466880       0.0%    100.0%      0.0%
 flops     5 x    13 x    96           7259391360       0.0%    100.0%      0.0%
 flops    13 x    13 x    96           8672182272       0.0%    100.0%      0.0%
 flops    13 x    32 x    20           8705315840       0.0%    100.0%      0.0%
 flops    20 x    32 x    13           8705315840       0.0%    100.0%      0.0%
 flops     5 x    32 x    20           9345036800       0.0%    100.0%      0.0%
 flops    20 x    32 x     5           9345036800       0.0%    100.0%      0.0%
 flops    13 x    20 x    96          12180779520       0.0%    100.0%      0.0%
 flops    20 x    13 x    96          12250268160       0.0%    100.0%      0.0%
 flops     5 x    20 x    96          13104844800       0.0%    100.0%      0.0%
 flops    20 x     5 x    96          13121548800       0.0%    100.0%      0.0%
 flops     5 x     5 x   128          53272396800       0.0%    100.0%      0.0%
 flops    13 x     5 x   128          67605690880       0.0%    100.0%      0.0%
 flops     5 x    13 x   128          67754319360       0.0%    100.0%      0.0%
 flops    20 x    32 x    20          74052403200       0.0%    100.0%      0.0%
 flops    13 x    13 x   128          80940367872       0.0%    100.0%      0.0%
 flops    20 x    20 x    96         104393318400       0.0%    100.0%      0.0%
 flops    13 x    20 x   128         113687275520       0.0%    100.0%      0.0%
 flops    20 x    13 x   128         114335836160       0.0%    100.0%      0.0%
 flops     5 x    20 x   128         122311884800       0.0%    100.0%      0.0%
 flops    20 x     5 x   128         122467788800       0.0%    100.0%      0.0%
 flops    20 x    20 x   128         974337638400       0.0%    100.0%      0.0%
 flops inhomo. stacks                           0       0.0%      0.0%      0.0%
 flops total                         2.031295E+12       0.0%    100.0%      0.0%
 flops max/rank                     19.103451E+09       0.0%    100.0%      0.0%
 matmuls inhomo. stacks                         0       0.0%      0.0%      0.0%
 matmuls total                           59103570       0.0%    100.0%      0.0%
 number of processed stacks                556178       0.0%    100.0%      0.0%
 average stack size                                     0.0     106.3       0.0
 marketing flops                     4.128397E+12
 -------------------------------------------------------------------------------
 # multiplications                             30
 max memory usage/rank               1.605022E+09
 # max total images/rank                        2
 # max 3D layers                                1
 # MPI messages exchanged                  111360
 MPI messages size (bytes):
  total size                        71.958381E+09
  min size                         288.768000E+03
  max size                           2.329016E+06
  average size                     646.178000E+03
 MPI breakdown and total messages size (bytes):
             size <=      128                   0                        0
       128 < size <=     8192                   0                        0
      8192 < size <=    32768                   0                        0
     32768 < size <=   131072                   0                        0
    131072 < size <=  4194304              111360              71958376920
   4194304 < size <= 16777216                   0                        0
  16777216 < size                               0                        0
 -------------------------------------------------------------------------------

 *** WARNING in dbcsr_mm.F:290 :: Using a non-square number of MPI ranks ***
 *** might lead to poor performance. Used ranks: 128 Suggested: 121 256  ***

 -------------------------------------------------------------------------------
 -                                                                             -
 -                      DBCSR MESSAGE PASSING PERFORMANCE                      -
 -                                                                             -
 -------------------------------------------------------------------------------
 ROUTINE             CALLS      AVE VOLUME [Bytes]
 MP_Bcast               28                     12.
 MP_Allreduce          277                     12.
 MP_Alltoall           833                 586873.
 MP_ISend             1920                 304985.
 MP_IRecv             1920                 298533.
 -------------------------------------------------------------------------------

 -------------------------------------------------------------------------------
 -                                                                             -
 -                                DBM STATISTICS                               -
 -                                                                             -
 -------------------------------------------------------------------------------
    M  x    N  x    K                                          COUNT     PERCENT
 -------------------------------------------------------------------------------

 -------------------------------------------------------------------------------
 -                                                                             -
 -                                GRID STATISTICS                              -
 -                                                                             -
 -------------------------------------------------------------------------------
 LP    KERNEL             BACKEND                              COUNT     PERCENT
 4     collocate general  REF                               11406332      21.91%
 4     integrate general  REF                               11287061      21.68%
 3     collocate general  REF                                8066744      15.49%
 3     integrate general  REF                                8008213      15.38%
 2     collocate general  REF                                6427876      12.35%
 2     integrate general  REF                                6198309      11.90%
 5     integrate general  REF                                 407369       0.78%
 0     collocate general  REF                                 132864       0.26%
 0     integrate general  REF                                  66432       0.13%
 1     integrate general  REF                                  66432       0.13%
 -------------------------------------------------------------------------------

 MEMORY| Estimated peak process memory [MiB]                                1783

 -------------------------------------------------------------------------------
 ----                             MULTIGRID INFO                            ----
 -------------------------------------------------------------------------------
 count for grid        1:        1098198          cutoff [a.u.]          200.00
 count for grid        2:        1093831          cutoff [a.u.]           66.67
 count for grid        3:         719264          cutoff [a.u.]           22.22
 count for grid        4:         559081          cutoff [a.u.]            7.41
 total gridlevel count  :        3470374

 -------------------------------------------------------------------------------
 -                                                                             -
 -                         MESSAGE PASSING PERFORMANCE                         -
 -                                                                             -
 -------------------------------------------------------------------------------

 ROUTINE             CALLS      AVE VOLUME [Bytes]
 MP_Group                4
 MP_Bcast             2180                 310017.
 MP_Allreduce         3153                  34585.
 MP_Sync                62
 MP_Alltoall          1702               16694560.
 MP_SendRecv           508                   6099.
 MP_ISendRecv        14224                  61740.
 MP_Wait             25372
 MP_comm_split          29
 MP_ISend            10512                 256588.
 MP_IRecv            10512                 256588.
 MP_Recv               122                1700608.
 MP_Write_All            3                1797408.
 -------------------------------------------------------------------------------


 -------------------------------------------------------------------------------
 -                                                                             -
 -                           R E F E R E N C E S                               -
 -                                                                             -
 -------------------------------------------------------------------------------
 
 CP2K version 2022.1, the CP2K developers group (2022).
 CP2K is freely available from https://www.cp2k.org/ .

 Kuehne,Thomas D.; Iannuzzi,Marcella; Del Ben,Mauro;
 Rybkin,Vladimir V.; Seewald,Patrick; Stein,Frederick; Laino,Teodoro;
 Khaliullin,Rustam Z.; Schuett,Ole; Schiffmann,Florian; Golze,Dorothea;
 Wilhelm,Jan; Chulkov,Sergey; Bani-Hashemian,Mohammad Hossein;
 Weber,Valery; Borstnik,Urban; Taillefumier,Mathieu;
 Jakobovits,Alice Shoshana; Lazzaro,Alfio; Pabst,Hans; Mueller,Tiziano;
 Schade,Robert; Guidon,Manuel; Andermatt,Samuel; Holmberg,Nico;
 Schenter,Gregory K.; Hehn,Anna; Bussy,Augustin; Belleflamme,Fabian;
 Tabacchi,Gloria; Gloess,Andreas; Lass,Michael; Bethune,Iain;
 Mundy,Christopher J.; Plessl,Christian; Watkins,Matt;
 VandeVondele,Joost; Krack,Matthias; Hutter,Juerg. 
 The Journal of Chemical Physics, 152 (19), (2020). 
 CP2K: An electronic structure and molecular dynamics software package -
 Quickstep: Efficient and accurate electronic structure calculations.
 https://doi.org/10.1063/5.0007045

 Goerigk, Lars; Hansen, Andreas; Bauer, Christoph; Ehrlich, Stephan;
 Najibi, Asim; Grimme, Stefan. , 19 (48), (2017). 
 A look at the density functional theory zoo with the advanced GMTKN55 database
 for general main group thermochemistry, kinetics and noncovalent interactions.
 https://doi.org/10.1039/C7CP04913G

 Bani-Hashemian, MH; Bruck, S; Luisier, M; VandeVondele, J. 
 JOURNAL OF CHEMICAL PHYSICS, 144 (4), 044113 (2016). 
 A generalized Poisson solver for first-principles device simulations.
 https://doi.org/10.1063/1.4940796

 Schuett, Ole; Messmer, Peter; Hutter, Juerg; VandeVondele, Joost. 
 Electronic Structure Calculations on Graphics Processing Units, John
 Wiley & Sons, Ltd, 173-190 (2016). 
 GPU-Accelerated Sparse Matrix-Matrix Multiplication for
 Linear Scaling Density Functional Theory.
 https://doi.org/10.1002/9781118670712.ch8

 Heinecke, A; Henry, G; Hutchinson, M; Pabst, H. 
 Proceedings of Intl. Supercomputing Conference, 981-991 (2016). 
 LIBXSMM: Accelerating Small Matrix Multiplications
 by Runtime Code Generation.
 https://doi.org/10.1109/SC.2016.83

 Borstnik, U; VandeVondele, J; Weber, V; Hutter, J. 
 PARALLEL COMPUTING, 40 (5-6), 47-58 (2014). 
 Sparse matrix multiplication: The distributed block-compressed sparse
 row library.
 https://doi.org/10.1016/j.parco.2014.03.012

 Hutter, J; Iannuzzi, M; Schiffmann, F; VandeVondele, J. 
 WIREs Comput Mol Sci., 4 (1), 15-25 (2014). 
 CP2K: atomistic simulations of condensed matter systems.
 https://doi.org/10.1002/wcms.1159

 Marek, A; Blum, V; Johanni, R; Havu, V; Lang, B; Auckenthaler, T;
 Heinecke, A; Bungartz, H; Lederer, H. 
 Journal of Physics: Condensed Matter, 26 (21), (2014). 
 The ELPA library: scalable parallel eigenvalue solutions for
 electronic structure
 theory and computational science.
 https://doi.org/10.1088/0953-8984/26/21/213201

 Grimme, S; Ehrlich, S; Goerigk, L. 
 JOURNAL OF COMPUTATIONAL CHEMISTRY, 32, 1456 (2011). 
 Effect of the damping function in dispersion corrected density functional theory.
 https://doi.org/10.1002/jcc.21759

 Grimme, S; Antony, J; Ehrlich, S; Krieg, H. 
 JOURNAL OF CHEMICAL PHYSICS, 132 (15), 154104 (2010). 
 A consistent and accurate ab initio parametrization of density
 functional dispersion correction (DFT-D) for the 94 elements H-Pu.
 https://doi.org/10.1063/1.3382344

 VandeVondele, J; Hutter, J. 
 JOURNAL OF CHEMICAL PHYSICS, 127 (11), 114105 (2007). 
 Gaussian basis sets for accurate calculations on molecular systems in
 gas and condensed phases.
 https://doi.org/10.1063/1.2770708

 Krack, M. 
 THEORETICAL CHEMISTRY ACCOUNTS, 114 (1-3), 145-152 (2005). 
 Pseudopotentials for H to Kr optimized for gradient-corrected
 exchange-correlation functionals.
 https://doi.org/10.1007/s00214-005-0655-y

 VandeVondele, J; Krack, M; Mohamed, F; Parrinello, M; Chassaing, T;
 Hutter, J. COMPUTER PHYSICS COMMUNICATIONS, 167 (2), 103-128 (2005). 
 QUICKSTEP: Fast and accurate density functional calculations using a
 mixed Gaussian and plane waves approach.
 https://doi.org/10.1016/j.cpc.2004.12.014

 Frigo, M; Johnson, SG. 
 PROCEEDINGS OF THE IEEE, 93 (2), 216-231 (2005). 
 The design and implementation of FFTW3.
 https://doi.org/10.1109/JPROC.2004.840301

 Hartwigsen, C; Goedecker, S; Hutter, J. 
 PHYSICAL REVIEW B, 58 (7), 3641-3662 (1998). 
 Relativistic separable dual-space Gaussian pseudopotentials from H to Rn.
 https://doi.org/10.1103/PhysRevB.58.3641

 Lippert, G; Hutter, J; Parrinello, M. 
 MOLECULAR PHYSICS, 92 (3), 477-487 (1997). 
 A hybrid Gaussian and plane wave density functional scheme.
 https://doi.org/10.1080/002689797170220

 Perdew, JP; Burke, K; Ernzerhof, M. 
 PHYSICAL REVIEW LETTERS, 77 (18), 3865-3868 (1996). 
 Generalized gradient approximation made simple.
 https://doi.org/10.1103/PhysRevLett.77.3865

 Goedecker, S; Teter, M; Hutter, J. 
 PHYSICAL REVIEW B, 54 (3), 1703-1710 (1996). 
 Separable dual-space Gaussian pseudopotentials.
 https://doi.org/10.1103/PhysRevB.54.1703


 -------------------------------------------------------------------------------
 -                                                                             -
 -                                T I M I N G                                  -
 -                                                                             -
 -------------------------------------------------------------------------------
 SUBROUTINE                       CALLS  ASD         SELF TIME        TOTAL TIME
                                MAXIMUM       AVERAGE  MAXIMUM  AVERAGE  MAXIMUM
 CP2K                                 1  1.0    0.041    0.062  200.965  200.966
 qs_forces                            1  2.0    0.002    0.002  200.578  200.579
 qs_energies                          1  3.0    0.000    0.001  194.398  194.402
 scf_env_do_scf                       1  4.0    0.000    0.001  184.662  184.799
 scf_env_do_scf_inner_loop           27  5.0    0.002    0.005  184.659  184.796
 rebuild_ks_matrix                   28  6.9    0.000    0.000  100.643  100.667
 qs_ks_build_kohn_sham_matrix        28  7.9    0.005    0.005  100.643  100.667
 qs_ks_update_qs_env                 27  6.0    0.000    0.000   96.618   96.642
 pw_transfer                       1460 12.2    0.107    0.146   63.629   64.973
 fft_wrap_pw1pw2                   1460 13.2    0.014    0.017   63.522   64.834
 fft_wrap_pw1pw2_200               1292 14.4    4.296    5.028   62.685   63.903
 pw_poisson_solve                    28  8.9    0.003    0.007   54.377   54.403
 qs_scf_new_mos                      27  6.0    0.001    0.004   53.482   53.555
 fft3d_ps                          1460 15.2   18.360   20.450   51.100   52.846
 implicit_poisson_solver_mixed_      28  9.9    1.159    1.415   51.228   51.356
 eigensolver                         27  7.0    0.002    0.003   50.372   50.548
 derive_fft                         168 12.1    0.011    0.013   35.994   36.097
 cp_fm_diag_elpa                     29  8.1    0.000    0.001   35.986   36.080
 cp_fm_redistribute_end              29  9.1    4.796   35.645    4.850   35.678
 cp_fm_diag_elpa_base                29  9.0   30.365   34.859   30.650   35.160
 mp_alltoall_z22v                  1460 17.2   27.402   34.006   27.402   34.006
 qs_rho_update_rho_low               28  6.0    0.000    0.000   31.264   31.274
 calculate_rho_elec                  28  7.0    0.054    0.067   31.264   31.274
 sum_up_and_integrate                28  8.9    0.152    0.186   30.809   30.838
 apply_P_operator                   140 11.1    0.749    0.835   30.730   30.831
 integrate_v_rspace                  28  9.9    0.001    0.007   30.657   30.729
 grid_collocate_task_list            28  8.0   20.571   24.561   20.571   24.561
 grid_integrate_task_list            28 10.9   19.159   22.369   19.159   22.369
 x_to_yz                            841 16.4    3.566    4.531   20.879   21.714
 rs_pw_transfer                     228 10.4    0.003    0.003   14.219   16.676
 cp_fm_triangular_multiply           81  8.0   15.937   16.149   15.937   16.149
 yz_to_x                            451 16.4    1.239    1.432   11.224   15.374
 qs_vxc_create                       28  8.9    0.001    0.001   13.761   13.929
 xc_vxc_pw_create                    28  9.9    0.239    0.296   13.760   13.929
 density_rs2pw                       28  8.0    0.002    0.002   10.011   12.312
 xc_pw_derive                       168 11.9    0.003    0.003    9.692   10.730
 apply_poisson_operator_fft          28 10.9    0.000    0.000    8.960    9.111
 mp_waitany                       10512 12.3    6.344    8.867    6.344    8.867
 rs_pw_transfer_RS2PW_200            30  9.9    1.960    2.179    6.408    8.857
 apply_inv_laplace_operator_fft      86 11.6    0.219    0.251    8.293    8.595
 potential_pw2rs                     28 10.9    0.008    0.009    7.993    8.054
 xc_pw_divergence                    28 10.9    0.001    0.002    6.573    7.373
 xc_rho_set_and_dset_create          28 10.9    0.140    0.163    6.710    7.124
 mp_alltoall_d11v                   414 10.3    4.406    6.782    4.406    6.782
 ps_implicit_compute_error_fft       56 10.9    0.353    0.431    6.052    6.483
 ps_implicit_compute_veps            28 10.9    0.163    0.209    6.178    6.353
 pw_scatter_p                       925 15.3    5.175    6.112    5.175    6.112
 rs_gather_matrices                  28 10.9    0.035    0.044    3.492    5.807
 scf_post_calculation_gpw             1  4.0    0.000    0.000    5.793    5.799
 write_available_results              1  5.0    0.000    0.000    5.793    5.798
 rs_pw_transfer_PW2RS_200            30 12.6    2.266    2.385    4.754    4.863
 pw_derive                          672 13.0    4.263    4.476    4.263    4.476
 gspace_mixing                       26  6.0    0.050    0.063    4.284    4.286
 qs_ks_update_qs_env_forces           1  3.0    0.000    0.000    4.069    4.069
 -------------------------------------------------------------------------------

 The number of warnings for this run is : 1
 
 -------------------------------------------------------------------------------
  **** **** ******  **  PROGRAM ENDED AT                 2023-12-02 10:55:20.648
 ***** ** ***  *** **   PROGRAM RAN ON                                     cu001
 **    ****   ******    PROGRAM RAN BY                                     jxzhu
 ***** **    ** ** **   PROGRAM PROCESS ID                                 62395
  **** **  *******  **  PROGRAM STOPPED IN /public/home/jxzhu/tmp_calc/188f0e3df
                                           06040b711fa3a6135f9747372f5fd4e/calc/
                                           001300.000/search_hi.000000
