 DBCSR| CPU Multiplication driver                                           XSMM
 DBCSR| Multrec recursion limit                                              512
 DBCSR| Multiplication stack size                                           1000
 DBCSR| Maximum elements for images                                    UNLIMITED
 DBCSR| Multiplicative factor virtual images                                   1
 DBCSR| Use multiplication densification                                       T
 DBCSR| Multiplication size stacks                                             3
 DBCSR| Use memory pool for CPU allocation                                     F
 DBCSR| Number of 3D layers                                               SINGLE
 DBCSR| Use MPI memory allocation                                              F
 DBCSR| Use RMA algorithm                                                      F
 DBCSR| Use Communication thread                                               T
 DBCSR| Communication thread load                                             87
 DBCSR| MPI: My node id                                                        0
 DBCSR| MPI: Number of nodes                                                 128
 DBCSR| OMP: Current number of threads                                         1
 DBCSR| OMP: Max number of threads                                             1
 DBCSR| Split modifier for TAS multiplication algorithm                  1.0E+00


  **** **** ******  **  PROGRAM STARTED AT               2023-12-02 04:01:12.002
 ***** ** ***  *** **   PROGRAM STARTED ON                                 cu035
 **    ****   ******    PROGRAM STARTED BY                                 jxzhu
 ***** **    ** ** **   PROGRAM PROCESS ID                                 36880
  **** **  *******  **  PROGRAM STARTED IN /public/home/jxzhu/tmp_calc/a4c274ab9
                                           d6b5030196cf97a4d0f59575a6da927/calc/
                                           000600.000/search_hi.000000

 CP2K| version string:                                       CP2K version 2022.1
 CP2K| source code revision number:                                  git:2caeb6f
 CP2K| cp2kflags: omp libint fftw3 libxc elpa parallel mpi3 scalapack cosma xsmm
 CP2K|             plumed2 spglib mkl sirius libvori libbqb
 CP2K| is freely available from                            https://www.cp2k.org/
 CP2K| Program compiled at                           Mon Jul 3 17:37:06 CST 2023
 CP2K| Program compiled on                                                 mu003
 CP2K| Program compiled for                                                local
 CP2K| Data directory path                             /public/home/jxzhu/basis/
 CP2K| Input file name                                                 input.inp
 
 GLOBAL| Force Environment number                                              1
 GLOBAL| Basis set file name                                        BASIS_MOLOPT
 GLOBAL| Potential file name                                      GTH_POTENTIALS
 GLOBAL| MM Potential file name                                     MM_POTENTIAL
 GLOBAL| Coordinate file name                                          coord.xyz
 GLOBAL| Method name                                                        CP2K
 GLOBAL| Project name                                                       cp2k
 GLOBAL| Run type                                                   ENERGY_FORCE
 GLOBAL| FFT library                                                       FFTW3
 GLOBAL| Diagonalization library                                            ELPA
 GLOBAL| Minimum number of eigenvectors for ELPA usage                        16
 GLOBAL| Orthonormality check for eigenvectors                          DISABLED
 GLOBAL| Matrix multiplication library                                     COSMA
 GLOBAL| All-to-all communication in single precision                          F
 GLOBAL| FFTs using library dependent lengths                                  T
 GLOBAL| Grid backend                                                       AUTO
 GLOBAL| Global print level                                               MEDIUM
 GLOBAL| MPI I/O enabled                                                       T
 GLOBAL| Total number of message passing processes                           128
 GLOBAL| Number of threads for this process                                    1
 GLOBAL| This output is from process                                           0
 GLOBAL| Stack size for threads created by OpenMP (OMP_STACKSIZE)        default
 GLOBAL| CPU model name                 Intel(R) Xeon(R) Gold 6338 CPU @ 2.00GHz
 GLOBAL| CPUID                                                              1003

 MEMORY| system memory details [Kb]
 MEMORY|                        rank 0           min           max       average
 MEMORY| MemTotal            263619172     263619172     263619172     263619172
 MEMORY| MemFree             199488588     199488588     202808972     201148834
 MEMORY| Buffers                    40            40            44            42
 MEMORY| Cached                1196200        861268       1196200       1028734
 MEMORY| Slab                  1775432       1645524       1775432       1710478
 MEMORY| SReclaimable           228236        222336        228236        225286
 MEMORY| MemLikelyFree       200913064     200913064     203892620     202402896


 *** Fundamental physical constants (SI units) ***

 *** Literature: B. J. Mohr and B. N. Taylor,
 ***             CODATA recommended values of the fundamental physical
 ***             constants: 2006, Web Version 5.1
 ***             http://physics.nist.gov/constants

 Speed of light in vacuum [m/s]                             2.99792458000000E+08
 Magnetic constant or permeability of vacuum [N/A**2]       1.25663706143592E-06
 Electric constant or permittivity of vacuum [F/m]          8.85418781762039E-12
 Planck constant (h) [J*s]                                  6.62606896000000E-34
 Planck constant (h-bar) [J*s]                              1.05457162825177E-34
 Elementary charge [C]                                      1.60217648700000E-19
 Electron mass [kg]                                         9.10938215000000E-31
 Electron g factor [ ]                                     -2.00231930436220E+00
 Proton mass [kg]                                           1.67262163700000E-27
 Fine-structure constant                                    7.29735253760000E-03
 Rydberg constant [1/m]                                     1.09737315685270E+07
 Avogadro constant [1/mol]                                  6.02214179000000E+23
 Boltzmann constant [J/K]                                   1.38065040000000E-23
 Atomic mass unit [kg]                                      1.66053878200000E-27
 Bohr radius [m]                                            5.29177208590000E-11

 *** Conversion factors ***

 [u] -> [a.u.]                                              1.82288848426455E+03
 [Angstrom] -> [Bohr] = [a.u.]                              1.88972613288564E+00
 [a.u.] = [Bohr] -> [Angstrom]                              5.29177208590000E-01
 [a.u.] -> [s]                                              2.41888432650478E-17
 [a.u.] -> [fs]                                             2.41888432650478E-02
 [a.u.] -> [J]                                              4.35974393937059E-18
 [a.u.] -> [N]                                              8.23872205491840E-08
 [a.u.] -> [K]                                              3.15774647902944E+05
 [a.u.] -> [kJ/mol]                                         2.62549961709828E+03
 [a.u.] -> [kcal/mol]                                       6.27509468713739E+02
 [a.u.] -> [Pa]                                             2.94210107994716E+13
 [a.u.] -> [bar]                                            2.94210107994716E+08
 [a.u.] -> [atm]                                            2.90362800883016E+08
 [a.u.] -> [eV]                                             2.72113838565563E+01
 [a.u.] -> [Hz]                                             6.57968392072181E+15
 [a.u.] -> [1/cm] (wave numbers)                            2.19474631370540E+05
 [a.u./Bohr**2] -> [1/cm]                                   5.14048714338585E+03
 

 CELL_TOP| Volume [angstrom^3]:                                     17614.982639
 CELL_TOP| Vector a [angstrom    16.869     0.000     0.000   |a| =    16.869000
 CELL_TOP| Vector b [angstrom    -8.434    14.609     0.000   |b| =    16.869015
 CELL_TOP| Vector c [angstrom     0.000     0.000    71.478   |c| =    71.478000
 CELL_TOP| Angle (b,c), alpha [degree]:                                90.000000
 CELL_TOP| Angle (a,c), beta  [degree]:                                90.000000
 CELL_TOP| Angle (a,b), gamma [degree]:                               119.999970
 CELL_TOP| Numerically orthorhombic:                                          NO
 
 GENERATE|  Preliminary Number of Bonds generated:                             0
 GENERATE|  Achieved consistency in connectivity generation.

 CELL| Volume [angstrom^3]:                                         17614.982639
 CELL| Vector a [angstrom]:      16.869     0.000     0.000   |a| =    16.869000
 CELL| Vector b [angstrom]:      -8.434    14.609     0.000   |b| =    16.869015
 CELL| Vector c [angstrom]:       0.000     0.000    71.478   |c| =    71.478000
 CELL| Angle (b,c), alpha [degree]:                                    90.000000
 CELL| Angle (a,c), beta  [degree]:                                    90.000000
 CELL| Angle (a,b), gamma [degree]:                                   119.999970
 CELL| Numerically orthorhombic:                                              NO

 CELL_REF| Volume [angstrom^3]:                                     17614.982639
 CELL_REF| Vector a [angstrom    16.869     0.000     0.000   |a| =    16.869000
 CELL_REF| Vector b [angstrom    -8.434    14.609     0.000   |b| =    16.869015
 CELL_REF| Vector c [angstrom     0.000     0.000    71.478   |c| =    71.478000
 CELL_REF| Angle (b,c), alpha [degree]:                                90.000000
 CELL_REF| Angle (a,c), beta  [degree]:                                90.000000
 CELL_REF| Angle (a,b), gamma [degree]:                               119.999970
 CELL_REF| Numerically orthorhombic:                                          NO

 *******************************************************************************
 *******************************************************************************
 **                                                                           **
 **     #####                         ##              ##                      **
 **    ##   ##            ##          ##              ##                      **
 **   ##     ##                       ##            ######                    **
 **   ##     ##  ##   ##  ##   #####  ##  ##   ####   ##    #####    #####    **
 **   ##     ##  ##   ##  ##  ##      ## ##   ##      ##   ##   ##  ##   ##   **
 **   ##  ## ##  ##   ##  ##  ##      ####     ###    ##   ######   ######    **
 **    ##  ###   ##   ##  ##  ##      ## ##      ##   ##   ##       ##        **
 **     #######   #####   ##   #####  ##  ##  ####    ##    #####   ##        **
 **           ##                                                    ##        **
 **                                                                           **
 **                                                ... make the atoms dance   **
 **                                                                           **
 **            Copyright (C) by CP2K developers group (2000-2022)             **
 **                      J. Chem. Phys. 152, 194103 (2020)                    **
 **                                                                           **
 *******************************************************************************

 DFT| Spin restricted Kohn-Sham (RKS) calculation                            RKS
 DFT| Multiplicity                                                             1
 DFT| Number of spin states                                                    1
 DFT| Charge                                                                   0
 DFT| Self-interaction correction (SIC)                                       NO
 DFT| Cutoffs: density                                              1.000000E-10
 DFT|          gradient                                             1.000000E-10
 DFT|          tau                                                  1.000000E-10
 DFT|          cutoff_smoothing_range                               0.000000E+00
 DFT| XC density smoothing                                                  NONE
 DFT| XC derivatives                                                          PW

 FUNCTIONAL| PBE:
 FUNCTIONAL| J.P.Perdew, K.Burke, M.Ernzerhof, Phys. Rev. Letter, vol. 77, n 18,
 FUNCTIONAL|  pp. 3865-3868, (1996){spin unpolarized}                           

 vdW POTENTIAL|                                                   Pair Potential
 vdW POTENTIAL|          DFT-D3 (Version 3.1)
 vdW POTENTIAL|          Potential Form: S. Grimme et al, JCP 132: 154104 (2010)
 vdW POTENTIAL|          Zero Damping
 vdW POTENTIAL|          Cutoff Radius [Bohr]:                             20.00
 vdW POTENTIAL|          s6 Scaling Factor:                               1.0000
 vdW POTENTIAL|          sr6 Scaling Factor:                              1.2170
 vdW POTENTIAL|          s8 Scaling Factor:                               0.7220
 vdW POTENTIAL|          Cutoff for CN calculation:                   0.1000E-05

 QS| Method:                                                                 GPW
 QS| Density plane wave grid type                        NON-SPHERICAL FULLSPACE
 QS| Number of grid levels:                                                    4
 QS| Density cutoff [a.u.]:                                                200.0
 QS| Multi grid cutoff [a.u.]: 1) grid level                               200.0
 QS|                           2) grid level                                66.7
 QS|                           3) grid level                                22.2
 QS|                           4) grid level                                 7.4
 QS| Grid level progression factor:                                          3.0
 QS| Relative density cutoff [a.u.]:                                        20.0
 QS| Interaction thresholds: eps_pgf_orb:                                3.2E-07
 QS|                         eps_filter_matrix:                          0.0E+00
 QS|                         eps_core_charge:                            1.0E-15
 QS|                         eps_rho_gspace:                             1.0E-13
 QS|                         eps_rho_rspace:                             1.0E-13
 QS|                         eps_gvg_rspace:                             3.2E-07
 QS|                         eps_ppl:                                    1.0E-02
 QS|                         eps_ppnl:                                   3.2E-09


 ATOMIC KIND INFORMATION

  1. Atomic kind: O                                     Number of atoms:     102

     Orbital Basis Set                                        DZVP-MOLOPT-SR-GTH

       Number of orbital shell sets:                                           1
       Number of orbital shells:                                               5
       Number of primitive Cartesian functions:                                5
       Number of Cartesian basis functions:                                   14
       Number of spherical basis functions:                                   13
       Norm type:                                                              2

       Normalised Cartesian orbitals:

                        Set   Shell   Orbital            Exponent    Coefficient

                          1       1    2s               10.389228       0.396646
                                                         3.849621       0.208811
                                                         1.388401      -0.301641
                                                         0.496955      -0.274061
                                                         0.162492      -0.033677

                          1       2    3s               10.389228       0.303673
                                                         3.849621       0.240943
                                                         1.388401      -0.313066
                                                         0.496955      -0.043055
                                                         0.162492       0.213991

                          1       3    3px              10.389228      -1.530415
                                                         3.849621      -1.371928
                                                         1.388401      -0.761951
                                                         0.496955      -0.253695
                                                         0.162492      -0.035541
                          1       3    3py              10.389228      -1.530415
                                                         3.849621      -1.371928
                                                         1.388401      -0.761951
                                                         0.496955      -0.253695
                                                         0.162492      -0.035541
                          1       3    3pz              10.389228      -1.530415
                                                         3.849621      -1.371928
                                                         1.388401      -0.761951
                                                         0.496955      -0.253695
                                                         0.162492      -0.035541

                          1       4    4px              10.389228      -0.565392
                                                         3.849621      -0.038231
                                                         1.388401      -0.382373
                                                         0.496955       0.179070
                                                         0.162492       0.122714
                          1       4    4py              10.389228      -0.565392
                                                         3.849621      -0.038231
                                                         1.388401      -0.382373
                                                         0.496955       0.179070
                                                         0.162492       0.122714
                          1       4    4pz              10.389228      -0.565392
                                                         3.849621      -0.038231
                                                         1.388401      -0.382373
                                                         0.496955       0.179070
                                                         0.162492       0.122714

                          1       5    4dx2             10.389228       1.867377
                                                         3.849621       0.670994
                                                         1.388401       1.353441
                                                         0.496955       0.273538
                                                         0.162492       0.006620
                          1       5    4dxy             10.389228       3.234392
                                                         3.849621       1.162195
                                                         1.388401       2.344229
                                                         0.496955       0.473781
                                                         0.162492       0.011466
                          1       5    4dxz             10.389228       3.234392
                                                         3.849621       1.162195
                                                         1.388401       2.344229
                                                         0.496955       0.473781
                                                         0.162492       0.011466
                          1       5    4dy2             10.389228       1.867377
                                                         3.849621       0.670994
                                                         1.388401       1.353441
                                                         0.496955       0.273538
                                                         0.162492       0.006620
                          1       5    4dyz             10.389228       3.234392
                                                         3.849621       1.162195
                                                         1.388401       2.344229
                                                         0.496955       0.473781
                                                         0.162492       0.011466
                          1       5    4dz2             10.389228       1.867377
                                                         3.849621       0.670994
                                                         1.388401       1.353441
                                                         0.496955       0.273538
                                                         0.162492       0.006620

       Atomic covalent radius [Angstrom]:                                  0.730

       Atomic van der Waals radius [Angstrom]:                             1.520

     GTH Potential information for                                    GTH-PBE-q6

       Description:                       Goedecker-Teter-Hutter pseudopotential
                                           Goedecker et al., PRB 54, 1703 (1996)
                                          Hartwigsen et al., PRB 58, 3641 (1998)
                                                      Krack, TCA 114, 145 (2005)

       Gaussian exponent of the core charge distribution:               8.360253
       Electronic configuration (s p d ...):                               2   4

       Parameters of the local part of the GTH pseudopotential:

                          rloc        C1          C2          C3          C4
                        0.244554  -16.667215    2.487311

       Parameters of the non-local part of the GTH pseudopotential:

                   l      r(l)      h(i,j,l)

                   0    0.220956   18.337458
                   1    0.211332

  2. Atomic kind: H                                     Number of atoms:     204

     Orbital Basis Set                                        DZVP-MOLOPT-SR-GTH

       Number of orbital shell sets:                                           1
       Number of orbital shells:                                               3
       Number of primitive Cartesian functions:                                5
       Number of Cartesian basis functions:                                    5
       Number of spherical basis functions:                                    5
       Norm type:                                                              2

       Normalised Cartesian orbitals:

                        Set   Shell   Orbital            Exponent    Coefficient

                          1       1    2s               10.068468      -0.133023
                                                         2.680223      -0.177618
                                                         0.791502      -0.258419
                                                         0.239116      -0.107525
                                                         0.082193      -0.014019

                          1       2    3s               10.068468       0.344673
                                                         2.680223       1.819821
                                                         0.791502      -0.999069
                                                         0.239116       0.017430
                                                         0.082193       0.082660

                          1       3    3px              10.068468       0.155326
                                                         2.680223       0.367157
                                                         0.791502       0.311480
                                                         0.239116       0.080105
                                                         0.082193       0.033440
                          1       3    3py              10.068468       0.155326
                                                         2.680223       0.367157
                                                         0.791502       0.311480
                                                         0.239116       0.080105
                                                         0.082193       0.033440
                          1       3    3pz              10.068468       0.155326
                                                         2.680223       0.367157
                                                         0.791502       0.311480
                                                         0.239116       0.080105
                                                         0.082193       0.033440

       Atomic covalent radius [Angstrom]:                                  0.320

       Atomic van der Waals radius [Angstrom]:                             1.090

     GTH Potential information for                                    GTH-PBE-q1

       Description:                       Goedecker-Teter-Hutter pseudopotential
                                           Goedecker et al., PRB 54, 1703 (1996)
                                          Hartwigsen et al., PRB 58, 3641 (1998)
                                                      Krack, TCA 114, 145 (2005)

       Gaussian exponent of the core charge distribution:              12.500000
       Electronic configuration (s p d ...):                                   1

       Parameters of the local part of the GTH pseudopotential:

                          rloc        C1          C2          C3          C4
                        0.200000   -4.178900    0.724463

  3. Atomic kind: Pt                                    Number of atoms:     216

     Orbital Basis Set                      DZVP-A5-Q10-323-MOL-T1-DERIVED_SET-1

       Number of orbital shell sets:                                           1
       Number of orbital shells:                                               6
       Number of primitive Cartesian functions:                                5
       Number of Cartesian basis functions:                                   23
       Number of spherical basis functions:                                   20
       Norm type:                                                              2

       Normalised Cartesian orbitals:

                        Set   Shell   Orbital            Exponent    Coefficient

                          1       1    2s                2.521825       0.177473
                                                         1.453920      -0.063399
                                                         0.614053      -0.407089
                                                         0.232656       0.262254
                                                         0.074788       0.047371

                          1       2    3s                2.521825      -0.049056
                                                         1.453920       0.044904
                                                         0.614053      -0.009756
                                                         0.232656      -0.144709
                                                         0.074788       0.144085

                          1       3    3px               2.521825      -0.317572
                                                         1.453920       0.534826
                                                         0.614053      -0.489458
                                                         0.232656       0.245631
                                                         0.074788       0.018221
                          1       3    3py               2.521825      -0.317572
                                                         1.453920       0.534826
                                                         0.614053      -0.489458
                                                         0.232656       0.245631
                                                         0.074788       0.018221
                          1       3    3pz               2.521825      -0.317572
                                                         1.453920       0.534826
                                                         0.614053      -0.489458
                                                         0.232656       0.245631
                                                         0.074788       0.018221

                          1       4    4dx2              2.521825       3.008522
                                                         1.453920      -1.224251
                                                         0.614053       0.225691
                                                         0.232656       0.125144
                                                         0.074788      -0.015348
                          1       4    4dxy              2.521825       5.210912
                                                         1.453920      -2.120465
                                                         0.614053       0.390909
                                                         0.232656       0.216756
                                                         0.074788      -0.026584
                          1       4    4dxz              2.521825       5.210912
                                                         1.453920      -2.120465
                                                         0.614053       0.390909
                                                         0.232656       0.216756
                                                         0.074788      -0.026584
                          1       4    4dy2              2.521825       3.008522
                                                         1.453920      -1.224251
                                                         0.614053       0.225691
                                                         0.232656       0.125144
                                                         0.074788      -0.015348
                          1       4    4dyz              2.521825       5.210912
                                                         1.453920      -2.120465
                                                         0.614053       0.390909
                                                         0.232656       0.216756
                                                         0.074788      -0.026584
                          1       4    4dz2              2.521825       3.008522
                                                         1.453920      -1.224251
                                                         0.614053       0.225691
                                                         0.232656       0.125144
                                                         0.074788      -0.015348

                          1       5    5dx2              2.521825       0.698026
                                                         1.453920      -1.511486
                                                         0.614053      -0.335394
                                                         0.232656      -0.025564
                                                         0.074788      -0.002699
                          1       5    5dxy              2.521825       1.209017
                                                         1.453920      -2.617970
                                                         0.614053      -0.580920
                                                         0.232656      -0.044277
                                                         0.074788      -0.004674
                          1       5    5dxz              2.521825       1.209017
                                                         1.453920      -2.617970
                                                         0.614053      -0.580920
                                                         0.232656      -0.044277
                                                         0.074788      -0.004674
                          1       5    5dy2              2.521825       0.698026
                                                         1.453920      -1.511486
                                                         0.614053      -0.335394
                                                         0.232656      -0.025564
                                                         0.074788      -0.002699
                          1       5    5dyz              2.521825       1.209017
                                                         1.453920      -2.617970
                                                         0.614053      -0.580920
                                                         0.232656      -0.044277
                                                         0.074788      -0.004674
                          1       5    5dz2              2.521825       0.698026
                                                         1.453920      -1.511486
                                                         0.614053      -0.335394
                                                         0.232656      -0.025564
                                                         0.074788      -0.002699

                          1       6    6dx2              2.521825       0.831079
                                                         1.453920      -0.709226
                                                         0.614053      -0.137351
                                                         0.232656       0.068642
                                                         0.074788       0.011745
                          1       6    6dxy              2.521825       1.439472
                                                         1.453920      -1.228415
                                                         0.614053      -0.237899
                                                         0.232656       0.118891
                                                         0.074788       0.020343
                          1       6    6dxz              2.521825       1.439472
                                                         1.453920      -1.228415
                                                         0.614053      -0.237899
                                                         0.232656       0.118891
                                                         0.074788       0.020343
                          1       6    6dy2              2.521825       0.831079
                                                         1.453920      -0.709226
                                                         0.614053      -0.137351
                                                         0.232656       0.068642
                                                         0.074788       0.011745
                          1       6    6dyz              2.521825       1.439472
                                                         1.453920      -1.228415
                                                         0.614053      -0.237899
                                                         0.232656       0.118891
                                                         0.074788       0.020343
                          1       6    6dz2              2.521825       0.831079
                                                         1.453920      -0.709226
                                                         0.614053      -0.137351
                                                         0.232656       0.068642
                                                         0.074788       0.011745

       Atomic covalent radius [Angstrom]:                                  1.300

       Atomic van der Waals radius [Angstrom]:                             1.750

     GTH Potential information for                                   GTH-PBE-q10

       Description:                       Goedecker-Teter-Hutter pseudopotential
                                           Goedecker et al., PRB 54, 1703 (1996)
                                          Hartwigsen et al., PRB 58, 3641 (1998)
                                                      Krack, TCA 114, 145 (2005)

       Gaussian exponent of the core charge distribution:               1.317676
       Electronic configuration (s p d ...):                           1   0   9

       Parameters of the local part of the GTH pseudopotential:

                          rloc        C1          C2          C3          C4
                        0.616000   11.313635

       Parameters of the non-local part of the GTH pseudopotential:

                   l      r(l)      h(i,j,l)

                   0    0.550904    4.733491   -1.784594
                                   -1.784594    2.303901
                   1    0.674138    2.534798   -1.778066
                                   -1.778066    2.103836
                   2    0.457392   -7.264011    2.558665
                                    2.558665   -2.901253


 MOLECULE KIND INFORMATION


 All atoms are their own molecule, skipping detailed information


 TOTAL NUMBERS AND MAXIMUM NUMBERS

  Total number of            - Atomic kinds:                                   3
                             - Atoms:                                        522
                             - Shell sets:                                   522
                             - Shells:                                      2418
                             - Primitive Cartesian functions:               2610
                             - Cartesian basis functions:                   7416
                             - Spherical basis functions:                   6666

  Maximum angular momentum of- Orbital basis functions:                        2
                             - Local part of the GTH pseudopotential:          2
                             - Non-local part of the GTH pseudopotential:      4


 MODULE QUICKSTEP:  ATOMIC COORDINATES IN angstrom

 Atom  Kind  Element       X           Y           Z          Z(eff)       Mass
    1   1 O    8      -4.270000   -6.060000   36.788000       6.0000     15.9994
    2   2 H    1      -4.080000   -5.890000   37.728000       1.0000      1.0079
    3   2 H    1      -3.430000   -6.360001   36.288000       1.0000      1.0079
    4   1 O    8       4.440001   -3.700000   29.027998       6.0000     15.9994
    5   2 H    1       3.760000   -3.010000   29.327997       1.0000      1.0079
    6   2 H    1       4.010000   -4.600000   29.457998       1.0000      1.0079
    7   1 O    8       7.750000   25.300003   30.357996       6.0000     15.9994
    8   2 H    1       7.300000   24.480001   30.147997       1.0000      1.0079
    9   2 H    1       8.690001   25.260000   30.038000       1.0000      1.0079
   10   1 O    8      -2.310000    2.730000   35.417997       6.0000     15.9994
   11   2 H    1      -3.260000    2.530000   35.688000       1.0000      1.0079
   12   2 H    1      -2.020000    2.280000   34.577999       1.0000      1.0079
   13   1 O    8      -5.240001  -14.000001   34.517999       6.0000     15.9994
   14   2 H    1      -5.900001  -13.420000   35.028000       1.0000      1.0079
   15   2 H    1      -5.280000  -14.900002   34.957998       1.0000      1.0079
   16   1 O    8      20.660000   -3.430000   32.557998       6.0000     15.9994
   17   2 H    1      21.639999   -3.520000   32.667999       1.0000      1.0079
   18   2 H    1      20.440002   -2.760000   31.887998       1.0000      1.0079
   19   1 O    8      -5.550000    1.140000   33.937998       6.0000     15.9994
   20   2 H    1      -6.290000    0.540000   33.667999       1.0000      1.0079
   21   2 H    1      -5.430000    0.990000   34.917999       1.0000      1.0079
   22   1 O    8      -0.890000    5.840001   38.207998       6.0000     15.9994
   23   2 H    1       0.030000    6.160001   38.448000       1.0000      1.0079
   24   2 H    1      -0.870000    4.940000   38.657999       1.0000      1.0079
   25   1 O    8      -8.430000   -5.050000   38.528000       6.0000     15.9994
   26   2 H    1      -8.270000   -5.640000   37.687998       1.0000      1.0079
   27   2 H    1      -9.380000   -5.110001   38.597999       1.0000      1.0079
   28   1 O    8       9.070001    2.280000   30.017999       6.0000     15.9994
   29   2 H    1       9.190001    1.770000   29.157999       1.0000      1.0079
   30   2 H    1       9.880000    2.870000   30.198000       1.0000      1.0079
   31   1 O    8     -21.240002   25.710001   35.608000       6.0000     15.9994
   32   2 H    1     -21.290001   24.780003   35.937998       1.0000      1.0079
   33   2 H    1      -4.010000   26.230001   36.358000       1.0000      1.0079
   34   1 O    8      -4.330000   15.000001   30.157999       6.0000     15.9994
   35   2 H    1      -4.210001   15.370001   29.207998       1.0000      1.0079
   36   2 H    1      -4.820000   15.640001   30.747999       1.0000      1.0079
   37   1 O    8      -8.230000    4.810000   33.597999       6.0000     15.9994
   38   2 H    1      -8.570001    5.590000   33.137998       1.0000      1.0079
   39   2 H    1      -7.400000    5.130000   33.887998       1.0000      1.0079
   40   1 O    8       7.510000    5.740000   29.117998       6.0000     15.9994
   41   2 H    1       8.280001    6.180000   29.418001       1.0000      1.0079
   42   2 H    1       7.480001    4.890000   29.628000       1.0000      1.0079
   43   1 O    8       9.330000   10.470000   39.097997       6.0000     15.9994
   44   2 H    1       9.050000    9.490001   39.057998       1.0000      1.0079
   45   2 H    1       8.440001   10.810001   39.017999       1.0000      1.0079
   46   1 O    8       0.260000   -5.200000   29.587999       6.0000     15.9994
   47   2 H    1       0.460000   -4.350000   29.977999       1.0000      1.0079
   48   2 H    1      -0.040000   -5.170000   28.657999       1.0000      1.0079
   49   1 O    8       1.520000    3.660000   29.957998       6.0000     15.9994
   50   2 H    1       1.180000    4.590000   29.927999       1.0000      1.0079
   51   2 H    1       1.640000    3.470000   28.988001       1.0000      1.0079
   52   1 O    8     -11.450001   12.640000   37.328001       6.0000     15.9994
   53   2 H    1     -11.650001   13.530001   37.608000       1.0000      1.0079
   54   2 H    1     -10.540000   12.710000   36.878000       1.0000      1.0079
   55   1 O    8       5.060000   14.750000   32.407999       6.0000     15.9994
   56   2 H    1       4.430000   15.270000   32.987997       1.0000      1.0079
   57   2 H    1       4.760000   14.910001   31.448000       1.0000      1.0079
   58   1 O    8      12.250000    0.790000   30.117998       6.0000     15.9994
   59   2 H    1      11.310000    0.500000   29.977999       1.0000      1.0079
   60   2 H    1      12.610001    0.770000   29.207998       1.0000      1.0079
   61   1 O    8      -8.300000    3.440000   37.477999       6.0000     15.9994
   62   2 H    1      -8.550000    2.750000   36.858000       1.0000      1.0079
   63   2 H    1      -8.070001    3.020000   38.377998       1.0000      1.0079
   64   1 O    8      22.800003   -3.400000   35.837999       6.0000     15.9994
   65   2 H    1      21.930000   -3.130000   35.477999       1.0000      1.0079
   66   2 H    1      22.640001   -4.170000   36.408001       1.0000      1.0079
   67   1 O    8     -25.900002   11.620001   32.087999       6.0000     15.9994
   68   2 H    1      -8.460000   12.320002   32.457998       1.0000      1.0079
   69   2 H    1      -9.880000   11.770000   32.628000       1.0000      1.0079
   70   1 O    8      -3.290000   16.780001   34.527998       6.0000     15.9994
   71   2 H    1      -2.600000   16.630001   35.177999       1.0000      1.0079
   72   2 H    1      -3.970000   16.060001   34.608000       1.0000      1.0079
   73   1 O    8       2.320000    8.390000   32.817999       6.0000     15.9994
   74   2 H    1       3.260000    8.680000   32.777998       1.0000      1.0079
   75   2 H    1       2.130000    8.070001   31.917999       1.0000      1.0079
   76   1 O    8      14.080001    5.160000   34.127998       6.0000     15.9994
   77   2 H    1      14.220000    4.270000   34.497999       1.0000      1.0079
   78   2 H    1      14.270000    5.790000   34.827997       1.0000      1.0079
   79   1 O    8       4.500000   10.990001   29.177999       6.0000     15.9994
   80   2 H    1       3.520000   11.070000   29.508001       1.0000      1.0079
   81   2 H    1       4.850000   10.310000   29.777998       1.0000      1.0079
   82   1 O    8      -0.700000   16.150002   36.058000       6.0000     15.9994
   83   2 H    1      -0.690000   15.280001   36.417999       1.0000      1.0079
   84   2 H    1      -0.290000   16.250002   35.187998       1.0000      1.0079
   85   1 O    8     -11.880001    9.040001   32.628000       6.0000     15.9994
   86   2 H    1     -11.440001    8.910000   31.727999       1.0000      1.0079
   87   2 H    1     -11.620001   10.010000   32.868000       1.0000      1.0079
   88   1 O    8       6.860001   -1.070000   33.347997       6.0000     15.9994
   89   2 H    1       6.320000   -0.780000   34.087999       1.0000      1.0079
   90   2 H    1       6.500000   -0.430000   32.647999       1.0000      1.0079
   91   1 O    8      -9.780001    3.800000   30.577999       6.0000     15.9994
   92   2 H    1     -10.590000    3.450000   30.127996       1.0000      1.0079
   93   2 H    1      -9.050000    3.160000   30.347998       1.0000      1.0079
   94   1 O    8     -10.150002   11.280001   39.407999       6.0000     15.9994
   95   2 H    1       6.070001   10.559999   39.527998       1.0000      1.0079
   96   2 H    1     -10.670000   11.830001   38.737999       1.0000      1.0079
   97   1 O    8       2.110000    7.770000   30.027998       6.0000     15.9994
   98   2 H    1       1.280000    7.130001   29.987997       1.0000      1.0079
   99   2 H    1       2.080000    8.100000   29.087999       1.0000      1.0079
  100   1 O    8      10.510000   -3.210000   30.207998       6.0000     15.9994
  101   2 H    1       1.900000   12.410001   30.308000       1.0000      1.0079
  102   2 H    1      10.430001   -3.560000   31.128000       1.0000      1.0079
  103   1 O    8       9.370001   18.360001   32.927999       6.0000     15.9994
  104   2 H    1       8.780001   18.650002   32.197998       1.0000      1.0079
  105   2 H    1       9.780001   19.120001   33.377998       1.0000      1.0079
  106   1 O    8       8.560000   -6.360001   36.227999       6.0000     15.9994
  107   2 H    1       8.580000   -5.740000   35.368000       1.0000      1.0079
  108   2 H    1       7.800000   -6.980000   36.118000       1.0000      1.0079
  109   1 O    8      -3.090000    8.590000   33.957998       6.0000     15.9994
  110   2 H    1      -2.800000    8.150001   34.757997       1.0000      1.0079
  111   2 H    1      -2.620000    9.520000   33.807998       1.0000      1.0079
  112   1 O    8      -7.850000   13.710001   33.637998       6.0000     15.9994
  113   2 H    1      -8.340000   14.560001   33.698000       1.0000      1.0079
  114   2 H    1      -8.140000   13.200001   34.517999       1.0000      1.0079
  115   1 O    8      23.630001   -6.370000   29.957998       6.0000     15.9994
  116   2 H    1      23.230001   -6.290000   29.037996       1.0000      1.0079
  117   2 H    1      24.320002   -7.060000   29.887998       1.0000      1.0079
  118   1 O    8       9.240000   -2.360000   38.698000       6.0000     15.9994
  119   2 H    1       0.580000   12.640000   37.787998       1.0000      1.0079
  120   2 H    1       8.880001   -3.250000   38.558000       1.0000      1.0079
  121   1 O    8      -4.750000    4.650001   38.837999       6.0000     15.9994
  122   2 H    1      -5.560000    4.870000   39.407999       1.0000      1.0079
  123   2 H    1      -4.120000    5.420001   39.118000       1.0000      1.0079
  124   1 O    8       6.060000    7.970000   35.057998       6.0000     15.9994
  125   2 H    1       6.170001    7.010000   34.847999       1.0000      1.0079
  126   2 H    1       5.830000    8.480000   34.227999       1.0000      1.0079
  127   1 O    8       3.210000    0.090000   38.207998       6.0000     15.9994
  128   2 H    1       4.160000    0.390000   38.038000       1.0000      1.0079
  129   2 H    1       2.690000    0.970000   38.388000       1.0000      1.0079
  130   1 O    8      -4.050000   23.730001   39.677999       6.0000     15.9994
  131   2 H    1      -3.460000   23.390003   40.377998       1.0000      1.0079
  132   2 H    1      -4.940000   23.410000   39.817999       1.0000      1.0079
  133   1 O    8       5.790000   17.910002   29.878000       6.0000     15.9994
  134   2 H    1       6.190000   17.030001   29.707998       1.0000      1.0079
  135   2 H    1       4.850000   17.680000   29.907999       1.0000      1.0079
  136   1 O    8      17.260000    9.760000   33.858000       6.0000     15.9994
  137   2 H    1      16.510000   10.020000   33.237999       1.0000      1.0079
  138   2 H    1      17.840000    9.030001   33.558000       1.0000      1.0079
  139   1 O    8     -10.840001    8.860001   30.057997       6.0000     15.9994
  140   2 H    1      -9.910001    9.160001   30.047998       1.0000      1.0079
  141   2 H    1     -10.890001    7.880001   30.108000       1.0000      1.0079
  142   1 O    8      -5.190001    8.880001   30.108000       6.0000     15.9994
  143   2 H    1      -5.310000    8.380001   30.958000       1.0000      1.0079
  144   2 H    1      -6.110000    8.980000   29.698000       1.0000      1.0079
  145   1 O    8       2.670000   18.830002   36.467998       6.0000     15.9994
  146   2 H    1      10.200001    4.040000   36.567999       1.0000      1.0079
  147   2 H    1     -13.860001   19.180000   37.368000       1.0000      1.0079
  148   1 O    8       9.510000   -0.890000   32.958000       6.0000     15.9994
  149   2 H    1       9.860001   -1.330000   33.837999       1.0000      1.0079
  150   2 H    1       8.550000   -0.800000   33.227999       1.0000      1.0079
  151   1 O    8      13.710001    9.370001   39.598001       6.0000     15.9994
  152   2 H    1      13.010001    9.840000   40.137998       1.0000      1.0079
  153   2 H    1      13.700001    8.390000   39.927999       1.0000      1.0079
  154   1 O    8      -8.560000   15.860001   30.277998       6.0000     15.9994
  155   2 H    1      -8.340000   16.170002   29.378000       1.0000      1.0079
  156   2 H    1      -7.790000   16.220001   30.797998       1.0000      1.0079
  157   1 O    8       1.500000   12.140001   35.217998       6.0000     15.9994
  158   2 H    1       1.100000   11.340000   34.778000       1.0000      1.0079
  159   2 H    1       2.370000   11.820001   35.528000       1.0000      1.0079
  160   1 O    8     -14.040001   -1.890000   30.198000       6.0000     15.9994
  161   2 H    1     -14.980001   -1.710000   29.977999       1.0000      1.0079
  162   2 H    1     -13.660001   -0.960000   30.187998       1.0000      1.0079
  163   1 O    8       2.860000   23.850002   35.737999       6.0000     15.9994
  164   2 H    1       2.760000   23.750000   34.808000       1.0000      1.0079
  165   2 H    1       2.010000   23.910000   36.188000       1.0000      1.0079
  166   1 O    8       2.710000   -8.700001   34.157999       6.0000     15.9994
  167   2 H    1       3.640000   -8.410000   33.837999       1.0000      1.0079
  168   2 H    1       2.880000   -9.280001   34.968000       1.0000      1.0079
  169   1 O    8      -7.500000    1.940000   39.547998       6.0000     15.9994
  170   2 H    1      -8.190001    2.030000   40.228000       1.0000      1.0079
  171   2 H    1      -7.630000    1.030000   39.227999       1.0000      1.0079
  172   1 O    8       6.840000   19.550001   31.618000       6.0000     15.9994
  173   2 H    1      14.910001    5.160000   32.507999       1.0000      1.0079
  174   2 H    1       6.390000   18.720001   31.257999       1.0000      1.0079
  175   1 O    8      -2.290000    6.840000   36.207998       6.0000     15.9994
  176   2 H    1      -1.800000    6.370000   36.938000       1.0000      1.0079
  177   2 H    1      -2.730000    7.620000   36.657999       1.0000      1.0079
  178   1 O    8      -4.030000    6.050000   29.337999       6.0000     15.9994
  179   2 H    1      -4.270000    7.000000   29.418001       1.0000      1.0079
  180   2 H    1      -3.070000    6.070001   29.418001       1.0000      1.0079
  181   1 O    8       7.230001   -1.250000   29.997999       6.0000     15.9994
  182   2 H    1       7.380000   -2.230000   30.297998       1.0000      1.0079
  183   2 H    1       6.790000   -1.370000   29.087999       1.0000      1.0079
  184   1 O    8       1.660000   13.820001   30.168001       6.0000     15.9994
  185   2 H    1       1.240000   14.120001   30.988001       1.0000      1.0079
  186   2 H    1       9.300001   -0.620000   29.558000       1.0000      1.0079
  187   1 O    8       8.200001   13.240002   29.907999       6.0000     15.9994
  188   2 H    1       7.970000   12.730000   30.747999       1.0000      1.0079
  189   2 H    1       8.310000   14.240000   30.098001       1.0000      1.0079
  190   1 O    8       5.530000   12.260000   33.628000       6.0000     15.9994
  191   2 H    1       5.150001   13.120001   33.347997       1.0000      1.0079
  192   2 H    1       5.060000   11.850000   34.327999       1.0000      1.0079
  193   1 O    8       5.570001    4.130000   32.847997       6.0000     15.9994
  194   2 H    1       6.300001    3.980000   32.238001       1.0000      1.0079
  195   2 H    1       5.590000    3.300000   33.367998       1.0000      1.0079
  196   1 O    8      -8.420001    5.990000   36.868000       6.0000     15.9994
  197   2 H    1      -7.510000    6.200000   36.467998       1.0000      1.0079
  198   2 H    1      -8.380001    5.090000   37.198000       1.0000      1.0079
  199   1 O    8      13.870001    1.080000   38.418001       6.0000     15.9994
  200   2 H    1      14.830000    1.010000   38.467998       1.0000      1.0079
  201   2 H    1      -3.410000    1.310000   39.227999       1.0000      1.0079
  202   1 O    8      -9.120001  -12.540001   37.278000       6.0000     15.9994
  203   2 H    1      -9.850000  -12.260000   36.697998       1.0000      1.0079
  204   2 H    1      -8.230000  -12.370001   36.897999       1.0000      1.0079
  205   1 O    8     -14.760000    6.670001   37.087999       6.0000     15.9994
  206   2 H    1     -15.430001    7.210000   36.578001       1.0000      1.0079
  207   2 H    1     -13.980001    7.220001   37.077999       1.0000      1.0079
  208   1 O    8       4.130000    3.910000   30.468000       6.0000     15.9994
  209   2 H    1       4.350000    4.030000   31.457998       1.0000      1.0079
  210   2 H    1       3.170000    3.800000   30.328001       1.0000      1.0079
  211   1 O    8      16.260000   13.240002   36.537998       6.0000     15.9994
  212   2 H    1      17.030001   12.940001   35.958000       1.0000      1.0079
  213   2 H    1      15.620001   12.440001   36.437998       1.0000      1.0079
  214   1 O    8      13.460001   38.340000   37.187998       6.0000     15.9994
  215   2 H    1      12.520000   38.440002   36.917999       1.0000      1.0079
  216   2 H    1      13.550000   38.530003   38.198000       1.0000      1.0079
  217   1 O    8       2.260000    5.900001   33.978000       6.0000     15.9994
  218   2 H    1      -6.110000   21.410000   33.587999       1.0000      1.0079
  219   2 H    1       2.170000    6.180000   34.907999       1.0000      1.0079
  220   1 O    8       1.420000    2.200000   35.427999       6.0000     15.9994
  221   2 H    1      -7.430000   17.150000   34.627998       1.0000      1.0079
  222   2 H    1      -6.720000   17.610001   35.977999       1.0000      1.0079
  223   1 O    8     -13.510000   11.900001   39.887998       6.0000     15.9994
  224   2 H    1     -14.470000   11.900001   39.608000       1.0000      1.0079
  225   2 H    1     -13.260001   10.950001   39.987999       1.0000      1.0079
  226   1 O    8      -0.380000    3.610000   39.468000       6.0000     15.9994
  227   2 H    1      -0.610000    2.980000   38.677999       1.0000      1.0079
  228   2 H    1      -0.980000    3.410000   40.237999       1.0000      1.0079
  229   1 O    8      12.320002    3.380000   32.807998       6.0000     15.9994
  230   2 H    1      12.100000    4.100000   33.397999       1.0000      1.0079
  231   2 H    1      11.840000    2.660000   33.237999       1.0000      1.0079
  232   1 O    8     -12.330000    6.150000   29.257997       6.0000     15.9994
  233   2 H    1     -13.100000    6.730001   29.418001       1.0000      1.0079
  234   2 H    1     -12.440001    5.290000   29.867998       1.0000      1.0079
  235   1 O    8       0.150000   -6.830000   38.927999       6.0000     15.9994
  236   2 H    1      -0.680000   -7.110000   39.378000       1.0000      1.0079
  237   2 H    1       0.030000   -7.280001   38.028000       1.0000      1.0079
  238   1 O    8      -0.130000    6.060000   29.837999       6.0000     15.9994
  239   2 H    1      -0.760000    5.700001   30.468000       1.0000      1.0079
  240   2 H    1      -0.510000    5.800000   28.948000       1.0000      1.0079
  241   1 O    8       2.110000    2.440000   39.278000       6.0000     15.9994
  242   2 H    1       1.250000    2.550000   39.738001       1.0000      1.0079
  243   2 H    1       2.100000    3.100000   38.517999       1.0000      1.0079
  244   1 O    8     -10.500001    0.890000   31.397999       6.0000     15.9994
  245   2 H    1     -11.230000    0.970000   30.847998       1.0000      1.0079
  246   2 H    1      -9.800000    0.530000   30.757999       1.0000      1.0079
  247   1 O    8      19.280001    1.400000   32.017999       6.0000     15.9994
  248   2 H    1      19.380001    0.970000   32.958000       1.0000      1.0079
  249   2 H    1      19.040001    2.370000   32.247999       1.0000      1.0079
  250   1 O    8     -11.690001    4.320000   37.387998       6.0000     15.9994
  251   2 H    1     -11.220001    4.700000   36.597997       1.0000      1.0079
  252   2 H    1     -11.390000    3.340000   37.407999       1.0000      1.0079
  253   1 O    8      11.820001   12.700001   35.087999       6.0000     15.9994
  254   2 H    1      11.120001   12.210001   35.587999       1.0000      1.0079
  255   2 H    1      11.880001   12.360001   34.177999       1.0000      1.0079
  256   1 O    8       3.680000  -13.140000   36.578001       6.0000     15.9994
  257   2 H    1       3.360000  -12.180000   36.608000       1.0000      1.0079
  258   2 H    1       4.360000  -13.160001   37.347999       1.0000      1.0079
  259   1 O    8      -1.880000   10.950001   32.847997       6.0000     15.9994
  260   2 H    1      -1.690000   11.880001   33.147999       1.0000      1.0079
  261   2 H    1      -1.490000   10.810001   31.957998       1.0000      1.0079
  262   1 O    8      -4.310000    6.900001   31.967998       6.0000     15.9994
  263   2 H    1      -3.670000    6.470000   31.448000       1.0000      1.0079
  264   2 H    1      -3.780000    7.420001   32.657999       1.0000      1.0079
  265   1 O    8       1.190000   21.290001   30.147997       6.0000     15.9994
  266   2 H    1       1.720000   20.680000   30.717998       1.0000      1.0079
  267   2 H    1       1.660000   21.530001   29.267999       1.0000      1.0079
  268   1 O    8       2.440000    4.170000   37.168001       6.0000     15.9994
  269   2 H    1      -5.000000   18.680000   37.267999       1.0000      1.0079
  270   2 H    1       2.240000    5.120000   37.138000       1.0000      1.0079
  271   1 O    8     -10.210000    5.750000   39.477999       6.0000     15.9994
  272   2 H    1      -9.630001    5.170000   39.977999       1.0000      1.0079
  273   2 H    1     -10.290001    5.310000   38.637998       1.0000      1.0079
  274   1 O    8       7.240000   16.010000   33.277998       6.0000     15.9994
  275   2 H    1       7.640000   16.490000   32.517999       1.0000      1.0079
  276   2 H    1       6.450000   15.600000   32.858000       1.0000      1.0079
  277   1 O    8      -0.030000   16.850000   33.447998       6.0000     15.9994
  278   2 H    1       0.010000   17.780001   33.377998       1.0000      1.0079
  279   2 H    1      -0.730000   16.490000   32.868000       1.0000      1.0079
  280   1 O    8      -2.040000   19.980001   35.137998       6.0000     15.9994
  281   2 H    1      -2.380000   19.580000   34.247999       1.0000      1.0079
  282   2 H    1      -1.060000   20.010002   35.087999       1.0000      1.0079
  283   1 O    8      -8.730000    9.730001   35.567999       6.0000     15.9994
  284   2 H    1      -8.290001    9.480001   34.717998       1.0000      1.0079
  285   2 H    1      -9.510000    9.110001   35.538000       1.0000      1.0079
  286   1 O    8      -0.410000   -2.080000   36.218000       6.0000     15.9994
  287   2 H    1      -0.580000   -3.000000   35.907999       1.0000      1.0079
  288   2 H    1       0.420000   -1.880000   36.677999       1.0000      1.0079
  289   1 O    8      10.880001    4.230000   30.637998       6.0000     15.9994
  290   2 H    1      11.360001    4.420000   29.837999       1.0000      1.0079
  291   2 H    1      11.480000    3.990000   31.457998       1.0000      1.0079
  292   1 O    8       1.200000   -4.990000   32.757997       6.0000     15.9994
  293   2 H    1       2.050000   -4.590000   32.737999       1.0000      1.0079
  294   2 H    1       0.590000   -4.190001   32.647999       1.0000      1.0079
  295   1 O    8      10.400001   12.430000   37.567999       6.0000     15.9994
  296   2 H    1      -6.800000   11.820001   38.227999       1.0000      1.0079
  297   2 H    1      10.900001   13.210001   37.868000       1.0000      1.0079
  298   1 O    8      -8.960000    7.260000   32.387998       6.0000     15.9994
  299   2 H    1      -8.440001    8.070001   32.597999       1.0000      1.0079
  300   2 H    1      -8.580000    7.100000   31.497999       1.0000      1.0079
  301   1 O    8      -2.830000   -1.100000   29.067999       6.0000     15.9994
  302   2 H    1      -3.180000   -2.040000   29.327997       1.0000      1.0079
  303   2 H    1      -1.800000   -1.140000   29.448000       1.0000      1.0079
  304   1 O    8     -11.070000    0.650000   38.797998       6.0000     15.9994
  305   2 H    1     -10.400001    0.170000   39.288000       1.0000      1.0079
  306   2 H    1     -11.430000    1.310000   39.387998       1.0000      1.0079
  307   3 Pt  78       1.720000    0.890000   26.867998      10.0000    195.0840
  308   3 Pt  78       4.420000    0.750000   27.008001      10.0000    195.0840
  309   3 Pt  78       7.250000    0.760000   27.017999      10.0000    195.0840
  310   3 Pt  78       9.930000    0.860000   27.047998      10.0000    195.0840
  311   3 Pt  78      12.890000    0.980000   26.778002      10.0000    195.0840
  312   3 Pt  78      15.770000    0.930000   26.907999      10.0000    195.0840
  313   3 Pt  78       3.200000    3.210000   26.837999      10.0000    195.0840
  314   3 Pt  78       5.920000    3.160000   26.918001      10.0000    195.0840
  315   3 Pt  78       8.580000    3.280000   26.957998      10.0000    195.0840
  316   3 Pt  78      11.310000    3.300000   26.967996      10.0000    195.0840
  317   3 Pt  78      14.290000    3.390000   26.827997      10.0000    195.0840
  318   3 Pt  78       0.260000    3.300000   26.907999      10.0000    195.0840
  319   3 Pt  78       4.400000    5.670000   27.027998      10.0000    195.0840
  320   3 Pt  78       7.300000    5.660000   26.948000      10.0000    195.0840
  321   3 Pt  78       9.930000    5.700001   26.848001      10.0000    195.0840
  322   3 Pt  78      12.830001    5.670000   26.907999      10.0000    195.0840
  323   3 Pt  78      -1.230000    5.720000   26.788000      10.0000    195.0840
  324   3 Pt  78       1.590000    5.700001   26.907999      10.0000    195.0840
  325   3 Pt  78       5.700001    8.130000   27.067999      10.0000    195.0840
  326   3 Pt  78       8.590000    8.120001   26.778002      10.0000    195.0840
  327   3 Pt  78      11.510000    8.110001   26.807997      10.0000    195.0840
  328   3 Pt  78      -2.610000    8.130000   26.827997      10.0000    195.0840
  329   3 Pt  78       0.090000    8.120001   26.807997      10.0000    195.0840
  330   3 Pt  78       2.900000    8.170000   26.878000      10.0000    195.0840
  331   3 Pt  78       7.100000   10.670000   26.948000      10.0000    195.0840
  332   3 Pt  78       9.960001   10.580001   27.027998      10.0000    195.0840
  333   3 Pt  78      -4.150000   10.570001   26.897997      10.0000    195.0840
  334   3 Pt  78      -1.090000   10.650001   26.878000      10.0000    195.0840
  335   3 Pt  78       1.680000   10.610001   26.807997      10.0000    195.0840
  336   3 Pt  78       4.260000   10.480001   27.058000      10.0000    195.0840
  337   3 Pt  78       8.500000   13.170000   27.017999      10.0000    195.0840
  338   3 Pt  78      -5.520000   12.950001   26.927999      10.0000    195.0840
  339   3 Pt  78      -2.640000   12.960000   26.937998      10.0000    195.0840
  340   3 Pt  78       0.240000   13.050001   26.988001      10.0000    195.0840
  341   3 Pt  78       2.940000   13.090000   26.848001      10.0000    195.0840
  342   3 Pt  78       5.760000   13.070001   26.937998      10.0000    195.0840
  343   3 Pt  78       0.270000    1.620000   24.608000      10.0000    195.0840
  344   3 Pt  78       2.900000    1.490000   24.578001      10.0000    195.0840
  345   3 Pt  78       5.750000    1.580000   24.587999      10.0000    195.0840
  346   3 Pt  78       8.590000    1.550000   24.578001      10.0000    195.0840
  347   3 Pt  78      11.380000    1.530000   24.477999      10.0000    195.0840
  348   3 Pt  78      14.370001    1.570000   24.467996      10.0000    195.0840
  349   3 Pt  78       1.690000    4.120000   24.497999      10.0000    195.0840
  350   3 Pt  78       4.520000    4.050000   24.547998      10.0000    195.0840
  351   3 Pt  78       7.280001    4.020000   24.527998      10.0000    195.0840
  352   3 Pt  78       9.970000    3.980000   24.517999      10.0000    195.0840
  353   3 Pt  78      12.880001    3.950000   24.508001      10.0000    195.0840
  354   3 Pt  78      -1.180000    4.030000   24.497999      10.0000    195.0840
  355   3 Pt  78       3.100000    6.440001   24.537996      10.0000    195.0840
  356   3 Pt  78       5.910000    6.450000   24.687998      10.0000    195.0840
  357   3 Pt  78       8.600000    6.390000   24.477999      10.0000    195.0840
  358   3 Pt  78      11.350001    6.410000   24.578001      10.0000    195.0840
  359   3 Pt  78      -2.580000    6.380000   24.397997      10.0000    195.0840
  360   3 Pt  78       0.280000    6.510000   24.497999      10.0000    195.0840
  361   3 Pt  78       4.320000    8.890000   24.537996      10.0000    195.0840
  362   3 Pt  78       7.200000    8.900001   24.537996      10.0000    195.0840
  363   3 Pt  78       9.950001    8.850000   24.517999      10.0000    195.0840
  364   3 Pt  78      -3.970000    8.880001   24.558000      10.0000    195.0840
  365   3 Pt  78      -1.230000    8.890000   24.448000      10.0000    195.0840
  366   3 Pt  78       1.540000    9.040001   24.537996      10.0000    195.0840
  367   3 Pt  78       5.820000   11.310000   24.657999      10.0000    195.0840
  368   3 Pt  78       8.530001   11.400002   24.597998      10.0000    195.0840
  369   3 Pt  78      -5.450000   11.430000   24.597998      10.0000    195.0840
  370   3 Pt  78      -2.480000   11.310000   24.567999      10.0000    195.0840
  371   3 Pt  78       0.220000   11.410000   24.508001      10.0000    195.0840
  372   3 Pt  78       3.110000   11.360001   24.587999      10.0000    195.0840
  373   3 Pt  78       7.220001   13.810000   24.608000      10.0000    195.0840
  374   3 Pt  78      -6.870000   13.780001   24.517999      10.0000    195.0840
  375   3 Pt  78      -4.010000   13.720001   24.558000      10.0000    195.0840
  376   3 Pt  78      -1.170000   13.820001   24.567999      10.0000    195.0840
  377   3 Pt  78       1.650000   13.770000   24.407999      10.0000    195.0840
  378   3 Pt  78       4.480000   13.730000   24.587999      10.0000    195.0840
  379   3 Pt  78      -8.300000   14.530001   22.267999      10.0000    195.0840
  380   3 Pt  78      -5.490000   14.540001   22.308000      10.0000    195.0840
  381   3 Pt  78      -2.620000   14.500000   22.277998      10.0000    195.0840
  382   3 Pt  78       0.110000   14.420000   22.187998      10.0000    195.0840
  383   3 Pt  78       3.030000   14.500000   22.198000      10.0000    195.0840
  384   3 Pt  78       5.830000   14.520000   22.147997      10.0000    195.0840
  385   3 Pt  78       1.550000    2.450000   22.297998      10.0000    195.0840
  386   3 Pt  78       4.430000    2.430000   22.267999      10.0000    195.0840
  387   3 Pt  78       7.230001    2.330000   22.128000      10.0000    195.0840
  388   3 Pt  78       9.980000    2.150000   22.177999      10.0000    195.0840
  389   3 Pt  78      12.840000    2.240000   22.147997      10.0000    195.0840
  390   3 Pt  78      -1.250000    2.360000   22.207998      10.0000    195.0840
  391   3 Pt  78       3.090000    4.810000   22.267999      10.0000    195.0840
  392   3 Pt  78       5.910000    4.800000   22.227999      10.0000    195.0840
  393   3 Pt  78       8.730000    4.740000   22.147997      10.0000    195.0840
  394   3 Pt  78      11.380000    4.760000   22.168001      10.0000    195.0840
  395   3 Pt  78      -2.680000    4.740000   22.187998      10.0000    195.0840
  396   3 Pt  78       0.210000    4.760000   22.267999      10.0000    195.0840
  397   3 Pt  78       4.420000    7.300000   22.187998      10.0000    195.0840
  398   3 Pt  78       7.230001    7.180000   22.207998      10.0000    195.0840
  399   3 Pt  78      10.040001    7.290000   22.217996      10.0000    195.0840
  400   3 Pt  78      -4.090000    7.200000   22.207998      10.0000    195.0840
  401   3 Pt  78      -1.170000    7.140000   22.177999      10.0000    195.0840
  402   3 Pt  78       1.600000    7.200000   22.277998      10.0000    195.0840
  403   3 Pt  78       5.800000    9.730001   22.198000      10.0000    195.0840
  404   3 Pt  78       8.620001    9.650001   22.277998      10.0000    195.0840
  405   3 Pt  78      -5.440001    9.650001   22.337999      10.0000    195.0840
  406   3 Pt  78      -2.640000    9.540001   22.227999      10.0000    195.0840
  407   3 Pt  78       0.230000    9.550000   22.187998      10.0000    195.0840
  408   3 Pt  78       3.020000    9.690001   22.147997      10.0000    195.0840
  409   3 Pt  78       7.180000   12.160001   22.217996      10.0000    195.0840
  410   3 Pt  78      -6.910000   12.150001   22.317999      10.0000    195.0840
  411   3 Pt  78      -4.070000   12.070000   22.207998      10.0000    195.0840
  412   3 Pt  78      -1.280000   11.950001   22.147997      10.0000    195.0840
  413   3 Pt  78       1.580000   12.120000   22.177999      10.0000    195.0840
  414   3 Pt  78       4.310000   12.160001   22.207998      10.0000    195.0840
  415   3 Pt  78       1.530000    0.730000   20.030000      10.0000    195.0840
  416   3 Pt  78       4.380000    0.610000   20.020000      10.0000    195.0840
  417   3 Pt  78       7.200000    0.700000   19.910000      10.0000    195.0840
  418   3 Pt  78       9.890000    0.670000   19.850000      10.0000    195.0840
  419   3 Pt  78      12.820001    0.640000   19.810000      10.0000    195.0840
  420   3 Pt  78      15.600000    0.690000   19.900000      10.0000    195.0840
  421   3 Pt  78       3.060000    3.040000   19.880000      10.0000    195.0840
  422   3 Pt  78       5.670000    3.120000   19.790000      10.0000    195.0840
  423   3 Pt  78       8.500000    3.230000   19.900000      10.0000    195.0840
  424   3 Pt  78      11.290001    3.100000   19.940000      10.0000    195.0840
  425   3 Pt  78      14.170000    3.090000   19.850000      10.0000    195.0840
  426   3 Pt  78       0.200000    3.100000   19.900000      10.0000    195.0840
  427   3 Pt  78       4.360000    5.600000   19.930000      10.0000    195.0840
  428   3 Pt  78       7.120000    5.650000   19.880000      10.0000    195.0840
  429   3 Pt  78       9.890000    5.650000   19.870000      10.0000    195.0840
  430   3 Pt  78      12.720001    5.560000   19.920000      10.0000    195.0840
  431   3 Pt  78      -1.200000    5.560000   19.930000      10.0000    195.0840
  432   3 Pt  78       1.620000    5.460000   19.950000      10.0000    195.0840
  433   3 Pt  78       5.800000    8.070001   19.890000      10.0000    195.0840
  434   3 Pt  78       8.590000    8.040000   19.900000      10.0000    195.0840
  435   3 Pt  78      11.410000    8.000000   19.890000      10.0000    195.0840
  436   3 Pt  78      -2.660000    7.890000   19.940000      10.0000    195.0840
  437   3 Pt  78       0.200000    7.960001   19.930000      10.0000    195.0840
  438   3 Pt  78       2.930000    8.000000   19.910000      10.0000    195.0840
  439   3 Pt  78       7.170000   10.520000   19.970000      10.0000    195.0840
  440   3 Pt  78      10.000000   10.470000   20.050000      10.0000    195.0840
  441   3 Pt  78      -4.040000   10.430001   19.990000      10.0000    195.0840
  442   3 Pt  78      -1.270000   10.370001   19.850000      10.0000    195.0840
  443   3 Pt  78       1.530000   10.460000   19.810000      10.0000    195.0840
  444   3 Pt  78       4.340000   10.450001   19.940000      10.0000    195.0840
  445   3 Pt  78       8.560000   12.890000   19.820000      10.0000    195.0840
  446   3 Pt  78      -5.520000   12.850000   20.090000      10.0000    195.0840
  447   3 Pt  78      -2.640000   12.850000   19.850000      10.0000    195.0840
  448   3 Pt  78       0.050000   12.790001   19.830000      10.0000    195.0840
  449   3 Pt  78       2.870000   12.900001   19.800000      10.0000    195.0840
  450   3 Pt  78       5.750000   12.880001   19.800000      10.0000    195.0840
  451   3 Pt  78       0.010000    1.450000   17.630000      10.0000    195.0840
  452   3 Pt  78       2.880000    1.460000   17.600000      10.0000    195.0840
  453   3 Pt  78       5.690000    1.540000   17.480000      10.0000    195.0840
  454   3 Pt  78       8.390000    1.520000   17.580000      10.0000    195.0840
  455   3 Pt  78      11.330000    1.510000   17.530000      10.0000    195.0840
  456   3 Pt  78      14.030001    1.530000   17.480000      10.0000    195.0840
  457   3 Pt  78       1.520000    3.850000   17.600000      10.0000    195.0840
  458   3 Pt  78       4.270000    3.890000   17.540000      10.0000    195.0840
  459   3 Pt  78       7.060000    4.060000   17.580000      10.0000    195.0840
  460   3 Pt  78       9.900001    3.990000   17.670000      10.0000    195.0840
  461   3 Pt  78      12.770000    3.890000   17.620000      10.0000    195.0840
  462   3 Pt  78      -1.310000    3.870000   17.640000      10.0000    195.0840
  463   3 Pt  78       2.950000    6.320000   17.620000      10.0000    195.0840
  464   3 Pt  78       5.590000    6.410000   17.640000      10.0000    195.0840
  465   3 Pt  78       8.520000    6.420000   17.480000      10.0000    195.0840
  466   3 Pt  78      11.390000    6.310000   17.510000      10.0000    195.0840
  467   3 Pt  78      -2.630000    6.400001   17.620000      10.0000    195.0840
  468   3 Pt  78       0.230000    6.260000   17.680000      10.0000    195.0840
  469   3 Pt  78       4.310000    8.860001   17.570000      10.0000    195.0840
  470   3 Pt  78       7.060000    8.930000   17.680000      10.0000    195.0840
  471   3 Pt  78      10.060000    8.880001   17.600000      10.0000    195.0840
  472   3 Pt  78      -4.020000    8.810000   17.640000      10.0000    195.0840
  473   3 Pt  78      -1.210000    8.760000   17.530000      10.0000    195.0840
  474   3 Pt  78       1.470000    8.830000   17.520000      10.0000    195.0840
  475   3 Pt  78       5.670000   11.310000   17.530000      10.0000    195.0840
  476   3 Pt  78       8.530001   11.290001   17.580000      10.0000    195.0840
  477   3 Pt  78      -5.420001   11.180000   17.790000      10.0000    195.0840
  478   3 Pt  78      -2.590000   11.190001   17.630000      10.0000    195.0840
  479   3 Pt  78       0.140000   11.330000   17.490000      10.0000    195.0840
  480   3 Pt  78       2.940000   11.240001   17.620000      10.0000    195.0840
  481   3 Pt  78       7.060000   13.700001   17.450000      10.0000    195.0840
  482   3 Pt  78      -6.890000   13.700001   17.640000      10.0000    195.0840
  483   3 Pt  78      -4.180000   13.580000   17.670000      10.0000    195.0840
  484   3 Pt  78      -1.390000   13.730000   17.530000      10.0000    195.0840
  485   3 Pt  78       1.440000   13.760000   17.530000      10.0000    195.0840
  486   3 Pt  78       4.240000   13.720001   17.470000      10.0000    195.0840
  487   3 Pt  78      -8.300000   14.380001   15.230000      10.0000    195.0840
  488   3 Pt  78      -5.490000   14.420000   15.330000      10.0000    195.0840
  489   3 Pt  78      -2.800000   14.610001   15.250000      10.0000    195.0840
  490   3 Pt  78       0.080000   14.460001   15.170000      10.0000    195.0840
  491   3 Pt  78       3.000000   14.590001   15.180000      10.0000    195.0840
  492   3 Pt  78       5.720000   14.520000   15.160000      10.0000    195.0840
  493   3 Pt  78       1.440000    2.260000   15.270000      10.0000    195.0840
  494   3 Pt  78       4.240000    2.350000   15.240000      10.0000    195.0840
  495   3 Pt  78       7.150001    2.280000   15.130000      10.0000    195.0840
  496   3 Pt  78       9.980000    2.340000   15.420000      10.0000    195.0840
  497   3 Pt  78      12.690001    2.420000   15.000000      10.0000    195.0840
  498   3 Pt  78      -1.330000    2.210000   15.200000      10.0000    195.0840
  499   3 Pt  78       2.930000    4.810000   15.130000      10.0000    195.0840
  500   3 Pt  78       5.680000    4.810000   15.210001      10.0000    195.0840
  501   3 Pt  78       8.440001    4.790000   15.320000      10.0000    195.0840
  502   3 Pt  78      11.330000    4.750000   15.170000      10.0000    195.0840
  503   3 Pt  78      -2.760000    4.610000   15.370000      10.0000    195.0840
  504   3 Pt  78       0.050000    4.690000   15.310000      10.0000    195.0840
  505   3 Pt  78       4.250000    7.230001   15.250000      10.0000    195.0840
[...]
 flops    20 x    13 x    96           4888865280       0.0%    100.0%      0.0%
 flops    13 x    20 x    96           4914124800       0.0%    100.0%      0.0%
 flops    20 x    13 x   100           5092568000       0.0%    100.0%      0.0%
 flops    13 x    20 x   100           5118880000       0.0%    100.0%      0.0%
 flops     5 x    20 x    96           5212204800       0.0%    100.0%      0.0%
 flops    20 x     5 x    96           5213971200       0.0%    100.0%      0.0%
 flops    13 x    32 x     5           5265952640       0.0%    100.0%      0.0%
 flops     5 x    32 x    13           5265952640       0.0%    100.0%      0.0%
 flops     5 x    20 x   100           5429380000       0.0%    100.0%      0.0%
 flops    20 x     5 x   100           5431220000       0.0%    100.0%      0.0%
 flops    13 x    32 x    13           6208340736       0.0%    100.0%      0.0%
 flops    13 x    32 x    20           8808483840       0.0%    100.0%      0.0%
 flops    20 x    32 x    13           8808483840       0.0%    100.0%      0.0%
 flops     5 x    32 x    20           9368448000       0.0%    100.0%      0.0%
 flops    20 x    32 x     5           9368448000       0.0%    100.0%      0.0%
 flops    20 x    20 x    96          41397350400       0.0%    100.0%      0.0%
 flops     5 x     5 x   128          43076902400       0.0%    100.0%      0.0%
 flops    20 x    20 x   100          43122240000       0.0%    100.0%      0.0%
 flops     5 x    13 x   128          54689922560       0.0%    100.0%      0.0%
 flops    13 x     5 x   128          54705996800       0.0%    100.0%      0.0%
 flops    13 x    13 x   128          65197117440       0.0%    100.0%      0.0%
 flops    20 x    32 x    20          74052403200       0.0%    100.0%      0.0%
 flops    20 x    13 x   128          91258818560       0.0%    100.0%      0.0%
 flops    13 x    20 x   128          91730329600       0.0%    100.0%      0.0%
 flops     5 x    20 x   128          97294489600       0.0%    100.0%      0.0%
 flops    20 x     5 x   128          97327462400       0.0%    100.0%      0.0%
 flops    20 x    20 x   128         772750540800       0.0%    100.0%      0.0%
 flops inhomo. stacks                           0       0.0%      0.0%      0.0%
 flops total                         1.649198E+12       0.0%    100.0%      0.0%
 flops max/rank                     15.530823E+09       0.0%    100.0%      0.0%
 matmuls inhomo. stacks                         0       0.0%      0.0%      0.0%
 matmuls total                           50149610       0.0%    100.0%      0.0%
 number of processed stacks                446838       0.0%    100.0%      0.0%
 average stack size                                     0.0     112.2       0.0
 marketing flops                     3.342087E+12
 -------------------------------------------------------------------------------
 # multiplications                             24
 max memory usage/rank               1.594540E+09
 # max total images/rank                        2
 # max 3D layers                                1
 # MPI messages exchanged                   89088
 MPI messages size (bytes):
  total size                        58.356199E+09
  min size                         278.784000E+03
  max size                           2.305976E+06
  average size                     655.039938E+03
 MPI breakdown and total messages size (bytes):
             size <=      128                   0                        0
       128 < size <=     8192                   0                        0
      8192 < size <=    32768                   0                        0
     32768 < size <=   131072                   0                        0
    131072 < size <=  4194304               89088              58356203472
   4194304 < size <= 16777216                   0                        0
  16777216 < size                               0                        0
 -------------------------------------------------------------------------------

 *** WARNING in dbcsr_mm.F:290 :: Using a non-square number of MPI ranks ***
 *** might lead to poor performance. Used ranks: 128 Suggested: 121 256  ***

 -------------------------------------------------------------------------------
 -                                                                             -
 -                      DBCSR MESSAGE PASSING PERFORMANCE                      -
 -                                                                             -
 -------------------------------------------------------------------------------
 ROUTINE             CALLS      AVE VOLUME [Bytes]
 MP_Bcast               46                     12.
 MP_Allreduce          271                     15.
 MP_Alltoall           665                 577313.
 MP_ISend             1536                 311341.
 MP_IRecv             1536                 305065.
 -------------------------------------------------------------------------------

 -------------------------------------------------------------------------------
 -                                                                             -
 -                                DBM STATISTICS                               -
 -                                                                             -
 -------------------------------------------------------------------------------
    M  x    N  x    K                                          COUNT     PERCENT
 -------------------------------------------------------------------------------

 -------------------------------------------------------------------------------
 -                                                                             -
 -                                GRID STATISTICS                              -
 -                                                                             -
 -------------------------------------------------------------------------------
 LP    KERNEL             BACKEND                              COUNT     PERCENT
 4     collocate general  REF                                8958620      21.67%
 4     integrate general  REF                                8843578      21.39%
 3     collocate general  REF                                6427696      15.55%
 3     integrate general  REF                                6369818      15.41%
 2     collocate general  REF                                5154380      12.47%
 2     integrate general  REF                                4920090      11.90%
 5     integrate general  REF                                 407210       0.98%
 0     collocate general  REF                                 133632       0.32%
 0     integrate general  REF                                  66816       0.16%
 1     integrate general  REF                                  66816       0.16%
 -------------------------------------------------------------------------------

 MEMORY| Estimated peak process memory [MiB]                                1784

 -------------------------------------------------------------------------------
 ----                             MULTIGRID INFO                            ----
 -------------------------------------------------------------------------------
 count for grid        1:        1099927          cutoff [a.u.]          200.00
 count for grid        2:        1095303          cutoff [a.u.]           66.67
 count for grid        3:         721783          cutoff [a.u.]           22.22
 count for grid        4:         562015          cutoff [a.u.]            7.41
 total gridlevel count  :        3479028

 -------------------------------------------------------------------------------
 -                                                                             -
 -                         MESSAGE PASSING PERFORMANCE                         -
 -                                                                             -
 -------------------------------------------------------------------------------

 ROUTINE             CALLS      AVE VOLUME [Bytes]
 MP_Group                4
 MP_Bcast             2166                 312318.
 MP_Allreduce         3007                  36455.
 MP_Sync                50
 MP_Alltoall          1342               16834640.
 MP_SendRecv           508                   6228.
 MP_ISendRecv        11176                  61740.
 MP_Wait             20056
 MP_comm_split          23
 MP_ISend             8376                 256784.
 MP_IRecv             8376                 256784.
 MP_Recv               124                1706496.
 MP_Write_All            3                1797408.
 -------------------------------------------------------------------------------


 -------------------------------------------------------------------------------
 -                                                                             -
 -                           R E F E R E N C E S                               -
 -                                                                             -
 -------------------------------------------------------------------------------
 
 CP2K version 2022.1, the CP2K developers group (2022).
 CP2K is freely available from https://www.cp2k.org/ .

 Kuehne,Thomas D.; Iannuzzi,Marcella; Del Ben,Mauro;
 Rybkin,Vladimir V.; Seewald,Patrick; Stein,Frederick; Laino,Teodoro;
 Khaliullin,Rustam Z.; Schuett,Ole; Schiffmann,Florian; Golze,Dorothea;
 Wilhelm,Jan; Chulkov,Sergey; Bani-Hashemian,Mohammad Hossein;
 Weber,Valery; Borstnik,Urban; Taillefumier,Mathieu;
 Jakobovits,Alice Shoshana; Lazzaro,Alfio; Pabst,Hans; Mueller,Tiziano;
 Schade,Robert; Guidon,Manuel; Andermatt,Samuel; Holmberg,Nico;
 Schenter,Gregory K.; Hehn,Anna; Bussy,Augustin; Belleflamme,Fabian;
 Tabacchi,Gloria; Gloess,Andreas; Lass,Michael; Bethune,Iain;
 Mundy,Christopher J.; Plessl,Christian; Watkins,Matt;
 VandeVondele,Joost; Krack,Matthias; Hutter,Juerg. 
 The Journal of Chemical Physics, 152 (19), (2020). 
 CP2K: An electronic structure and molecular dynamics software package -
 Quickstep: Efficient and accurate electronic structure calculations.
 https://doi.org/10.1063/5.0007045

 Goerigk, Lars; Hansen, Andreas; Bauer, Christoph; Ehrlich, Stephan;
 Najibi, Asim; Grimme, Stefan. , 19 (48), (2017). 
 A look at the density functional theory zoo with the advanced GMTKN55 database
 for general main group thermochemistry, kinetics and noncovalent interactions.
 https://doi.org/10.1039/C7CP04913G

 Bani-Hashemian, MH; Bruck, S; Luisier, M; VandeVondele, J. 
 JOURNAL OF CHEMICAL PHYSICS, 144 (4), 044113 (2016). 
 A generalized Poisson solver for first-principles device simulations.
 https://doi.org/10.1063/1.4940796

 Schuett, Ole; Messmer, Peter; Hutter, Juerg; VandeVondele, Joost. 
 Electronic Structure Calculations on Graphics Processing Units, John
 Wiley & Sons, Ltd, 173-190 (2016). 
 GPU-Accelerated Sparse Matrix-Matrix Multiplication for
 Linear Scaling Density Functional Theory.
 https://doi.org/10.1002/9781118670712.ch8

 Heinecke, A; Henry, G; Hutchinson, M; Pabst, H. 
 Proceedings of Intl. Supercomputing Conference, 981-991 (2016). 
 LIBXSMM: Accelerating Small Matrix Multiplications
 by Runtime Code Generation.
 https://doi.org/10.1109/SC.2016.83

 Borstnik, U; VandeVondele, J; Weber, V; Hutter, J. 
 PARALLEL COMPUTING, 40 (5-6), 47-58 (2014). 
 Sparse matrix multiplication: The distributed block-compressed sparse
 row library.
 https://doi.org/10.1016/j.parco.2014.03.012

 Hutter, J; Iannuzzi, M; Schiffmann, F; VandeVondele, J. 
 WIREs Comput Mol Sci., 4 (1), 15-25 (2014). 
 CP2K: atomistic simulations of condensed matter systems.
 https://doi.org/10.1002/wcms.1159

 Marek, A; Blum, V; Johanni, R; Havu, V; Lang, B; Auckenthaler, T;
 Heinecke, A; Bungartz, H; Lederer, H. 
 Journal of Physics: Condensed Matter, 26 (21), (2014). 
 The ELPA library: scalable parallel eigenvalue solutions for
 electronic structure
 theory and computational science.
 https://doi.org/10.1088/0953-8984/26/21/213201

 Grimme, S; Ehrlich, S; Goerigk, L. 
 JOURNAL OF COMPUTATIONAL CHEMISTRY, 32, 1456 (2011). 
 Effect of the damping function in dispersion corrected density functional theory.
 https://doi.org/10.1002/jcc.21759

 Grimme, S; Antony, J; Ehrlich, S; Krieg, H. 
 JOURNAL OF CHEMICAL PHYSICS, 132 (15), 154104 (2010). 
 A consistent and accurate ab initio parametrization of density
 functional dispersion correction (DFT-D) for the 94 elements H-Pu.
 https://doi.org/10.1063/1.3382344

 VandeVondele, J; Hutter, J. 
 JOURNAL OF CHEMICAL PHYSICS, 127 (11), 114105 (2007). 
 Gaussian basis sets for accurate calculations on molecular systems in
 gas and condensed phases.
 https://doi.org/10.1063/1.2770708

 Krack, M. 
 THEORETICAL CHEMISTRY ACCOUNTS, 114 (1-3), 145-152 (2005). 
 Pseudopotentials for H to Kr optimized for gradient-corrected
 exchange-correlation functionals.
 https://doi.org/10.1007/s00214-005-0655-y

 VandeVondele, J; Krack, M; Mohamed, F; Parrinello, M; Chassaing, T;
 Hutter, J. COMPUTER PHYSICS COMMUNICATIONS, 167 (2), 103-128 (2005). 
 QUICKSTEP: Fast and accurate density functional calculations using a
 mixed Gaussian and plane waves approach.
 https://doi.org/10.1016/j.cpc.2004.12.014

 Frigo, M; Johnson, SG. 
 PROCEEDINGS OF THE IEEE, 93 (2), 216-231 (2005). 
 The design and implementation of FFTW3.
 https://doi.org/10.1109/JPROC.2004.840301

 Hartwigsen, C; Goedecker, S; Hutter, J. 
 PHYSICAL REVIEW B, 58 (7), 3641-3662 (1998). 
 Relativistic separable dual-space Gaussian pseudopotentials from H to Rn.
 https://doi.org/10.1103/PhysRevB.58.3641

 Lippert, G; Hutter, J; Parrinello, M. 
 MOLECULAR PHYSICS, 92 (3), 477-487 (1997). 
 A hybrid Gaussian and plane wave density functional scheme.
 https://doi.org/10.1080/002689797170220

 Perdew, JP; Burke, K; Ernzerhof, M. 
 PHYSICAL REVIEW LETTERS, 77 (18), 3865-3868 (1996). 
 Generalized gradient approximation made simple.
 https://doi.org/10.1103/PhysRevLett.77.3865

 Goedecker, S; Teter, M; Hutter, J. 
 PHYSICAL REVIEW B, 54 (3), 1703-1710 (1996). 
 Separable dual-space Gaussian pseudopotentials.
 https://doi.org/10.1103/PhysRevB.54.1703


 -------------------------------------------------------------------------------
 -                                                                             -
 -                                T I M I N G                                  -
 -                                                                             -
 -------------------------------------------------------------------------------
 SUBROUTINE                       CALLS  ASD         SELF TIME        TOTAL TIME
                                MAXIMUM       AVERAGE  MAXIMUM  AVERAGE  MAXIMUM
 CP2K                                 1  1.0    0.024    0.038  159.983  159.983
 qs_forces                            1  2.0    0.002    0.002  159.641  159.642
 qs_energies                          1  3.0    0.000    0.001  153.519  153.523
 scf_env_do_scf                       1  4.0    0.000    0.001  143.823  143.970
 scf_env_do_scf_inner_loop           21  5.0    0.002    0.004  143.820  143.966
 rebuild_ks_matrix                   22  6.9    0.000    0.000   79.627   79.643
 qs_ks_build_kohn_sham_matrix        22  7.9    0.004    0.004   79.627   79.643
 qs_ks_update_qs_env                 21  6.0    0.000    0.000   75.566   75.581
 pw_transfer                       1148 12.1    0.084    0.106   51.134   52.183
 fft_wrap_pw1pw2                   1148 13.1    0.011    0.018   51.050   52.092
 fft_wrap_pw1pw2_200               1016 14.4    3.381    4.024   50.358   51.368
 pw_poisson_solve                    22  8.9    0.002    0.006   43.506   43.529
 fft3d_ps                          1148 15.1   14.393   16.069   41.233   42.677
 qs_scf_new_mos                      21  6.0    0.001    0.004   41.813   41.872
 implicit_poisson_solver_mixed_      22  9.9    0.912    1.113   40.981   41.025
 eigensolver                         21  7.0    0.002    0.003   39.488   39.624
 derive_fft                         132 12.0    0.008    0.009   28.719   28.840
 cp_fm_diag_elpa                     23  8.1    0.000    0.001   28.609   28.682
 cp_fm_redistribute_end              23  9.1    3.828   28.332    3.886   28.379
 cp_fm_diag_elpa_base                23  9.1   24.120   27.705   24.353   27.965
 mp_alltoall_z22v                  1148 17.1   22.638   27.680   22.638   27.680
 apply_P_operator                   110 11.1    0.591    0.653   24.553   24.673
 qs_rho_update_rho_low               22  6.0    0.000    0.000   24.172   24.180
 calculate_rho_elec                  22  7.0    0.043    0.052   24.171   24.180
 sum_up_and_integrate                22  8.9    0.119    0.143   23.794   23.817
 integrate_v_rspace                  22  9.9    0.001    0.001   23.675   23.732
 grid_collocate_task_list            22  8.0   16.297   18.717   16.297   18.717
 x_to_yz                            661 16.4    2.788    3.553   17.278   18.029
 grid_integrate_task_list            22 10.9   15.245   17.044   15.245   17.044
 cp_fm_triangular_multiply           63  8.0   12.513   12.675   12.513   12.675
 yz_to_x                            355 16.4    0.969    1.126    9.028   12.359
 rs_pw_transfer                     180 10.4    0.002    0.003   10.312   12.108
 qs_vxc_create                       22  8.9    0.001    0.001   10.940   11.077
 xc_vxc_pw_create                    22  9.9    0.188    0.239   10.940   11.076
 density_rs2pw                       22  8.0    0.001    0.002    7.304    9.176
 xc_pw_derive                       132 11.9    0.002    0.002    7.731    8.571
 apply_poisson_operator_fft          22 10.9    0.000    0.000    7.226    7.352
 apply_inv_laplace_operator_fft      68 11.6    0.168    0.194    6.705    6.941
 potential_pw2rs                     22 10.9    0.007    0.010    6.353    6.405
 scf_post_calculation_gpw             1  4.0    0.000    0.001    6.307    6.313
 write_available_results              1  5.0    0.000    0.000    6.307    6.312
 rs_pw_transfer_RS2PW_200            24  9.9    1.586    1.771    4.097    5.891
 mp_waitany                        8376 12.2    4.028    5.886    4.028    5.886
 xc_pw_divergence                    22 10.9    0.001    0.001    5.182    5.819
 xc_rho_set_and_dset_create          22 10.9    0.109    0.141    5.372    5.729
 ps_implicit_compute_error_fft       44 10.9    0.277    0.336    4.871    5.245
 ps_implicit_compute_veps            22 10.9    0.129    0.153    4.888    4.977
 pw_scatter_p                       727 15.3    4.083    4.834    4.083    4.834
 mp_alltoall_d11v                   330 10.2    2.799    4.389    2.799    4.389
 write_mo_dependent_results           1  6.0    0.000    0.000    3.197    4.358
 calculate_projected_dos              1  7.0    0.376    1.687    3.197    4.357
 qs_ks_update_qs_env_forces           1  3.0    0.000    0.000    4.099    4.100
 rs_pw_transfer_PW2RS_200            24 12.5    1.812    1.923    3.788    3.906
 rs_gather_matrices                  22 10.9    0.027    0.033    2.065    3.643
 pw_derive                          528 13.0    3.346    3.613    3.346    3.613
 gspace_mixing                       20  6.0    0.038    0.047    3.220    3.227
 -------------------------------------------------------------------------------

 The number of warnings for this run is : 1
 
 -------------------------------------------------------------------------------
  **** **** ******  **  PROGRAM ENDED AT                 2023-12-02 04:03:56.379
 ***** ** ***  *** **   PROGRAM RAN ON                                     cu035
 **    ****   ******    PROGRAM RAN BY                                     jxzhu
 ***** **    ** ** **   PROGRAM PROCESS ID                                 36880
  **** **  *******  **  PROGRAM STOPPED IN /public/home/jxzhu/tmp_calc/a4c274ab9
                                           d6b5030196cf97a4d0f59575a6da927/calc/
                                           000600.000/search_hi.000000
