 DBCSR| CPU Multiplication driver                                           XSMM
 DBCSR| Multrec recursion limit                                              512
 DBCSR| Multiplication stack size                                           1000
 DBCSR| Maximum elements for images                                    UNLIMITED
 DBCSR| Multiplicative factor virtual images                                   1
 DBCSR| Use multiplication densification                                       T
 DBCSR| Multiplication size stacks                                             3
 DBCSR| Use memory pool for CPU allocation                                     F
 DBCSR| Number of 3D layers                                               SINGLE
 DBCSR| Use MPI memory allocation                                              F
 DBCSR| Use RMA algorithm                                                      F
 DBCSR| Use Communication thread                                               T
 DBCSR| Communication thread load                                             87
 DBCSR| MPI: My node id                                                        0
 DBCSR| MPI: Number of nodes                                                 128
 DBCSR| OMP: Current number of threads                                         1
 DBCSR| OMP: Max number of threads                                             1
 DBCSR| Split modifier for TAS multiplication algorithm                  1.0E+00


  **** **** ******  **  PROGRAM STARTED AT               2023-12-01 22:12:33.617
 ***** ** ***  *** **   PROGRAM STARTED ON                                 cu075
 **    ****   ******    PROGRAM STARTED BY                                 jxzhu
 ***** **    ** ** **   PROGRAM PROCESS ID                                 23784
  **** **  *******  **  PROGRAM STARTED IN /public/home/jxzhu/tmp_calc/49ea75cdf
                                           59e74eb18267848f48360015ce7375f/calc/
                                           000100.000/search_hi.000000

 CP2K| version string:                                       CP2K version 2022.1
 CP2K| source code revision number:                                  git:2caeb6f
 CP2K| cp2kflags: omp libint fftw3 libxc elpa parallel mpi3 scalapack cosma xsmm
 CP2K|             plumed2 spglib mkl sirius libvori libbqb
 CP2K| is freely available from                            https://www.cp2k.org/
 CP2K| Program compiled at                           Mon Jul 3 17:37:06 CST 2023
 CP2K| Program compiled on                                                 mu003
 CP2K| Program compiled for                                                local
 CP2K| Data directory path                             /public/home/jxzhu/basis/
 CP2K| Input file name                                                 input.inp
 
 GLOBAL| Force Environment number                                              1
 GLOBAL| Basis set file name                                        BASIS_MOLOPT
 GLOBAL| Potential file name                                      GTH_POTENTIALS
 GLOBAL| MM Potential file name                                     MM_POTENTIAL
 GLOBAL| Coordinate file name                                          coord.xyz
 GLOBAL| Method name                                                        CP2K
 GLOBAL| Project name                                                       cp2k
 GLOBAL| Run type                                                   ENERGY_FORCE
 GLOBAL| FFT library                                                       FFTW3
 GLOBAL| Diagonalization library                                            ELPA
 GLOBAL| Minimum number of eigenvectors for ELPA usage                        16
 GLOBAL| Orthonormality check for eigenvectors                          DISABLED
 GLOBAL| Matrix multiplication library                                     COSMA
 GLOBAL| All-to-all communication in single precision                          F
 GLOBAL| FFTs using library dependent lengths                                  T
 GLOBAL| Grid backend                                                       AUTO
 GLOBAL| Global print level                                               MEDIUM
 GLOBAL| MPI I/O enabled                                                       T
 GLOBAL| Total number of message passing processes                           128
 GLOBAL| Number of threads for this process                                    1
 GLOBAL| This output is from process                                           0
 GLOBAL| Stack size for threads created by OpenMP (OMP_STACKSIZE)        default
 GLOBAL| CPU model name                 Intel(R) Xeon(R) Gold 6338 CPU @ 2.00GHz
 GLOBAL| CPUID                                                              1003

 MEMORY| system memory details [Kb]
 MEMORY|                        rank 0           min           max       average
 MEMORY| MemTotal            263619172     263619168     263619172     263619170
 MEMORY| MemFree             208283220     208283220     210838032     209560560
 MEMORY| Buffers                    44            28            44            36
 MEMORY| Cached                 899832        777028        899832        838430
 MEMORY| Slab                  1433432       1373268       1433432       1403350
 MEMORY| SReclaimable           231772        222680        231772        227226
 MEMORY| MemLikelyFree       209414868     209414868     211837768     210626252


 *** Fundamental physical constants (SI units) ***

 *** Literature: B. J. Mohr and B. N. Taylor,
 ***             CODATA recommended values of the fundamental physical
 ***             constants: 2006, Web Version 5.1
 ***             http://physics.nist.gov/constants

 Speed of light in vacuum [m/s]                             2.99792458000000E+08
 Magnetic constant or permeability of vacuum [N/A**2]       1.25663706143592E-06
 Electric constant or permittivity of vacuum [F/m]          8.85418781762039E-12
 Planck constant (h) [J*s]                                  6.62606896000000E-34
 Planck constant (h-bar) [J*s]                              1.05457162825177E-34
 Elementary charge [C]                                      1.60217648700000E-19
 Electron mass [kg]                                         9.10938215000000E-31
 Electron g factor [ ]                                     -2.00231930436220E+00
 Proton mass [kg]                                           1.67262163700000E-27
 Fine-structure constant                                    7.29735253760000E-03
 Rydberg constant [1/m]                                     1.09737315685270E+07
 Avogadro constant [1/mol]                                  6.02214179000000E+23
 Boltzmann constant [J/K]                                   1.38065040000000E-23
 Atomic mass unit [kg]                                      1.66053878200000E-27
 Bohr radius [m]                                            5.29177208590000E-11

 *** Conversion factors ***

 [u] -> [a.u.]                                              1.82288848426455E+03
 [Angstrom] -> [Bohr] = [a.u.]                              1.88972613288564E+00
 [a.u.] = [Bohr] -> [Angstrom]                              5.29177208590000E-01
 [a.u.] -> [s]                                              2.41888432650478E-17
 [a.u.] -> [fs]                                             2.41888432650478E-02
 [a.u.] -> [J]                                              4.35974393937059E-18
 [a.u.] -> [N]                                              8.23872205491840E-08
 [a.u.] -> [K]                                              3.15774647902944E+05
 [a.u.] -> [kJ/mol]                                         2.62549961709828E+03
 [a.u.] -> [kcal/mol]                                       6.27509468713739E+02
 [a.u.] -> [Pa]                                             2.94210107994716E+13
 [a.u.] -> [bar]                                            2.94210107994716E+08
 [a.u.] -> [atm]                                            2.90362800883016E+08
 [a.u.] -> [eV]                                             2.72113838565563E+01
 [a.u.] -> [Hz]                                             6.57968392072181E+15
 [a.u.] -> [1/cm] (wave numbers)                            2.19474631370540E+05
 [a.u./Bohr**2] -> [1/cm]                                   5.14048714338585E+03
 

 CELL_TOP| Volume [angstrom^3]:                                     17614.982639
 CELL_TOP| Vector a [angstrom    16.869     0.000     0.000   |a| =    16.869000
 CELL_TOP| Vector b [angstrom    -8.434    14.609     0.000   |b| =    16.869015
 CELL_TOP| Vector c [angstrom     0.000     0.000    71.478   |c| =    71.478000
 CELL_TOP| Angle (b,c), alpha [degree]:                                90.000000
 CELL_TOP| Angle (a,c), beta  [degree]:                                90.000000
 CELL_TOP| Angle (a,b), gamma [degree]:                               119.999970
 CELL_TOP| Numerically orthorhombic:                                          NO
 
 GENERATE|  Preliminary Number of Bonds generated:                             0
 GENERATE|  Achieved consistency in connectivity generation.

 CELL| Volume [angstrom^3]:                                         17614.982639
 CELL| Vector a [angstrom]:      16.869     0.000     0.000   |a| =    16.869000
 CELL| Vector b [angstrom]:      -8.434    14.609     0.000   |b| =    16.869015
 CELL| Vector c [angstrom]:       0.000     0.000    71.478   |c| =    71.478000
 CELL| Angle (b,c), alpha [degree]:                                    90.000000
 CELL| Angle (a,c), beta  [degree]:                                    90.000000
 CELL| Angle (a,b), gamma [degree]:                                   119.999970
 CELL| Numerically orthorhombic:                                              NO

 CELL_REF| Volume [angstrom^3]:                                     17614.982639
 CELL_REF| Vector a [angstrom    16.869     0.000     0.000   |a| =    16.869000
 CELL_REF| Vector b [angstrom    -8.434    14.609     0.000   |b| =    16.869015
 CELL_REF| Vector c [angstrom     0.000     0.000    71.478   |c| =    71.478000
 CELL_REF| Angle (b,c), alpha [degree]:                                90.000000
 CELL_REF| Angle (a,c), beta  [degree]:                                90.000000
 CELL_REF| Angle (a,b), gamma [degree]:                               119.999970
 CELL_REF| Numerically orthorhombic:                                          NO

 *******************************************************************************
 *******************************************************************************
 **                                                                           **
 **     #####                         ##              ##                      **
 **    ##   ##            ##          ##              ##                      **
 **   ##     ##                       ##            ######                    **
 **   ##     ##  ##   ##  ##   #####  ##  ##   ####   ##    #####    #####    **
 **   ##     ##  ##   ##  ##  ##      ## ##   ##      ##   ##   ##  ##   ##   **
 **   ##  ## ##  ##   ##  ##  ##      ####     ###    ##   ######   ######    **
 **    ##  ###   ##   ##  ##  ##      ## ##      ##   ##   ##       ##        **
 **     #######   #####   ##   #####  ##  ##  ####    ##    #####   ##        **
 **           ##                                                    ##        **
 **                                                                           **
 **                                                ... make the atoms dance   **
 **                                                                           **
 **            Copyright (C) by CP2K developers group (2000-2022)             **
 **                      J. Chem. Phys. 152, 194103 (2020)                    **
 **                                                                           **
 *******************************************************************************

 DFT| Spin restricted Kohn-Sham (RKS) calculation                            RKS
 DFT| Multiplicity                                                             1
 DFT| Number of spin states                                                    1
 DFT| Charge                                                                   0
 DFT| Self-interaction correction (SIC)                                       NO
 DFT| Cutoffs: density                                              1.000000E-10
 DFT|          gradient                                             1.000000E-10
 DFT|          tau                                                  1.000000E-10
 DFT|          cutoff_smoothing_range                               0.000000E+00
 DFT| XC density smoothing                                                  NONE
 DFT| XC derivatives                                                          PW

 FUNCTIONAL| PBE:
 FUNCTIONAL| J.P.Perdew, K.Burke, M.Ernzerhof, Phys. Rev. Letter, vol. 77, n 18,
 FUNCTIONAL|  pp. 3865-3868, (1996){spin unpolarized}                           

 vdW POTENTIAL|                                                   Pair Potential
 vdW POTENTIAL|          DFT-D3 (Version 3.1)
 vdW POTENTIAL|          Potential Form: S. Grimme et al, JCP 132: 154104 (2010)
 vdW POTENTIAL|          Zero Damping
 vdW POTENTIAL|          Cutoff Radius [Bohr]:                             20.00
 vdW POTENTIAL|          s6 Scaling Factor:                               1.0000
 vdW POTENTIAL|          sr6 Scaling Factor:                              1.2170
 vdW POTENTIAL|          s8 Scaling Factor:                               0.7220
 vdW POTENTIAL|          Cutoff for CN calculation:                   0.1000E-05

 QS| Method:                                                                 GPW
 QS| Density plane wave grid type                        NON-SPHERICAL FULLSPACE
 QS| Number of grid levels:                                                    4
 QS| Density cutoff [a.u.]:                                                200.0
 QS| Multi grid cutoff [a.u.]: 1) grid level                               200.0
 QS|                           2) grid level                                66.7
 QS|                           3) grid level                                22.2
 QS|                           4) grid level                                 7.4
 QS| Grid level progression factor:                                          3.0
 QS| Relative density cutoff [a.u.]:                                        20.0
 QS| Interaction thresholds: eps_pgf_orb:                                3.2E-07
 QS|                         eps_filter_matrix:                          0.0E+00
 QS|                         eps_core_charge:                            1.0E-15
 QS|                         eps_rho_gspace:                             1.0E-13
 QS|                         eps_rho_rspace:                             1.0E-13
 QS|                         eps_gvg_rspace:                             3.2E-07
 QS|                         eps_ppl:                                    1.0E-02
 QS|                         eps_ppnl:                                   3.2E-09


 ATOMIC KIND INFORMATION

  1. Atomic kind: O                                     Number of atoms:     100

     Orbital Basis Set                                        DZVP-MOLOPT-SR-GTH

       Number of orbital shell sets:                                           1
       Number of orbital shells:                                               5
       Number of primitive Cartesian functions:                                5
       Number of Cartesian basis functions:                                   14
       Number of spherical basis functions:                                   13
       Norm type:                                                              2

       Normalised Cartesian orbitals:

                        Set   Shell   Orbital            Exponent    Coefficient

                          1       1    2s               10.389228       0.396646
                                                         3.849621       0.208811
                                                         1.388401      -0.301641
                                                         0.496955      -0.274061
                                                         0.162492      -0.033677

                          1       2    3s               10.389228       0.303673
                                                         3.849621       0.240943
                                                         1.388401      -0.313066
                                                         0.496955      -0.043055
                                                         0.162492       0.213991

                          1       3    3px              10.389228      -1.530415
                                                         3.849621      -1.371928
                                                         1.388401      -0.761951
                                                         0.496955      -0.253695
                                                         0.162492      -0.035541
                          1       3    3py              10.389228      -1.530415
                                                         3.849621      -1.371928
                                                         1.388401      -0.761951
                                                         0.496955      -0.253695
                                                         0.162492      -0.035541
                          1       3    3pz              10.389228      -1.530415
                                                         3.849621      -1.371928
                                                         1.388401      -0.761951
                                                         0.496955      -0.253695
                                                         0.162492      -0.035541

                          1       4    4px              10.389228      -0.565392
                                                         3.849621      -0.038231
                                                         1.388401      -0.382373
                                                         0.496955       0.179070
                                                         0.162492       0.122714
                          1       4    4py              10.389228      -0.565392
                                                         3.849621      -0.038231
                                                         1.388401      -0.382373
                                                         0.496955       0.179070
                                                         0.162492       0.122714
                          1       4    4pz              10.389228      -0.565392
                                                         3.849621      -0.038231
                                                         1.388401      -0.382373
                                                         0.496955       0.179070
                                                         0.162492       0.122714

                          1       5    4dx2             10.389228       1.867377
                                                         3.849621       0.670994
                                                         1.388401       1.353441
                                                         0.496955       0.273538
                                                         0.162492       0.006620
                          1       5    4dxy             10.389228       3.234392
                                                         3.849621       1.162195
                                                         1.388401       2.344229
                                                         0.496955       0.473781
                                                         0.162492       0.011466
                          1       5    4dxz             10.389228       3.234392
                                                         3.849621       1.162195
                                                         1.388401       2.344229
                                                         0.496955       0.473781
                                                         0.162492       0.011466
                          1       5    4dy2             10.389228       1.867377
                                                         3.849621       0.670994
                                                         1.388401       1.353441
                                                         0.496955       0.273538
                                                         0.162492       0.006620
                          1       5    4dyz             10.389228       3.234392
                                                         3.849621       1.162195
                                                         1.388401       2.344229
                                                         0.496955       0.473781
                                                         0.162492       0.011466
                          1       5    4dz2             10.389228       1.867377
                                                         3.849621       0.670994
                                                         1.388401       1.353441
                                                         0.496955       0.273538
                                                         0.162492       0.006620

       Atomic covalent radius [Angstrom]:                                  0.730

       Atomic van der Waals radius [Angstrom]:                             1.520

     GTH Potential information for                                    GTH-PBE-q6

       Description:                       Goedecker-Teter-Hutter pseudopotential
                                           Goedecker et al., PRB 54, 1703 (1996)
                                          Hartwigsen et al., PRB 58, 3641 (1998)
                                                      Krack, TCA 114, 145 (2005)

       Gaussian exponent of the core charge distribution:               8.360253
       Electronic configuration (s p d ...):                               2   4

       Parameters of the local part of the GTH pseudopotential:

                          rloc        C1          C2          C3          C4
                        0.244554  -16.667215    2.487311

       Parameters of the non-local part of the GTH pseudopotential:

                   l      r(l)      h(i,j,l)

                   0    0.220956   18.337458
                   1    0.211332

  2. Atomic kind: H                                     Number of atoms:     200

     Orbital Basis Set                                        DZVP-MOLOPT-SR-GTH

       Number of orbital shell sets:                                           1
       Number of orbital shells:                                               3
       Number of primitive Cartesian functions:                                5
       Number of Cartesian basis functions:                                    5
       Number of spherical basis functions:                                    5
       Norm type:                                                              2

       Normalised Cartesian orbitals:

                        Set   Shell   Orbital            Exponent    Coefficient

                          1       1    2s               10.068468      -0.133023
                                                         2.680223      -0.177618
                                                         0.791502      -0.258419
                                                         0.239116      -0.107525
                                                         0.082193      -0.014019

                          1       2    3s               10.068468       0.344673
                                                         2.680223       1.819821
                                                         0.791502      -0.999069
                                                         0.239116       0.017430
                                                         0.082193       0.082660

                          1       3    3px              10.068468       0.155326
                                                         2.680223       0.367157
                                                         0.791502       0.311480
                                                         0.239116       0.080105
                                                         0.082193       0.033440
                          1       3    3py              10.068468       0.155326
                                                         2.680223       0.367157
                                                         0.791502       0.311480
                                                         0.239116       0.080105
                                                         0.082193       0.033440
                          1       3    3pz              10.068468       0.155326
                                                         2.680223       0.367157
                                                         0.791502       0.311480
                                                         0.239116       0.080105
                                                         0.082193       0.033440

       Atomic covalent radius [Angstrom]:                                  0.320

       Atomic van der Waals radius [Angstrom]:                             1.090

     GTH Potential information for                                    GTH-PBE-q1

       Description:                       Goedecker-Teter-Hutter pseudopotential
                                           Goedecker et al., PRB 54, 1703 (1996)
                                          Hartwigsen et al., PRB 58, 3641 (1998)
                                                      Krack, TCA 114, 145 (2005)

       Gaussian exponent of the core charge distribution:              12.500000
       Electronic configuration (s p d ...):                                   1

       Parameters of the local part of the GTH pseudopotential:

                          rloc        C1          C2          C3          C4
                        0.200000   -4.178900    0.724463

  3. Atomic kind: Pt                                    Number of atoms:     216

     Orbital Basis Set                      DZVP-A5-Q10-323-MOL-T1-DERIVED_SET-1

       Number of orbital shell sets:                                           1
       Number of orbital shells:                                               6
       Number of primitive Cartesian functions:                                5
       Number of Cartesian basis functions:                                   23
       Number of spherical basis functions:                                   20
       Norm type:                                                              2

       Normalised Cartesian orbitals:

                        Set   Shell   Orbital            Exponent    Coefficient

                          1       1    2s                2.521825       0.177473
                                                         1.453920      -0.063399
                                                         0.614053      -0.407089
                                                         0.232656       0.262254
                                                         0.074788       0.047371

                          1       2    3s                2.521825      -0.049056
                                                         1.453920       0.044904
                                                         0.614053      -0.009756
                                                         0.232656      -0.144709
                                                         0.074788       0.144085

                          1       3    3px               2.521825      -0.317572
                                                         1.453920       0.534826
                                                         0.614053      -0.489458
                                                         0.232656       0.245631
                                                         0.074788       0.018221
                          1       3    3py               2.521825      -0.317572
                                                         1.453920       0.534826
                                                         0.614053      -0.489458
                                                         0.232656       0.245631
                                                         0.074788       0.018221
                          1       3    3pz               2.521825      -0.317572
                                                         1.453920       0.534826
                                                         0.614053      -0.489458
                                                         0.232656       0.245631
                                                         0.074788       0.018221

                          1       4    4dx2              2.521825       3.008522
                                                         1.453920      -1.224251
                                                         0.614053       0.225691
                                                         0.232656       0.125144
                                                         0.074788      -0.015348
                          1       4    4dxy              2.521825       5.210912
                                                         1.453920      -2.120465
                                                         0.614053       0.390909
                                                         0.232656       0.216756
                                                         0.074788      -0.026584
                          1       4    4dxz              2.521825       5.210912
                                                         1.453920      -2.120465
                                                         0.614053       0.390909
                                                         0.232656       0.216756
                                                         0.074788      -0.026584
                          1       4    4dy2              2.521825       3.008522
                                                         1.453920      -1.224251
                                                         0.614053       0.225691
                                                         0.232656       0.125144
                                                         0.074788      -0.015348
                          1       4    4dyz              2.521825       5.210912
                                                         1.453920      -2.120465
                                                         0.614053       0.390909
                                                         0.232656       0.216756
                                                         0.074788      -0.026584
                          1       4    4dz2              2.521825       3.008522
                                                         1.453920      -1.224251
                                                         0.614053       0.225691
                                                         0.232656       0.125144
                                                         0.074788      -0.015348

                          1       5    5dx2              2.521825       0.698026
                                                         1.453920      -1.511486
                                                         0.614053      -0.335394
                                                         0.232656      -0.025564
                                                         0.074788      -0.002699
                          1       5    5dxy              2.521825       1.209017
                                                         1.453920      -2.617970
                                                         0.614053      -0.580920
                                                         0.232656      -0.044277
                                                         0.074788      -0.004674
                          1       5    5dxz              2.521825       1.209017
                                                         1.453920      -2.617970
                                                         0.614053      -0.580920
                                                         0.232656      -0.044277
                                                         0.074788      -0.004674
                          1       5    5dy2              2.521825       0.698026
                                                         1.453920      -1.511486
                                                         0.614053      -0.335394
                                                         0.232656      -0.025564
                                                         0.074788      -0.002699
                          1       5    5dyz              2.521825       1.209017
                                                         1.453920      -2.617970
                                                         0.614053      -0.580920
                                                         0.232656      -0.044277
                                                         0.074788      -0.004674
                          1       5    5dz2              2.521825       0.698026
                                                         1.453920      -1.511486
                                                         0.614053      -0.335394
                                                         0.232656      -0.025564
                                                         0.074788      -0.002699

                          1       6    6dx2              2.521825       0.831079
                                                         1.453920      -0.709226
                                                         0.614053      -0.137351
                                                         0.232656       0.068642
                                                         0.074788       0.011745
                          1       6    6dxy              2.521825       1.439472
                                                         1.453920      -1.228415
                                                         0.614053      -0.237899
                                                         0.232656       0.118891
                                                         0.074788       0.020343
                          1       6    6dxz              2.521825       1.439472
                                                         1.453920      -1.228415
                                                         0.614053      -0.237899
                                                         0.232656       0.118891
                                                         0.074788       0.020343
                          1       6    6dy2              2.521825       0.831079
                                                         1.453920      -0.709226
                                                         0.614053      -0.137351
                                                         0.232656       0.068642
                                                         0.074788       0.011745
                          1       6    6dyz              2.521825       1.439472
                                                         1.453920      -1.228415
                                                         0.614053      -0.237899
                                                         0.232656       0.118891
                                                         0.074788       0.020343
                          1       6    6dz2              2.521825       0.831079
                                                         1.453920      -0.709226
                                                         0.614053      -0.137351
                                                         0.232656       0.068642
                                                         0.074788       0.011745

       Atomic covalent radius [Angstrom]:                                  1.300

       Atomic van der Waals radius [Angstrom]:                             1.750

     GTH Potential information for                                   GTH-PBE-q10

       Description:                       Goedecker-Teter-Hutter pseudopotential
                                           Goedecker et al., PRB 54, 1703 (1996)
                                          Hartwigsen et al., PRB 58, 3641 (1998)
                                                      Krack, TCA 114, 145 (2005)

       Gaussian exponent of the core charge distribution:               1.317676
       Electronic configuration (s p d ...):                           1   0   9

       Parameters of the local part of the GTH pseudopotential:

                          rloc        C1          C2          C3          C4
                        0.616000   11.313635

       Parameters of the non-local part of the GTH pseudopotential:

                   l      r(l)      h(i,j,l)

                   0    0.550904    4.733491   -1.784594
                                   -1.784594    2.303901
                   1    0.674138    2.534798   -1.778066
                                   -1.778066    2.103836
                   2    0.457392   -7.264011    2.558665
                                    2.558665   -2.901253


 MOLECULE KIND INFORMATION


 All atoms are their own molecule, skipping detailed information


 TOTAL NUMBERS AND MAXIMUM NUMBERS

  Total number of            - Atomic kinds:                                   3
                             - Atoms:                                        516
                             - Shell sets:                                   516
                             - Shells:                                      2396
                             - Primitive Cartesian functions:               2580
                             - Cartesian basis functions:                   7368
                             - Spherical basis functions:                   6620

  Maximum angular momentum of- Orbital basis functions:                        2
                             - Local part of the GTH pseudopotential:          2
                             - Non-local part of the GTH pseudopotential:      4


 MODULE QUICKSTEP:  ATOMIC COORDINATES IN angstrom

 Atom  Kind  Element       X           Y           Z          Z(eff)       Mass
    1   1 O    8       3.450000    3.880000   39.667999       6.0000     15.9994
    2   2 H    1       3.730000    3.670000   40.577998       1.0000      1.0079
    3   2 H    1       2.410000    3.620000   39.628000       1.0000      1.0079
    4   1 O    8       3.680000    4.420000   35.548000       6.0000     15.9994
    5   2 H    1       3.880000    4.100000   36.457998       1.0000      1.0079
    6   2 H    1       3.050000    3.840000   35.067998       1.0000      1.0079
    7   1 O    8       8.150001    5.210000   36.007999       6.0000     15.9994
    8   2 H    1       8.470000    6.060000   35.638000       1.0000      1.0079
    9   2 H    1       7.330000    5.000000   35.437997       1.0000      1.0079
   10   1 O    8      15.740002   12.910000   29.787998       6.0000     15.9994
   11   2 H    1      15.470000   12.800001   28.857997       1.0000      1.0079
   12   2 H    1      15.160000   12.350000   30.357997       1.0000      1.0079
   13   1 O    8       4.050000   10.090000   39.827998       6.0000     15.9994
   14   2 H    1       4.420000    9.930000   38.928001       1.0000      1.0079
   15   2 H    1       4.760000    9.840000   40.437999       1.0000      1.0079
   16   1 O    8      14.330001    3.100000   36.617997       6.0000     15.9994
   17   2 H    1      14.360001    3.170000   35.638000       1.0000      1.0079
   18   2 H    1      15.100001    3.590000   37.018001       1.0000      1.0079
   19   1 O    8      -6.490001    3.790000   35.978000       6.0000     15.9994
   20   2 H    1      -7.420001    4.310000   35.968000       1.0000      1.0079
   21   2 H    1      -6.670001    2.790000   36.017999       1.0000      1.0079
   22   1 O    8       5.380001    2.850000   37.757999       6.0000     15.9994
   23   2 H    1       5.140000    1.850000   37.687999       1.0000      1.0079
   24   2 H    1       4.800000    3.230000   38.457998       1.0000      1.0079
   25   1 O    8      -4.610000    9.880000   36.658000       6.0000     15.9994
   26   2 H    1      -4.100000    9.710001   35.808000       1.0000      1.0079
   27   2 H    1      -3.820000   10.170001   37.257999       1.0000      1.0079
   28   1 O    8      12.090001    9.820001   32.527999       6.0000     15.9994
   29   2 H    1      11.880001    9.480001   31.617997       1.0000      1.0079
   30   2 H    1      11.490001   10.640000   32.648000       1.0000      1.0079
   31   1 O    8      -2.310000   21.180000   39.347999       6.0000     15.9994
   32   2 H    1      -2.030000   20.200001   39.087997       1.0000      1.0079
   33   2 H    1      14.960001   21.530001   40.127998       1.0000      1.0079
   34   1 O    8      -2.610000    9.470000   30.018001       6.0000     15.9994
   35   2 H    1      -2.020000    8.650001   30.248000       1.0000      1.0079
   36   2 H    1      -2.470000    9.730001   29.077998       1.0000      1.0079
   37   1 O    8       7.100000    6.550000   29.888000       6.0000     15.9994
   38   2 H    1       6.770000    7.050000   29.117999       1.0000      1.0079
   39   2 H    1       6.460000    5.720000   29.967998       1.0000      1.0079
   40   1 O    8       0.170000   -1.430000   29.147998       6.0000     15.9994
   41   2 H    1      -0.700000   -0.940000   29.287998       1.0000      1.0079
   42   2 H    1       0.960000   -0.830000   29.428001       1.0000      1.0079
   43   1 O    8      15.620001    4.430000   38.617999       6.0000     15.9994
   44   2 H    1      14.840001    4.660000   39.217998       1.0000      1.0079
   45   2 H    1      -0.840000    5.340000   38.387998       1.0000      1.0079
   46   1 O    8      -2.350000   10.830001   37.697997       6.0000     15.9994
   47   2 H    1      -2.290000   11.070000   38.667999       1.0000      1.0079
   48   2 H    1      -1.590000   10.210000   37.607997       1.0000      1.0079
   49   1 O    8       1.750000    2.870000   34.217998       6.0000     15.9994
   50   2 H    1      -7.360001   18.060001   33.907998       1.0000      1.0079
   51   2 H    1       1.490000    2.350000   34.987998       1.0000      1.0079
   52   1 O    8       3.890000    0.650000   35.257999       6.0000     15.9994
   53   2 H    1       4.190001    1.320000   34.667999       1.0000      1.0079
   54   2 H    1       3.060000    0.980000   35.687999       1.0000      1.0079
   55   1 O    8       1.980000   13.860001   32.147998       6.0000     15.9994
   56   2 H    1       1.230000   13.470001   32.617999       1.0000      1.0079
   57   2 H    1       2.320000   14.460001   32.807998       1.0000      1.0079
   58   1 O    8       2.620000    7.760000   32.757999       6.0000     15.9994
   59   2 H    1       2.760000    7.480001   31.747999       1.0000      1.0079
   60   2 H    1       3.500000    8.030001   33.077998       1.0000      1.0079
   61   1 O    8       0.690000    7.110000   34.658000       6.0000     15.9994
   62   2 H    1      -0.180000    7.400000   34.147998       1.0000      1.0079
   63   2 H    1       1.410000    7.140000   33.898000       1.0000      1.0079
   64   1 O    8      11.680001   -2.470000   30.217998       6.0000     15.9994
   65   2 H    1      11.420001   -2.120000   31.138000       1.0000      1.0079
   66   2 H    1      10.780001   -2.920000   29.958000       1.0000      1.0079
   67   1 O    8       2.920000    2.770000   31.657996       6.0000     15.9994
   68   2 H    1       2.750000    3.150000   32.517999       1.0000      1.0079
   69   2 H    1       3.770000    2.330000   31.757999       1.0000      1.0079
   70   1 O    8     -16.850000   15.390000   37.067998       6.0000     15.9994
   71   2 H    1       1.010000   15.420000   36.767999       1.0000      1.0079
   72   2 H    1       0.110000   15.870001   37.927999       1.0000      1.0079
   73   1 O    8       5.590000    4.440001   30.197997       6.0000     15.9994
   74   2 H    1       5.630000    3.490000   29.827998       1.0000      1.0079
   75   2 H    1       4.630000    4.790000   29.967998       1.0000      1.0079
   76   1 O    8       3.110000    6.270000   38.757999       6.0000     15.9994
   77   2 H    1       4.000000    6.640000   38.657998       1.0000      1.0079
   78   2 H    1       3.280000    5.530000   39.357999       1.0000      1.0079
   79   1 O    8       7.200000   10.670000   38.157998       6.0000     15.9994
   80   2 H    1       7.260000   11.410000   38.807998       1.0000      1.0079
   81   2 H    1       7.880001   10.150002   38.568000       1.0000      1.0079
   82   1 O    8       6.390000   13.430000   35.978000       6.0000     15.9994
   83   2 H    1       6.080000   13.380001   35.048000       1.0000      1.0079
   84   2 H    1       5.760000   12.900001   36.568000       1.0000      1.0079
   85   1 O    8       7.670000   11.530000   32.617999       6.0000     15.9994
   86   2 H    1       8.660001   11.600000   32.648000       1.0000      1.0079
   87   2 H    1       7.530000   11.310000   31.647998       1.0000      1.0079
   88   1 O    8      -4.020000    1.250000   29.927997       6.0000     15.9994
   89   2 H    1      -4.940000    0.860000   29.717998       1.0000      1.0079
   90   2 H    1      -4.260000    2.180000   29.897998       1.0000      1.0079
   91   1 O    8      -3.040000   12.550001   35.638000       6.0000     15.9994
   92   2 H    1      -4.020000   12.590000   35.657998       1.0000      1.0079
   93   2 H    1      -2.750000   12.030001   36.468000       1.0000      1.0079
   94   1 O    8       8.580000   -1.890000   38.308000       6.0000     15.9994
   95   2 H    1       9.190001   -1.910000   39.027999       1.0000      1.0079
   96   2 H    1       8.540000   -0.960000   37.997999       1.0000      1.0079
   97   1 O    8       3.510000   11.810001   33.937999       6.0000     15.9994
   98   2 H    1       2.610000   12.030001   33.607999       1.0000      1.0079
   99   2 H    1       3.420000   12.070000   34.867999       1.0000      1.0079
  100   1 O    8      -2.170000    7.500000   39.007999       6.0000     15.9994
  101   2 H    1      14.320001    7.200000   38.187999       1.0000      1.0079
  102   2 H    1      -1.460000    8.080000   38.638000       1.0000      1.0079
  103   1 O    8       2.630000   14.790001   36.157998       6.0000     15.9994
  104   2 H    1       3.490000   15.100001   36.568000       1.0000      1.0079
  105   2 H    1       2.760000   15.250001   35.297998       1.0000      1.0079
  106   1 O    8       9.460000    5.560000   29.257999       6.0000     15.9994
  107   2 H    1       8.630000    6.130000   29.437999       1.0000      1.0079
  108   2 H    1       9.120001    4.620000   29.077998       1.0000      1.0079
  109   1 O    8      14.350000   -1.850000   29.458000       6.0000     15.9994
  110   2 H    1       5.090000   12.410001   29.777999       1.0000      1.0079
  111   2 H    1      14.980001   -2.650000   29.458000       1.0000      1.0079
  112   1 O    8       5.030000   15.220001   37.257999       6.0000     15.9994
  113   2 H    1       5.430000   16.060001   37.088001       1.0000      1.0079
  114   2 H    1       5.450000   14.540001   36.667999       1.0000      1.0079
  115   1 O    8      -9.540001    9.770000   34.798000       6.0000     15.9994
  116   2 H    1      -9.530001   10.350000   33.977998       1.0000      1.0079
  117   2 H    1      -9.620001   10.370001   35.527999       1.0000      1.0079
  118   1 O    8      -4.850000   12.170000   29.888000       6.0000     15.9994
  119   2 H    1      -4.570000   11.720000   29.077998       1.0000      1.0079
  120   2 H    1      -4.600000   13.120001   29.807998       1.0000      1.0079
  121   1 O    8     -10.950001   18.120001   33.827998       6.0000     15.9994
  122   2 H    1       5.860000   17.240002   33.397998       1.0000      1.0079
  123   2 H    1     -11.800001   18.590000   33.727998       1.0000      1.0079
  124   1 O    8       5.630000   13.110001   33.507999       6.0000     15.9994
  125   2 H    1       4.730000   12.540001   33.517999       1.0000      1.0079
  126   2 H    1       6.410000   12.500000   33.177999       1.0000      1.0079
  127   1 O    8       0.260000    8.270000   28.978000       6.0000     15.9994
  128   2 H    1       0.460000    9.110001   29.428001       1.0000      1.0079
  129   2 H    1       1.050000    7.710000   29.187999       1.0000      1.0079
  130   1 O    8       6.320000    8.100000   32.357999       6.0000     15.9994
  131   2 H    1       6.520000    7.530000   31.498000       1.0000      1.0079
  132   2 H    1       7.140000    8.490001   32.548000       1.0000      1.0079
  133   1 O    8       7.310000   10.400001   30.177997       6.0000     15.9994
  134   2 H    1       6.610000    9.730001   30.077998       1.0000      1.0079
  135   2 H    1       8.200001   10.220001   29.747997       1.0000      1.0079
  136   1 O    8      -1.330000    3.380000   29.747997       6.0000     15.9994
  137   2 H    1      -2.280000    3.730000   29.827998       1.0000      1.0079
  138   2 H    1      -0.720000    4.130000   29.888000       1.0000      1.0079
  139   1 O    8       2.830000    7.420001   30.077998       6.0000     15.9994
  140   2 H    1       3.280000    6.700000   29.617999       1.0000      1.0079
  141   2 H    1       3.490000    8.160001   30.077998       1.0000      1.0079
  142   1 O    8       8.900001   13.680000   36.568000       6.0000     15.9994
  143   2 H    1      16.380001   -1.280000   36.398000       1.0000      1.0079
  144   2 H    1      -7.810000   13.600000   37.567998       1.0000      1.0079
  145   1 O    8      11.540001    5.430000   37.947999       6.0000     15.9994
  146   2 H    1      11.370001    4.710000   37.357999       1.0000      1.0079
  147   2 H    1      11.240001    6.340000   37.567998       1.0000      1.0079
  148   1 O    8      -1.700000   15.580001   29.627998       6.0000     15.9994
  149   2 H    1      -1.450000   14.690001   29.708000       1.0000      1.0079
  150   2 H    1      -1.010000   16.140001   29.857997       1.0000      1.0079
  151   1 O    8       8.860001    3.050000   29.687999       6.0000     15.9994
  152   2 H    1       9.240000    2.290000   29.247997       1.0000      1.0079
  153   2 H    1       9.370001    3.240000   30.478000       1.0000      1.0079
  154   1 O    8      -0.010000    4.690000   33.257999       6.0000     15.9994
  155   2 H    1       0.000000    5.490000   33.857997       1.0000      1.0079
  156   2 H    1      -0.920000    4.320000   33.347999       1.0000      1.0079
  157   1 O    8       1.040000   11.030001   36.468000       6.0000     15.9994
  158   2 H    1       0.660000   11.620001   37.128000       1.0000      1.0079
  159   2 H    1       0.760000   10.170001   36.857999       1.0000      1.0079
  160   1 O    8       9.800000    3.320000   32.128000       6.0000     15.9994
  161   2 H    1       8.900001    3.350000   32.458000       1.0000      1.0079
  162   2 H    1      10.250001    4.230000   32.007999       1.0000      1.0079
  163   1 O    8       3.650000   11.980001   36.807998       6.0000     15.9994
  164   2 H    1      11.230000   -3.100000   36.787999       1.0000      1.0079
  165   2 H    1       3.380000   12.940001   36.888000       1.0000      1.0079
  166   1 O    8      -1.790000    7.080000   30.817998       6.0000     15.9994
  167   2 H    1      -0.880000    6.890000   30.448001       1.0000      1.0079
  168   2 H    1      -1.760000    7.110000   31.857999       1.0000      1.0079
  169   1 O    8       2.790000   15.990001   33.677999       6.0000     15.9994
  170   2 H    1       2.320000   16.580002   33.007999       1.0000      1.0079
  171   2 H    1      12.180000    1.430000   33.347999       1.0000      1.0079
  172   1 O    8      -7.100000   16.110001   36.298000       6.0000     15.9994
  173   2 H    1      -7.480001   15.240001   36.398000       1.0000      1.0079
  174   2 H    1      -7.400000   16.660002   37.047998       1.0000      1.0079
  175   1 O    8      -7.150001   13.500000   39.527999       6.0000     15.9994
  176   2 H    1      -6.660000   12.700001   39.958000       1.0000      1.0079
  177   2 H    1       1.600000   -0.280000   39.897998       1.0000      1.0079
  178   1 O    8       4.810000    7.960001   34.857999       6.0000     15.9994
  179   2 H    1       5.010000    8.230000   35.808000       1.0000      1.0079
  180   2 H    1       5.500000    8.340000   34.347999       1.0000      1.0079
  181   1 O    8      10.260000    0.510000   29.787998       6.0000     15.9994
  182   2 H    1      10.390000   -0.090000   30.548000       1.0000      1.0079
  183   2 H    1      10.130000   -0.140000   29.037998       1.0000      1.0079
  184   1 O    8      14.070001   11.930000   31.747999       6.0000     15.9994
  185   2 H    1      13.140000   11.940001   31.367999       1.0000      1.0079
  186   2 H    1      -2.640000   10.960001   31.728000       1.0000      1.0079
  187   1 O    8      -9.700001    3.600000   32.757999       6.0000     15.9994
  188   2 H    1     -10.080000    4.110000   33.548000       1.0000      1.0079
  189   2 H    1     -10.200001    3.930000   31.967998       1.0000      1.0079
  190   1 O    8      -2.840000    9.870001   34.417999       6.0000     15.9994
  191   2 H    1      -2.670000   10.830001   34.677997       1.0000      1.0079
  192   2 H    1      -3.560000   10.100000   33.747999       1.0000      1.0079
  193   1 O    8       0.750000    6.390000   37.537998       6.0000     15.9994
  194   2 H    1       1.630000    6.320000   37.947999       1.0000      1.0079
  195   2 H    1       0.940000    6.520000   36.587997       1.0000      1.0079
  196   1 O    8       9.070001   17.400002   39.208000       6.0000     15.9994
  197   2 H    1       8.280001   18.010002   39.197999       1.0000      1.0079
  198   2 H    1       8.760000   16.690001   39.807998       1.0000      1.0079
  199   1 O    8       4.860000   14.490002   39.917999       6.0000     15.9994
  200   2 H    1       5.140000   15.360001   40.357999       1.0000      1.0079
  201   2 H    1       5.020000   14.760000   38.937999       1.0000      1.0079
  202   1 O    8       2.890000    4.460000   29.807998       6.0000     15.9994
  203   2 H    1      -5.470000   18.620001   28.897998       1.0000      1.0079
  204   2 H    1       2.880000    3.630000   30.417999       1.0000      1.0079
  205   1 O    8       2.880000   -0.440000   32.617999       6.0000     15.9994
  206   2 H    1      -6.220000   14.730001   32.177997       1.0000      1.0079
  207   2 H    1      -5.420001   14.580001   33.497997       1.0000      1.0079
  208   1 O    8      11.040001    5.560000   31.217998       6.0000     15.9994
  209   2 H    1      10.490000    5.480001   30.417999       1.0000      1.0079
  210   2 H    1      12.010001    5.500000   30.978000       1.0000      1.0079
  211   1 O    8      -0.940000   18.870001   38.387998       6.0000     15.9994
  212   2 H    1      -0.560000   19.230001   37.567998       1.0000      1.0079
  213   2 H    1      -1.630000   18.230001   38.127998       1.0000      1.0079
  214   1 O    8      -0.090000    1.950000   31.677999       6.0000     15.9994
  215   2 H    1      -0.080000    2.370000   32.567998       1.0000      1.0079
  216   2 H    1      -0.570000    2.600000   31.087999       1.0000      1.0079
  217   1 O    8       4.870000    9.450001   29.888000       6.0000     15.9994
  218   2 H    1       4.790000    9.600000   28.908000       1.0000      1.0079
  219   2 H    1       4.110000   10.040001   30.217998       1.0000      1.0079
  220   1 O    8       0.740000   10.630001   30.007999       6.0000     15.9994
  221   2 H    1       0.140000   11.390000   29.747997       1.0000      1.0079
  222   2 H    1       0.700000   10.370001   31.048000       1.0000      1.0079
  223   1 O    8      -3.340000    5.110001   30.088001       6.0000     15.9994
  224   2 H    1      -2.850000    5.960000   30.327998       1.0000      1.0079
  225   2 H    1      -3.720000    5.260000   29.167999       1.0000      1.0079
  226   1 O    8      -2.720000    6.320000   35.917999       6.0000     15.9994
  227   2 H    1      -2.460000    5.450000   36.287998       1.0000      1.0079
  228   2 H    1      -3.590000    6.070001   35.517999       1.0000      1.0079
  229   1 O    8      -6.090000    7.870001   37.427999       6.0000     15.9994
  230   2 H    1      -5.500000    8.670000   37.367999       1.0000      1.0079
  231   2 H    1      -6.560000    7.920001   36.517997       1.0000      1.0079
  232   1 O    8      15.320001    0.980000   28.908000       6.0000     15.9994
  233   2 H    1      14.350000    0.870000   29.257999       1.0000      1.0079
  234   2 H    1      15.500001    1.920000   29.087997       1.0000      1.0079
  235   1 O    8      -4.810000    4.960000   34.298000       6.0000     15.9994
  236   2 H    1      -5.260000    5.770000   33.907998       1.0000      1.0079
  237   2 H    1      -5.480001    4.370000   34.757999       1.0000      1.0079
  238   1 O    8      11.850000    8.390000   30.287998       6.0000     15.9994
  239   2 H    1      12.770000    8.700001   29.907996       1.0000      1.0079
  240   2 H    1      11.810001    7.450001   30.088001       1.0000      1.0079
  241   1 O    8       1.570000    0.580000   30.037998       6.0000     15.9994
  242   2 H    1       1.060000    1.220000   30.617999       1.0000      1.0079
  243   2 H    1       2.510000    0.820000   29.947997       1.0000      1.0079
  244   1 O    8      -6.470000   11.670000   32.927999       6.0000     15.9994
  245   2 H    1      -6.410000   11.610001   33.957998       1.0000      1.0079
  246   2 H    1      -6.160001   12.620001   32.857999       1.0000      1.0079
  247   1 O    8       0.660000   12.030001   33.968000       6.0000     15.9994
  248   2 H    1      -0.140000   12.640000   33.817998       1.0000      1.0079
  249   2 H    1       0.580000   11.800001   34.947999       1.0000      1.0079
  250   1 O    8      -1.480000   13.560000   33.627998       6.0000     15.9994
  251   2 H    1      -2.030000   13.570002   34.427999       1.0000      1.0079
  252   2 H    1      -2.080000   13.120001   32.997999       1.0000      1.0079
  253   1 O    8       9.290000    7.620000   35.227998       6.0000     15.9994
  254   2 H    1       9.720000    7.460001   34.337999       1.0000      1.0079
  255   2 H    1       8.480000    8.250000   34.997999       1.0000      1.0079
  256   1 O    8      -7.530000    2.250000   39.367999       6.0000     15.9994
  257   2 H    1      -8.030001    1.870000   40.117999       1.0000      1.0079
  258   2 H    1      -8.030001    3.040000   39.058000       1.0000      1.0079
  259   1 O    8      -0.060000    9.080001   38.097999       6.0000     15.9994
  260   2 H    1       0.170000    9.390000   39.087997       1.0000      1.0079
  261   2 H    1       0.440000    8.180000   37.978000       1.0000      1.0079
  262   1 O    8       5.370000    8.670000   37.648000       6.0000     15.9994
  263   2 H    1       5.920000    7.840000   38.138000       1.0000      1.0079
  264   2 H    1       5.950000    9.460000   37.857999       1.0000      1.0079
  265   1 O    8      -2.860000   14.770001   37.298000       6.0000     15.9994
  266   2 H    1      -3.620000   14.750000   36.558000       1.0000      1.0079
  267   2 H    1      -2.030000   15.010000   36.837999       1.0000      1.0079
  268   1 O    8      -7.690001    9.140000   39.337999       6.0000     15.9994
  269   2 H    1      -8.220000    8.680000   39.958000       1.0000      1.0079
  270   2 H    1      -7.190001    8.440001   38.747999       1.0000      1.0079
  271   1 O    8      -2.850000   16.010000   32.687999       6.0000     15.9994
  272   2 H    1      -2.130000   16.710001   32.687999       1.0000      1.0079
  273   2 H    1      -2.350000   15.260000   33.077998       1.0000      1.0079
  274   1 O    8      -1.720000    7.490000   33.507999       6.0000     15.9994
  275   2 H    1      -2.030000    8.380001   33.817998       1.0000      1.0079
  276   2 H    1      -2.040000    6.890000   34.228000       1.0000      1.0079
  277   1 O    8       5.890000    5.260000   34.458000       6.0000     15.9994
  278   2 H    1       5.000000    4.950000   34.827998       1.0000      1.0079
  279   2 H    1       5.760000    6.240000   34.237998       1.0000      1.0079
  280   1 O    8       0.310000    5.110001   30.478000       6.0000     15.9994
  281   2 H    1       1.230000    4.880000   30.298000       1.0000      1.0079
  282   2 H    1       0.340000    4.950000   31.498000       1.0000      1.0079
  283   1 O    8       0.760000    9.680000   32.388000       6.0000     15.9994
  284   2 H    1       0.700000   10.620001   32.837997       1.0000      1.0079
  285   2 H    1       1.650000    9.270000   32.537998       1.0000      1.0079
  286   1 O    8       5.210000   15.660001   32.567998       6.0000     15.9994
  287   2 H    1       5.140000   15.690001   31.607999       1.0000      1.0079
  288   2 H    1       5.450000   14.670001   32.837997       1.0000      1.0079
  289   1 O    8      10.040001   10.170001   29.307998       6.0000     15.9994
  290   2 H    1      -6.370000   10.970000   29.607997       1.0000      1.0079
  291   2 H    1      10.660001    9.450001   29.527999       1.0000      1.0079
  292   1 O    8       4.220000    0.300000   30.197997       6.0000     15.9994
  293   2 H    1       4.670000    0.280000   31.017999       1.0000      1.0079
  294   2 H    1       4.880000    0.650000   29.507999       1.0000      1.0079
  295   1 O    8      11.110001    7.470000   33.247999       6.0000     15.9994
  296   2 H    1      11.270000    8.400001   32.947999       1.0000      1.0079
  297   2 H    1      10.970000    6.980000   32.447997       1.0000      1.0079
  298   1 O    8       2.400000   -2.650000   35.567998       6.0000     15.9994
  299   2 H    1       1.840000   -1.940000   36.007999       1.0000      1.0079
  300   2 H    1       2.560000   -3.400000   36.147998       1.0000      1.0079
  301   3 Pt  78       1.650000    0.740000   26.967998      10.0000    195.0840
  302   3 Pt  78       4.550000    0.850000   26.708000      10.0000    195.0840
  303   3 Pt  78       7.240000    0.740000   26.798000      10.0000    195.0840
  304   3 Pt  78      10.040001    0.770000   26.798000      10.0000    195.0840
  305   3 Pt  78      12.710000    0.820000   26.857997      10.0000    195.0840
  306   3 Pt  78      15.750000    0.780000   26.757999      10.0000    195.0840
  307   3 Pt  78       2.960000    3.080000   26.708000      10.0000    195.0840
  308   3 Pt  78       5.820000    3.230000   26.757999      10.0000    195.0840
  309   3 Pt  78       8.680000    3.170000   26.877998      10.0000    195.0840
  310   3 Pt  78      11.430000    3.170000   26.817996      10.0000    195.0840
  311   3 Pt  78      14.210001    3.180000   26.698001      10.0000    195.0840
  312   3 Pt  78       0.210000    3.210000   26.747997      10.0000    195.0840
  313   3 Pt  78       4.320000    5.570001   26.787998      10.0000    195.0840
  314   3 Pt  78       7.140000    5.750000   26.817996      10.0000    195.0840
  315   3 Pt  78       9.890000    5.630000   26.698001      10.0000    195.0840
  316   3 Pt  78      12.730000    5.630000   26.737998      10.0000    195.0840
  317   3 Pt  78      -1.210000    5.560000   26.617999      10.0000    195.0840
  318   3 Pt  78       1.570000    5.630000   26.838001      10.0000    195.0840
  319   3 Pt  78       5.730000    8.060000   26.847999      10.0000    195.0840
  320   3 Pt  78       8.460000    8.060000   26.908000      10.0000    195.0840
  321   3 Pt  78      11.430000    7.990000   26.957996      10.0000    195.0840
  322   3 Pt  78      -2.630000    8.030001   26.708000      10.0000    195.0840
  323   3 Pt  78       0.100000    8.270000   26.737998      10.0000    195.0840
  324   3 Pt  78       2.980000    8.190001   26.757999      10.0000    195.0840
  325   3 Pt  78       7.250000   10.510000   26.877998      10.0000    195.0840
  326   3 Pt  78      10.000000   10.300001   27.087997      10.0000    195.0840
  327   3 Pt  78      -4.060000   10.510000   26.937999      10.0000    195.0840
  328   3 Pt  78      -1.260000   10.550001   26.917999      10.0000    195.0840
  329   3 Pt  78       1.560000   10.540000   26.617999      10.0000    195.0840
  330   3 Pt  78       4.390000   10.660001   26.768001      10.0000    195.0840
  331   3 Pt  78       8.700001   12.930001   27.037998      10.0000    195.0840
  332   3 Pt  78      -5.450000   12.850000   26.947997      10.0000    195.0840
  333   3 Pt  78      -2.640000   12.810000   26.708000      10.0000    195.0840
  334   3 Pt  78       0.240000   13.060001   26.817996      10.0000    195.0840
  335   3 Pt  78       3.040000   13.030001   26.908000      10.0000    195.0840
  336   3 Pt  78       5.880000   12.930001   26.947997      10.0000    195.0840
  337   3 Pt  78       0.130000    1.620000   24.467998      10.0000    195.0840
  338   3 Pt  78       3.010000    1.500000   24.467998      10.0000    195.0840
  339   3 Pt  78       5.930000    1.550000   24.397998      10.0000    195.0840
  340   3 Pt  78       8.640000    1.500000   24.387996      10.0000    195.0840
  341   3 Pt  78      11.360001    1.630000   24.387996      10.0000    195.0840
  342   3 Pt  78      14.230001    1.530000   24.457996      10.0000    195.0840
  343   3 Pt  78       1.610000    3.970000   24.498000      10.0000    195.0840
  344   3 Pt  78       4.480000    4.030000   24.457996      10.0000    195.0840
  345   3 Pt  78       7.290000    3.990000   24.397998      10.0000    195.0840
  346   3 Pt  78      10.030001    3.970000   24.367999      10.0000    195.0840
  347   3 Pt  78      12.890000    4.050000   24.417999      10.0000    195.0840
  348   3 Pt  78      -1.240000    3.950000   24.367999      10.0000    195.0840
  349   3 Pt  78       3.060000    6.480000   24.507999      10.0000    195.0840
  350   3 Pt  78       5.860000    6.430000   24.478000      10.0000    195.0840
  351   3 Pt  78       8.570001    6.390000   24.347999      10.0000    195.0840
  352   3 Pt  78      11.370001    6.530001   24.437999      10.0000    195.0840
  353   3 Pt  78      -2.570000    6.490001   24.447997      10.0000    195.0840
  354   3 Pt  78       0.190000    6.380000   24.417999      10.0000    195.0840
  355   3 Pt  78       4.520000    8.810000   24.437999      10.0000    195.0840
  356   3 Pt  78       7.240000    8.890000   24.457996      10.0000    195.0840
  357   3 Pt  78      10.020000    9.000000   24.627998      10.0000    195.0840
  358   3 Pt  78      -4.020000    8.900001   24.548000      10.0000    195.0840
  359   3 Pt  78      -1.040000    8.910000   24.467998      10.0000    195.0840
  360   3 Pt  78       1.700000    8.900001   24.347999      10.0000    195.0840
  361   3 Pt  78       5.780000   11.470001   24.447997      10.0000    195.0840
  362   3 Pt  78       8.560000   11.460000   24.647998      10.0000    195.0840
  363   3 Pt  78      -5.440001   11.340000   24.548000      10.0000    195.0840
  364   3 Pt  78      -2.530000   11.190001   24.537998      10.0000    195.0840
  365   3 Pt  78       0.280000   11.370001   24.408000      10.0000    195.0840
  366   3 Pt  78       3.130000   11.390000   24.457996      10.0000    195.0840
  367   3 Pt  78       7.230001   13.760000   24.597999      10.0000    195.0840
  368   3 Pt  78      -6.820001   13.750001   24.607997      10.0000    195.0840
  369   3 Pt  78      -4.030000   13.780001   24.487998      10.0000    195.0840
  370   3 Pt  78      -1.250000   13.720001   24.507999      10.0000    195.0840
  371   3 Pt  78       1.640000   13.780001   24.387996      10.0000    195.0840
  372   3 Pt  78       4.460000   13.900002   24.557998      10.0000    195.0840
  373   3 Pt  78      -8.200001   14.500000   22.207996      10.0000    195.0840
  374   3 Pt  78      -5.450000   14.530001   22.287998      10.0000    195.0840
  375   3 Pt  78      -2.560000   14.410001   22.167999      10.0000    195.0840
  376   3 Pt  78       0.160000   14.430000   22.088001      10.0000    195.0840
  377   3 Pt  78       2.990000   14.470000   22.127998      10.0000    195.0840
  378   3 Pt  78       5.850000   14.570000   22.067996      10.0000    195.0840
  379   3 Pt  78       1.600000    2.450000   22.187999      10.0000    195.0840
  380   3 Pt  78       4.480000    2.410000   22.158000      10.0000    195.0840
  381   3 Pt  78       7.240000    2.320000   22.077998      10.0000    195.0840
  382   3 Pt  78      10.000000    2.260000   22.088001      10.0000    195.0840
  383   3 Pt  78      12.870001    2.300000   22.037998      10.0000    195.0840
  384   3 Pt  78      -1.180000    2.330000   22.137996      10.0000    195.0840
  385   3 Pt  78       3.080000    4.850000   22.197997      10.0000    195.0840
  386   3 Pt  78       5.890000    4.790000   22.127998      10.0000    195.0840
  387   3 Pt  78       8.680000    4.730000   22.057998      10.0000    195.0840
  388   3 Pt  78      11.440001    4.810000   22.117999      10.0000    195.0840
  389   3 Pt  78      -2.650000    4.720000   22.137996      10.0000    195.0840
  390   3 Pt  78       0.220000    4.790000   22.117999      10.0000    195.0840
  391   3 Pt  78       4.450000    7.270000   22.088001      10.0000    195.0840
  392   3 Pt  78       7.190001    7.200000   22.117999      10.0000    195.0840
  393   3 Pt  78       9.990001    7.380000   22.197997      10.0000    195.0840
  394   3 Pt  78      -4.110000    7.190001   22.217998      10.0000    195.0840
  395   3 Pt  78      -1.190000    7.190001   22.097999      10.0000    195.0840
  396   3 Pt  78       1.630000    7.190001   22.158000      10.0000    195.0840
  397   3 Pt  78       5.860000    9.690001   22.137996      10.0000    195.0840
  398   3 Pt  78       8.620001    9.630001   22.207996      10.0000    195.0840
  399   3 Pt  78      -5.400000    9.680000   22.247997      10.0000    195.0840
  400   3 Pt  78      -2.600000    9.560000   22.187999      10.0000    195.0840
  401   3 Pt  78       0.300000    9.540001   22.167999      10.0000    195.0840
  402   3 Pt  78       3.020000    9.630001   22.088001      10.0000    195.0840
  403   3 Pt  78       7.250000   12.180000   22.137996      10.0000    195.0840
  404   3 Pt  78      -6.930000   12.110001   22.277999      10.0000    195.0840
  405   3 Pt  78      -3.990000   12.100000   22.277999      10.0000    195.0840
  406   3 Pt  78      -1.240000   11.930000   22.158000      10.0000    195.0840
  407   3 Pt  78       1.630000   12.110001   22.037998      10.0000    195.0840
  408   3 Pt  78       4.400000   12.200001   22.067996      10.0000    195.0840
  409   3 Pt  78       1.630000    0.680000   19.940000      10.0000    195.0840
  410   3 Pt  78       4.450000    0.630000   19.960000      10.0000    195.0840
  411   3 Pt  78       7.180000    0.670000   19.810000      10.0000    195.0840
  412   3 Pt  78       9.920000    0.730000   19.720000      10.0000    195.0840
  413   3 Pt  78      12.800001    0.630000   19.750000      10.0000    195.0840
  414   3 Pt  78      15.540000    0.680000   19.830000      10.0000    195.0840
  415   3 Pt  78       3.000000    3.150000   19.890000      10.0000    195.0840
  416   3 Pt  78       5.780000    3.190000   19.780000      10.0000    195.0840
  417   3 Pt  78       8.550000    3.210000   19.780000      10.0000    195.0840
  418   3 Pt  78      11.370001    3.180000   19.760000      10.0000    195.0840
  419   3 Pt  78      14.220000    3.100000   19.840000      10.0000    195.0840
  420   3 Pt  78       0.170000    3.030000   19.810000      10.0000    195.0840
  421   3 Pt  78       4.400000    5.560000   19.880000      10.0000    195.0840
  422   3 Pt  78       7.140000    5.660000   19.760000      10.0000    195.0840
  423   3 Pt  78      10.000000    5.670000   19.820000      10.0000    195.0840
  424   3 Pt  78      12.750001    5.500000   19.870000      10.0000    195.0840
  425   3 Pt  78      -1.170000    5.540000   19.870000      10.0000    195.0840
  426   3 Pt  78       1.710000    5.530000   19.910000      10.0000    195.0840
  427   3 Pt  78       5.760000    8.100000   19.860000      10.0000    195.0840
  428   3 Pt  78       8.610001    8.100000   19.800000      10.0000    195.0840
  429   3 Pt  78      11.400002    7.950000   19.880000      10.0000    195.0840
  430   3 Pt  78      -2.640000    7.910000   19.870000      10.0000    195.0840
  431   3 Pt  78       0.180000    7.910000   19.810000      10.0000    195.0840
  432   3 Pt  78       2.980000    8.040000   19.790000      10.0000    195.0840
  433   3 Pt  78       7.190001   10.490000   19.910000      10.0000    195.0840
  434   3 Pt  78      10.050000   10.450001   19.920000      10.0000    195.0840
  435   3 Pt  78      -4.010000   10.410000   19.920000      10.0000    195.0840
  436   3 Pt  78      -1.210000   10.310000   19.780000      10.0000    195.0840
  437   3 Pt  78       1.480000   10.450001   19.780000      10.0000    195.0840
  438   3 Pt  78       4.300000   10.480001   19.840000      10.0000    195.0840
  439   3 Pt  78       8.530001   12.930001   19.810000      10.0000    195.0840
  440   3 Pt  78      -5.500000   12.760000   20.050000      10.0000    195.0840
  441   3 Pt  78      -2.650000   12.800001   19.860000      10.0000    195.0840
  442   3 Pt  78       0.060000   12.790001   19.740000      10.0000    195.0840
  443   3 Pt  78       2.860000   12.880001   19.650000      10.0000    195.0840
  444   3 Pt  78       5.690000   12.900001   19.770000      10.0000    195.0840
  445   3 Pt  78       0.190000    1.340000   17.690000      10.0000    195.0840
  446   3 Pt  78       3.030000    1.390000   17.720000      10.0000    195.0840
  447   3 Pt  78       5.820000    1.560000   17.650000      10.0000    195.0840
  448   3 Pt  78       8.650001    1.570000   17.510000      10.0000    195.0840
  449   3 Pt  78      11.380000    1.560000   17.440000      10.0000    195.0840
  450   3 Pt  78      14.110001    1.490000   17.430000      10.0000    195.0840
  451   3 Pt  78       1.570000    3.740000   17.540000      10.0000    195.0840
  452   3 Pt  78       4.400000    3.890000   17.530000      10.0000    195.0840
  453   3 Pt  78       7.160000    3.880000   17.420000      10.0000    195.0840
  454   3 Pt  78      10.070001    3.970000   17.490000      10.0000    195.0840
  455   3 Pt  78      12.830001    3.980000   17.610000      10.0000    195.0840
  456   3 Pt  78      -1.290000    3.830000   17.530000      10.0000    195.0840
  457   3 Pt  78       3.050000    6.240000   17.490000      10.0000    195.0840
  458   3 Pt  78       5.840001    6.310000   17.470000      10.0000    195.0840
  459   3 Pt  78       8.600000    6.270000   17.370000      10.0000    195.0840
  460   3 Pt  78      11.350001    6.370000   17.520000      10.0000    195.0840
  461   3 Pt  78      -2.690000    6.320000   17.590000      10.0000    195.0840
  462   3 Pt  78       0.250000    6.150000   17.520000      10.0000    195.0840
  463   3 Pt  78       4.350000    8.730000   17.480000      10.0000    195.0840
  464   3 Pt  78       7.180000    8.660001   17.490000      10.0000    195.0840
  465   3 Pt  78       9.950001    8.730000   17.600000      10.0000    195.0840
  466   3 Pt  78      -4.140000    8.820001   17.600000      10.0000    195.0840
  467   3 Pt  78      -1.280000    8.740000   17.480000      10.0000    195.0840
  468   3 Pt  78       1.510000    8.730000   17.520000      10.0000    195.0840
  469   3 Pt  78       5.730000   11.190001   17.460000      10.0000    195.0840
  470   3 Pt  78       8.490001   11.110001   17.690000      10.0000    195.0840
  471   3 Pt  78      -5.550000   11.250000   17.550000      10.0000    195.0840
  472   3 Pt  78      -2.670000   11.160001   17.600000      10.0000    195.0840
  473   3 Pt  78       0.070000   11.310000   17.390000      10.0000    195.0840
  474   3 Pt  78       2.840000   11.180000   17.360000      10.0000    195.0840
  475   3 Pt  78       7.170000   13.540001   17.540000      10.0000    195.0840
  476   3 Pt  78      -6.890000   13.620001   17.650000      10.0000    195.0840
  477   3 Pt  78      -4.040000   13.580000   17.610000      10.0000    195.0840
  478   3 Pt  78      -1.350000   13.790001   17.430000      10.0000    195.0840
  479   3 Pt  78       1.470000   13.730000   17.340000      10.0000    195.0840
  480   3 Pt  78       4.300000   13.620001   17.320000      10.0000    195.0840
  481   3 Pt  78      -8.250000   14.380001   15.270000      10.0000    195.0840
  482   3 Pt  78      -5.470000   14.280001   15.360000      10.0000    195.0840
  483   3 Pt  78      -2.710000   14.390000   15.159999      10.0000    195.0840
  484   3 Pt  78      -0.060000   14.440001   15.099999      10.0000    195.0840
  485   3 Pt  78       2.930000   14.390000   15.020000      10.0000    195.0840
  486   3 Pt  78       5.860000   14.450001   15.220000      10.0000    195.0840
  487   3 Pt  78       1.590000    2.060000   15.210000      10.0000    195.0840
  488   3 Pt  78       4.390000    2.170000   15.230000      10.0000    195.0840
  489   3 Pt  78       7.130001    2.250000   15.040000      10.0000    195.0840
  490   3 Pt  78       9.840000    2.270000   15.059999      10.0000    195.0840
  491   3 Pt  78      12.820001    2.290000   15.059999      10.0000    195.0840
  492   3 Pt  78      -1.260000    2.220000   15.280000      10.0000    195.0840
  493   3 Pt  78       2.930000    4.460000   15.240000      10.0000    195.0840
  494   3 Pt  78       5.650000    4.510000   15.130000      10.0000    195.0840
  495   3 Pt  78       8.450001    4.570000   15.000000      10.0000    195.0840
  496   3 Pt  78      11.440001    4.680000   15.190000      10.0000    195.0840
  497   3 Pt  78      -2.680000    4.630000   15.170000      10.0000    195.0840
  498   3 Pt  78       0.090000    4.530000   15.170000      10.0000    195.0840
  499   3 Pt  78       4.390000    7.100000   15.110000      10.0000    195.0840
  500   3 Pt  78       7.110000    7.050000   15.000000      10.0000    195.0840
  501   3 Pt  78      10.010000    7.100000   15.120000      10.0000    195.0840
  502   3 Pt  78      -4.050000    7.120000   15.270000      10.0000    195.0840
  503   3 Pt  78      -1.310000    6.940000   15.320000      10.0000    195.0840
  504   3 Pt  78       1.620000    6.940000   15.200000      10.0000    195.0840
  505   3 Pt  78       5.690000    9.450001   15.220000      10.0000    195.0840
[...]
 -                                                                             -
 -                                DBCSR STATISTICS                             -
 -                                                                             -
 -------------------------------------------------------------------------------
 COUNTER                                    TOTAL       BLAS       SMM       ACC
 flops     5 x     5 x   124           6228210000       0.0%    100.0%      0.0%
 flops    13 x     5 x   124           7897188000       0.0%    100.0%      0.0%
 flops     5 x    13 x   124           7904442000       0.0%    100.0%      0.0%
 flops    13 x    13 x   124           9436486800       0.0%    100.0%      0.0%
 flops     5 x     5 x    96           9643680000       0.0%    100.0%      0.0%
 flops    13 x     5 x    96          12227904000       0.0%    100.0%      0.0%
 flops     5 x    13 x    96          12239136000       0.0%    100.0%      0.0%
 flops    20 x    13 x   124          13518232000       0.0%    100.0%      0.0%
 flops    13 x    20 x   124          13592384000       0.0%    100.0%      0.0%
 flops    20 x     5 x   124          14432360000       0.0%    100.0%      0.0%
 flops     5 x    20 x   124          14442280000       0.0%    100.0%      0.0%
 flops    13 x    13 x    96          14611334400       0.0%    100.0%      0.0%
 flops    20 x    13 x    96          20931456000       0.0%    100.0%      0.0%
 flops    13 x    20 x    96          21046272000       0.0%    100.0%      0.0%
 flops    20 x     5 x    96          22346880000       0.0%    100.0%      0.0%
 flops     5 x    20 x    96          22362240000       0.0%    100.0%      0.0%
 flops     5 x     5 x   128          83578560000       0.0%    100.0%      0.0%
 flops    13 x     5 x   128         105975168000       0.0%    100.0%      0.0%
 flops     5 x    13 x   128         106072512000       0.0%    100.0%      0.0%
 flops    20 x    20 x   124         116242560000       0.0%    100.0%      0.0%
 flops    13 x    13 x   128         126631564800       0.0%    100.0%      0.0%
 flops    20 x    20 x    96         179988480000       0.0%    100.0%      0.0%
 flops    20 x    13 x   128         181405952000       0.0%    100.0%      0.0%
 flops    13 x    20 x   128         182401024000       0.0%    100.0%      0.0%
 flops    20 x     5 x   128         193672960000       0.0%    100.0%      0.0%
 flops     5 x    20 x   128         193806080000       0.0%    100.0%      0.0%
 flops    20 x    20 x   128        1559900160000       0.0%    100.0%      0.0%
 flops inhomo. stacks                           0       0.0%      0.0%      0.0%
 flops total                         3.252536E+12       0.0%    100.0%      0.0%
 flops max/rank                     30.807216E+09       0.0%    100.0%      0.0%
 matmuls inhomo. stacks                         0       0.0%      0.0%      0.0%
 matmuls total                           79464000       0.0%    100.0%      0.0%
 number of processed stacks                914400       0.0%    100.0%      0.0%
 average stack size                                     0.0      86.9       0.0
 marketing flops                     6.754390E+12
 -------------------------------------------------------------------------------
 # multiplications                             50
 max memory usage/rank               1.646449E+09
 # max total images/rank                        2
 # max 3D layers                                1
 # MPI messages exchanged                  185600
 MPI messages size (bytes):
  total size                       115.346874E+09
  min size                         315.648000E+03
  max size                         850.944000E+03
  average size                     621.481000E+03
 MPI breakdown and total messages size (bytes):
             size <=      128                   0                        0
       128 < size <=     8192                   0                        0
      8192 < size <=    32768                   0                        0
     32768 < size <=   131072                   0                        0
    131072 < size <=  4194304              185600             115346880000
   4194304 < size <= 16777216                   0                        0
  16777216 < size                               0                        0
 -------------------------------------------------------------------------------

 *** WARNING in dbcsr_mm.F:290 :: Using a non-square number of MPI ranks ***
 *** might lead to poor performance. Used ranks: 128 Suggested: 121 256  ***

 -------------------------------------------------------------------------------
 -                                                                             -
 -                      DBCSR MESSAGE PASSING PERFORMANCE                      -
 -                                                                             -
 -------------------------------------------------------------------------------
 ROUTINE             CALLS      AVE VOLUME [Bytes]
 MP_Bcast               28                     12.
 MP_Allreduce          424                     11.
 MP_Alltoall          1412                 603641.
 MP_ISend             3200                 294020.
 MP_IRecv             3200                 287412.
 -------------------------------------------------------------------------------

 -------------------------------------------------------------------------------
 -                                                                             -
 -                                DBM STATISTICS                               -
 -                                                                             -
 -------------------------------------------------------------------------------
    M  x    N  x    K                                          COUNT     PERCENT
 -------------------------------------------------------------------------------

 -------------------------------------------------------------------------------
 -                                                                             -
 -                                GRID STATISTICS                              -
 -                                                                             -
 -------------------------------------------------------------------------------
 LP    KERNEL             BACKEND                              COUNT     PERCENT
 4     collocate general  REF                               20313700      22.16%
 4     integrate general  REF                               20190972      22.02%
 3     collocate general  REF                               14177300      15.47%
 3     integrate general  REF                               14118025      15.40%
 2     collocate general  REF                               11213550      12.23%
 2     integrate general  REF                               10989279      11.99%
 5     integrate general  REF                                 406274       0.44%
 0     collocate general  REF                                 132096       0.14%
 0     integrate general  REF                                  66048       0.07%
 1     integrate general  REF                                  66048       0.07%
 -------------------------------------------------------------------------------

 MEMORY| Estimated peak process memory [MiB]                                1810

 -------------------------------------------------------------------------------
 ----                             MULTIGRID INFO                            ----
 -------------------------------------------------------------------------------
 count for grid        1:        1096422          cutoff [a.u.]          200.00
 count for grid        2:        1091595          cutoff [a.u.]           66.67
 count for grid        3:         716302          cutoff [a.u.]           22.22
 count for grid        4:         555102          cutoff [a.u.]            7.41
 total gridlevel count  :        3459421

 -------------------------------------------------------------------------------
 -                                                                             -
 -                         MESSAGE PASSING PERFORMANCE                         -
 -                                                                             -
 -------------------------------------------------------------------------------

 ROUTINE             CALLS      AVE VOLUME [Bytes]
 MP_Group                4
 MP_Bcast              253                2255101.
 MP_Allreduce         3694                  29371.
 MP_Sync               104
 MP_Alltoall          3022               16824730.
 MP_SendRecv           508                   6078.
 MP_ISendRecv        25400                  61740.
 MP_Wait             44864
 MP_comm_split          50
 MP_ISend            18344                 256260.
 MP_IRecv            18344                 256260.
 MP_Recv               183                1694720.
 MP_Write_All            3                1797408.
 -------------------------------------------------------------------------------


 -------------------------------------------------------------------------------
 -                                                                             -
 -                           R E F E R E N C E S                               -
 -                                                                             -
 -------------------------------------------------------------------------------
 
 CP2K version 2022.1, the CP2K developers group (2022).
 CP2K is freely available from https://www.cp2k.org/ .

 Kuehne,Thomas D.; Iannuzzi,Marcella; Del Ben,Mauro;
 Rybkin,Vladimir V.; Seewald,Patrick; Stein,Frederick; Laino,Teodoro;
 Khaliullin,Rustam Z.; Schuett,Ole; Schiffmann,Florian; Golze,Dorothea;
 Wilhelm,Jan; Chulkov,Sergey; Bani-Hashemian,Mohammad Hossein;
 Weber,Valery; Borstnik,Urban; Taillefumier,Mathieu;
 Jakobovits,Alice Shoshana; Lazzaro,Alfio; Pabst,Hans; Mueller,Tiziano;
 Schade,Robert; Guidon,Manuel; Andermatt,Samuel; Holmberg,Nico;
 Schenter,Gregory K.; Hehn,Anna; Bussy,Augustin; Belleflamme,Fabian;
 Tabacchi,Gloria; Gloess,Andreas; Lass,Michael; Bethune,Iain;
 Mundy,Christopher J.; Plessl,Christian; Watkins,Matt;
 VandeVondele,Joost; Krack,Matthias; Hutter,Juerg. 
 The Journal of Chemical Physics, 152 (19), (2020). 
 CP2K: An electronic structure and molecular dynamics software package -
 Quickstep: Efficient and accurate electronic structure calculations.
 https://doi.org/10.1063/5.0007045

 Goerigk, Lars; Hansen, Andreas; Bauer, Christoph; Ehrlich, Stephan;
 Najibi, Asim; Grimme, Stefan. , 19 (48), (2017). 
 A look at the density functional theory zoo with the advanced GMTKN55 database
 for general main group thermochemistry, kinetics and noncovalent interactions.
 https://doi.org/10.1039/C7CP04913G

 Bani-Hashemian, MH; Bruck, S; Luisier, M; VandeVondele, J. 
 JOURNAL OF CHEMICAL PHYSICS, 144 (4), 044113 (2016). 
 A generalized Poisson solver for first-principles device simulations.
 https://doi.org/10.1063/1.4940796

 Schuett, Ole; Messmer, Peter; Hutter, Juerg; VandeVondele, Joost. 
 Electronic Structure Calculations on Graphics Processing Units, John
 Wiley & Sons, Ltd, 173-190 (2016). 
 GPU-Accelerated Sparse Matrix-Matrix Multiplication for
 Linear Scaling Density Functional Theory.
 https://doi.org/10.1002/9781118670712.ch8

 Heinecke, A; Henry, G; Hutchinson, M; Pabst, H. 
 Proceedings of Intl. Supercomputing Conference, 981-991 (2016). 
 LIBXSMM: Accelerating Small Matrix Multiplications
 by Runtime Code Generation.
 https://doi.org/10.1109/SC.2016.83

 Borstnik, U; VandeVondele, J; Weber, V; Hutter, J. 
 PARALLEL COMPUTING, 40 (5-6), 47-58 (2014). 
 Sparse matrix multiplication: The distributed block-compressed sparse
 row library.
 https://doi.org/10.1016/j.parco.2014.03.012

 Hutter, J; Iannuzzi, M; Schiffmann, F; VandeVondele, J. 
 WIREs Comput Mol Sci., 4 (1), 15-25 (2014). 
 CP2K: atomistic simulations of condensed matter systems.
 https://doi.org/10.1002/wcms.1159

 Marek, A; Blum, V; Johanni, R; Havu, V; Lang, B; Auckenthaler, T;
 Heinecke, A; Bungartz, H; Lederer, H. 
 Journal of Physics: Condensed Matter, 26 (21), (2014). 
 The ELPA library: scalable parallel eigenvalue solutions for
 electronic structure
 theory and computational science.
 https://doi.org/10.1088/0953-8984/26/21/213201

 Grimme, S; Ehrlich, S; Goerigk, L. 
 JOURNAL OF COMPUTATIONAL CHEMISTRY, 32, 1456 (2011). 
 Effect of the damping function in dispersion corrected density functional theory.
 https://doi.org/10.1002/jcc.21759

 Grimme, S; Antony, J; Ehrlich, S; Krieg, H. 
 JOURNAL OF CHEMICAL PHYSICS, 132 (15), 154104 (2010). 
 A consistent and accurate ab initio parametrization of density
 functional dispersion correction (DFT-D) for the 94 elements H-Pu.
 https://doi.org/10.1063/1.3382344

 VandeVondele, J; Hutter, J. 
 JOURNAL OF CHEMICAL PHYSICS, 127 (11), 114105 (2007). 
 Gaussian basis sets for accurate calculations on molecular systems in
 gas and condensed phases.
 https://doi.org/10.1063/1.2770708

 Krack, M. 
 THEORETICAL CHEMISTRY ACCOUNTS, 114 (1-3), 145-152 (2005). 
 Pseudopotentials for H to Kr optimized for gradient-corrected
 exchange-correlation functionals.
 https://doi.org/10.1007/s00214-005-0655-y

 VandeVondele, J; Krack, M; Mohamed, F; Parrinello, M; Chassaing, T;
 Hutter, J. COMPUTER PHYSICS COMMUNICATIONS, 167 (2), 103-128 (2005). 
 QUICKSTEP: Fast and accurate density functional calculations using a
 mixed Gaussian and plane waves approach.
 https://doi.org/10.1016/j.cpc.2004.12.014

 Frigo, M; Johnson, SG. 
 PROCEEDINGS OF THE IEEE, 93 (2), 216-231 (2005). 
 The design and implementation of FFTW3.
 https://doi.org/10.1109/JPROC.2004.840301

 Hartwigsen, C; Goedecker, S; Hutter, J. 
 PHYSICAL REVIEW B, 58 (7), 3641-3662 (1998). 
 Relativistic separable dual-space Gaussian pseudopotentials from H to Rn.
 https://doi.org/10.1103/PhysRevB.58.3641

 Lippert, G; Hutter, J; Parrinello, M. 
 MOLECULAR PHYSICS, 92 (3), 477-487 (1997). 
 A hybrid Gaussian and plane wave density functional scheme.
 https://doi.org/10.1080/002689797170220

 Perdew, JP; Burke, K; Ernzerhof, M. 
 PHYSICAL REVIEW LETTERS, 77 (18), 3865-3868 (1996). 
 Generalized gradient approximation made simple.
 https://doi.org/10.1103/PhysRevLett.77.3865

 Goedecker, S; Teter, M; Hutter, J. 
 PHYSICAL REVIEW B, 54 (3), 1703-1710 (1996). 
 Separable dual-space Gaussian pseudopotentials.
 https://doi.org/10.1103/PhysRevB.54.1703


 -------------------------------------------------------------------------------
 -                                                                             -
 -                                T I M I N G                                  -
 -                                                                             -
 -------------------------------------------------------------------------------
 SUBROUTINE                       CALLS  ASD         SELF TIME        TOTAL TIME
                                MAXIMUM       AVERAGE  MAXIMUM  AVERAGE  MAXIMUM
 CP2K                                 1  1.0    0.043    0.054  351.222  351.224
 qs_forces                            1  2.0    0.002    0.002  350.525  350.527
 qs_energies                          1  3.0    0.000    0.000  344.354  344.359
 scf_env_do_scf                       1  4.0    0.000    0.000  335.766  335.907
 scf_env_do_scf_inner_loop           49  5.0    0.003    0.007  335.766  335.907
 rebuild_ks_matrix                   50  6.9    0.000    0.000  180.612  180.649
 qs_ks_build_kohn_sham_matrix        50  7.9    0.008    0.010  180.611  180.648
 qs_ks_update_qs_env                 49  6.0    0.000    0.000  176.600  176.636
 pw_transfer                       2604 12.2    0.189    0.246  113.156  115.379
 fft_wrap_pw1pw2                   2604 13.2    0.026    0.042  112.967  115.169
 fft_wrap_pw1pw2_200               2304 14.4    7.648    9.074  111.465  113.644
 pw_poisson_solve                    50  8.9    0.004    0.012   97.379   97.454
 qs_scf_new_mos                      49  6.0    0.002    0.010   94.685   94.836
 fft3d_ps                          2604 15.2   32.662   36.297   90.827   94.458
 implicit_poisson_solver_mixed_      50  9.9    2.061    2.522   92.274   92.385
 eigensolver                         49  7.0    0.004    0.006   89.234   89.490
 derive_fft                         300 12.1    0.019    0.023   64.865   65.033
 cp_fm_diag_elpa                     50  8.0    0.001    0.001   62.582   62.767
 cp_fm_redistribute_end              50  9.0    8.207   62.024    8.306   62.096
 cp_fm_diag_elpa_base                50  9.0   52.947   60.621   53.473   61.218
 mp_alltoall_z22v                  2604 17.2   48.703   59.969   48.703   59.969
 qs_rho_update_rho_low               50  6.0    0.000    0.000   56.910   56.923
 calculate_rho_elec                  50  7.0    0.097    0.119   56.910   56.923
 sum_up_and_integrate                50  8.9    0.272    0.337   55.687   55.725
 apply_P_operator                   250 11.1    1.328    1.489   55.559   55.724
 integrate_v_rspace                  50  9.9    0.002    0.003   55.415   55.529
 grid_collocate_task_list            50  8.0   36.313   44.958   36.313   44.958
 grid_integrate_task_list            50 10.9   33.697   40.754   33.697   40.754
 x_to_yz                           1501 16.4    6.315    8.035   36.725   38.123
 rs_pw_transfer                     404 10.4    0.005    0.006   25.225   29.976
 cp_fm_triangular_multiply          147  8.0   27.841   28.176   27.841   28.176
 yz_to_x                            803 16.4    2.187    2.561   20.287   27.581
 qs_vxc_create                       50  8.9    0.001    0.002   24.629   24.926
 xc_vxc_pw_create                    50  9.9    0.424    0.529   24.627   24.925
 density_rs2pw                       50  8.0    0.003    0.004   19.356   24.365
 xc_pw_derive                       300 11.9    0.005    0.006   17.347   19.217
 apply_poisson_operator_fft          50 10.9    0.001    0.001   16.216   16.522
 rs_pw_transfer_RS2PW_200            52  9.9    3.413    3.850   11.685   16.423
 mp_waitany                       18344 12.4   11.554   16.418   11.554   16.418
 apply_inv_laplace_operator_fft     152 11.6    0.382    0.457   14.631   15.147
 potential_pw2rs                     50 10.9    0.015    0.017   14.142   14.250
 mp_alltoall_d11v                   707 10.2    9.168   13.577    9.168   13.577
 xc_pw_divergence                    50 10.9    0.003    0.010   11.777   13.205
 xc_rho_set_and_dset_create          50 10.9    0.247    0.285   11.971   13.098
 rs_gather_matrices                  50 10.9    0.059    0.080    7.563   12.006
 ps_implicit_compute_error_fft      100 10.9    0.629    0.764   10.783   11.541
 ps_implicit_compute_veps            50 10.9    0.290    0.352   10.927   11.108
 pw_scatter_p                      1651 15.4    9.223   10.633    9.223   10.633
 rs_pw_transfer_PW2RS_200            52 12.8    3.919    4.070    8.188    8.425
 gspace_mixing                       48  6.0    0.091    0.114    8.365    8.367
 pw_derive                         1200 13.1    7.599    8.141    7.599    8.141
 -------------------------------------------------------------------------------

 The number of warnings for this run is : 1
 
 -------------------------------------------------------------------------------
  **** **** ******  **  PROGRAM ENDED AT                 2023-12-01 22:18:28.915
 ***** ** ***  *** **   PROGRAM RAN ON                                     cu075
 **    ****   ******    PROGRAM RAN BY                                     jxzhu
 ***** **    ** ** **   PROGRAM PROCESS ID                                 23784
  **** **  *******  **  PROGRAM STOPPED IN /public/home/jxzhu/tmp_calc/49ea75cdf
                                           59e74eb18267848f48360015ce7375f/calc/
                                           000100.000/search_hi.000000
