 DBCSR| CPU Multiplication driver                                           XSMM
 DBCSR| Multrec recursion limit                                              512
 DBCSR| Multiplication stack size                                           1000
 DBCSR| Maximum elements for images                                    UNLIMITED
 DBCSR| Multiplicative factor virtual images                                   1
 DBCSR| Use multiplication densification                                       T
 DBCSR| Multiplication size stacks                                             3
 DBCSR| Use memory pool for CPU allocation                                     F
 DBCSR| Number of 3D layers                                               SINGLE
 DBCSR| Use MPI memory allocation                                              F
 DBCSR| Use RMA algorithm                                                      F
 DBCSR| Use Communication thread                                               T
 DBCSR| Communication thread load                                             87
 DBCSR| MPI: My node id                                                        0
 DBCSR| MPI: Number of nodes                                                 128
 DBCSR| OMP: Current number of threads                                         1
 DBCSR| OMP: Max number of threads                                             1
 DBCSR| Split modifier for TAS multiplication algorithm                  1.0E+00


  **** **** ******  **  PROGRAM STARTED AT               2023-12-02 19:02:15.150
 ***** ** ***  *** **   PROGRAM STARTED ON                                 cu029
 **    ****   ******    PROGRAM STARTED BY                                 jxzhu
 ***** **    ** ** **   PROGRAM PROCESS ID                                 60682
  **** **  *******  **  PROGRAM STARTED IN /public/home/jxzhu/tmp_calc/e769ef683
                                           7c19ec1b2245cd1b606567b63bed5c1/calc/
                                           002000.000/search_hi.000001

 CP2K| version string:                                       CP2K version 2022.1
 CP2K| source code revision number:                                  git:2caeb6f
 CP2K| cp2kflags: omp libint fftw3 libxc elpa parallel mpi3 scalapack cosma xsmm
 CP2K|             plumed2 spglib mkl sirius libvori libbqb
 CP2K| is freely available from                            https://www.cp2k.org/
 CP2K| Program compiled at                           Mon Jul 3 17:37:06 CST 2023
 CP2K| Program compiled on                                                 mu003
 CP2K| Program compiled for                                                local
 CP2K| Data directory path                             /public/home/jxzhu/basis/
 CP2K| Input file name                                                 input.inp
 
 GLOBAL| Force Environment number                                              1
 GLOBAL| Basis set file name                                        BASIS_MOLOPT
 GLOBAL| Potential file name                                      GTH_POTENTIALS
 GLOBAL| MM Potential file name                                     MM_POTENTIAL
 GLOBAL| Coordinate file name                                          coord.xyz
 GLOBAL| Method name                                                        CP2K
 GLOBAL| Project name                                                       cp2k
 GLOBAL| Run type                                                   ENERGY_FORCE
 GLOBAL| FFT library                                                       FFTW3
 GLOBAL| Diagonalization library                                            ELPA
 GLOBAL| Minimum number of eigenvectors for ELPA usage                        16
 GLOBAL| Orthonormality check for eigenvectors                          DISABLED
 GLOBAL| Matrix multiplication library                                     COSMA
 GLOBAL| All-to-all communication in single precision                          F
 GLOBAL| FFTs using library dependent lengths                                  T
 GLOBAL| Grid backend                                                       AUTO
 GLOBAL| Global print level                                               MEDIUM
 GLOBAL| MPI I/O enabled                                                       T
 GLOBAL| Total number of message passing processes                           128
 GLOBAL| Number of threads for this process                                    1
 GLOBAL| This output is from process                                           0
 GLOBAL| Stack size for threads created by OpenMP (OMP_STACKSIZE)        default
 GLOBAL| CPU model name                 Intel(R) Xeon(R) Gold 6338 CPU @ 2.00GHz
 GLOBAL| CPUID                                                              1003

 MEMORY| system memory details [Kb]
 MEMORY|                        rank 0           min           max       average
 MEMORY| MemTotal            263619172     263619172     263619172     263619172
 MEMORY| MemFree             206559780     206559780     211922100     209240955
 MEMORY| Buffers                    20            20            48            34
 MEMORY| Cached                1791156       1150380       1791156       1470768
 MEMORY| Slab                  1739008       1597924       1739008       1668466
 MEMORY| SReclaimable           232252        232252        284872        258562
 MEMORY| MemLikelyFree       208583208     208583208     213357400     210970319


 *** Fundamental physical constants (SI units) ***

 *** Literature: B. J. Mohr and B. N. Taylor,
 ***             CODATA recommended values of the fundamental physical
 ***             constants: 2006, Web Version 5.1
 ***             http://physics.nist.gov/constants

 Speed of light in vacuum [m/s]                             2.99792458000000E+08
 Magnetic constant or permeability of vacuum [N/A**2]       1.25663706143592E-06
 Electric constant or permittivity of vacuum [F/m]          8.85418781762039E-12
 Planck constant (h) [J*s]                                  6.62606896000000E-34
 Planck constant (h-bar) [J*s]                              1.05457162825177E-34
 Elementary charge [C]                                      1.60217648700000E-19
 Electron mass [kg]                                         9.10938215000000E-31
 Electron g factor [ ]                                     -2.00231930436220E+00
 Proton mass [kg]                                           1.67262163700000E-27
 Fine-structure constant                                    7.29735253760000E-03
 Rydberg constant [1/m]                                     1.09737315685270E+07
 Avogadro constant [1/mol]                                  6.02214179000000E+23
 Boltzmann constant [J/K]                                   1.38065040000000E-23
 Atomic mass unit [kg]                                      1.66053878200000E-27
 Bohr radius [m]                                            5.29177208590000E-11

 *** Conversion factors ***

 [u] -> [a.u.]                                              1.82288848426455E+03
 [Angstrom] -> [Bohr] = [a.u.]                              1.88972613288564E+00
 [a.u.] = [Bohr] -> [Angstrom]                              5.29177208590000E-01
 [a.u.] -> [s]                                              2.41888432650478E-17
 [a.u.] -> [fs]                                             2.41888432650478E-02
 [a.u.] -> [J]                                              4.35974393937059E-18
 [a.u.] -> [N]                                              8.23872205491840E-08
 [a.u.] -> [K]                                              3.15774647902944E+05
 [a.u.] -> [kJ/mol]                                         2.62549961709828E+03
 [a.u.] -> [kcal/mol]                                       6.27509468713739E+02
 [a.u.] -> [Pa]                                             2.94210107994716E+13
 [a.u.] -> [bar]                                            2.94210107994716E+08
 [a.u.] -> [atm]                                            2.90362800883016E+08
 [a.u.] -> [eV]                                             2.72113838565563E+01
 [a.u.] -> [Hz]                                             6.57968392072181E+15
 [a.u.] -> [1/cm] (wave numbers)                            2.19474631370540E+05
 [a.u./Bohr**2] -> [1/cm]                                   5.14048714338585E+03
 

 CELL_TOP| Volume [angstrom^3]:                                     17614.982639
 CELL_TOP| Vector a [angstrom    16.869     0.000     0.000   |a| =    16.869000
 CELL_TOP| Vector b [angstrom    -8.434    14.609     0.000   |b| =    16.869015
 CELL_TOP| Vector c [angstrom     0.000     0.000    71.478   |c| =    71.478000
 CELL_TOP| Angle (b,c), alpha [degree]:                                90.000000
 CELL_TOP| Angle (a,c), beta  [degree]:                                90.000000
 CELL_TOP| Angle (a,b), gamma [degree]:                               119.999970
 CELL_TOP| Numerically orthorhombic:                                          NO
 
 GENERATE|  Preliminary Number of Bonds generated:                             0
 GENERATE|  Achieved consistency in connectivity generation.

 CELL| Volume [angstrom^3]:                                         17614.982639
 CELL| Vector a [angstrom]:      16.869     0.000     0.000   |a| =    16.869000
 CELL| Vector b [angstrom]:      -8.434    14.609     0.000   |b| =    16.869015
 CELL| Vector c [angstrom]:       0.000     0.000    71.478   |c| =    71.478000
 CELL| Angle (b,c), alpha [degree]:                                    90.000000
 CELL| Angle (a,c), beta  [degree]:                                    90.000000
 CELL| Angle (a,b), gamma [degree]:                                   119.999970
 CELL| Numerically orthorhombic:                                              NO

 CELL_REF| Volume [angstrom^3]:                                     17614.982639
 CELL_REF| Vector a [angstrom    16.869     0.000     0.000   |a| =    16.869000
 CELL_REF| Vector b [angstrom    -8.434    14.609     0.000   |b| =    16.869015
 CELL_REF| Vector c [angstrom     0.000     0.000    71.478   |c| =    71.478000
 CELL_REF| Angle (b,c), alpha [degree]:                                90.000000
 CELL_REF| Angle (a,c), beta  [degree]:                                90.000000
 CELL_REF| Angle (a,b), gamma [degree]:                               119.999970
 CELL_REF| Numerically orthorhombic:                                          NO

 *******************************************************************************
 *******************************************************************************
 **                                                                           **
 **     #####                         ##              ##                      **
 **    ##   ##            ##          ##              ##                      **
 **   ##     ##                       ##            ######                    **
 **   ##     ##  ##   ##  ##   #####  ##  ##   ####   ##    #####    #####    **
 **   ##     ##  ##   ##  ##  ##      ## ##   ##      ##   ##   ##  ##   ##   **
 **   ##  ## ##  ##   ##  ##  ##      ####     ###    ##   ######   ######    **
 **    ##  ###   ##   ##  ##  ##      ## ##      ##   ##   ##       ##        **
 **     #######   #####   ##   #####  ##  ##  ####    ##    #####   ##        **
 **           ##                                                    ##        **
 **                                                                           **
 **                                                ... make the atoms dance   **
 **                                                                           **
 **            Copyright (C) by CP2K developers group (2000-2022)             **
 **                      J. Chem. Phys. 152, 194103 (2020)                    **
 **                                                                           **
 *******************************************************************************

 DFT| Spin restricted Kohn-Sham (RKS) calculation                            RKS
 DFT| Multiplicity                                                             1
 DFT| Number of spin states                                                    1
 DFT| Charge                                                                   0
 DFT| Self-interaction correction (SIC)                                       NO
 DFT| Cutoffs: density                                              1.000000E-10
 DFT|          gradient                                             1.000000E-10
 DFT|          tau                                                  1.000000E-10
 DFT|          cutoff_smoothing_range                               0.000000E+00
 DFT| XC density smoothing                                                  NONE
 DFT| XC derivatives                                                          PW

 FUNCTIONAL| PBE:
 FUNCTIONAL| J.P.Perdew, K.Burke, M.Ernzerhof, Phys. Rev. Letter, vol. 77, n 18,
 FUNCTIONAL|  pp. 3865-3868, (1996){spin unpolarized}                           

 vdW POTENTIAL|                                                   Pair Potential
 vdW POTENTIAL|          DFT-D3 (Version 3.1)
 vdW POTENTIAL|          Potential Form: S. Grimme et al, JCP 132: 154104 (2010)
 vdW POTENTIAL|          Zero Damping
 vdW POTENTIAL|          Cutoff Radius [Bohr]:                             20.00
 vdW POTENTIAL|          s6 Scaling Factor:                               1.0000
 vdW POTENTIAL|          sr6 Scaling Factor:                              1.2170
 vdW POTENTIAL|          s8 Scaling Factor:                               0.7220
 vdW POTENTIAL|          Cutoff for CN calculation:                   0.1000E-05

 QS| Method:                                                                 GPW
 QS| Density plane wave grid type                        NON-SPHERICAL FULLSPACE
 QS| Number of grid levels:                                                    4
 QS| Density cutoff [a.u.]:                                                200.0
 QS| Multi grid cutoff [a.u.]: 1) grid level                               200.0
 QS|                           2) grid level                                66.7
 QS|                           3) grid level                                22.2
 QS|                           4) grid level                                 7.4
 QS| Grid level progression factor:                                          3.0
 QS| Relative density cutoff [a.u.]:                                        20.0
 QS| Interaction thresholds: eps_pgf_orb:                                3.2E-07
 QS|                         eps_filter_matrix:                          0.0E+00
 QS|                         eps_core_charge:                            1.0E-15
 QS|                         eps_rho_gspace:                             1.0E-13
 QS|                         eps_rho_rspace:                             1.0E-13
 QS|                         eps_gvg_rspace:                             3.2E-07
 QS|                         eps_ppl:                                    1.0E-02
 QS|                         eps_ppnl:                                   3.2E-09


 ATOMIC KIND INFORMATION

  1. Atomic kind: O                                     Number of atoms:      95

     Orbital Basis Set                                        DZVP-MOLOPT-SR-GTH

       Number of orbital shell sets:                                           1
       Number of orbital shells:                                               5
       Number of primitive Cartesian functions:                                5
       Number of Cartesian basis functions:                                   14
       Number of spherical basis functions:                                   13
       Norm type:                                                              2

       Normalised Cartesian orbitals:

                        Set   Shell   Orbital            Exponent    Coefficient

                          1       1    2s               10.389228       0.396646
                                                         3.849621       0.208811
                                                         1.388401      -0.301641
                                                         0.496955      -0.274061
                                                         0.162492      -0.033677

                          1       2    3s               10.389228       0.303673
                                                         3.849621       0.240943
                                                         1.388401      -0.313066
                                                         0.496955      -0.043055
                                                         0.162492       0.213991

                          1       3    3px              10.389228      -1.530415
                                                         3.849621      -1.371928
                                                         1.388401      -0.761951
                                                         0.496955      -0.253695
                                                         0.162492      -0.035541
                          1       3    3py              10.389228      -1.530415
                                                         3.849621      -1.371928
                                                         1.388401      -0.761951
                                                         0.496955      -0.253695
                                                         0.162492      -0.035541
                          1       3    3pz              10.389228      -1.530415
                                                         3.849621      -1.371928
                                                         1.388401      -0.761951
                                                         0.496955      -0.253695
                                                         0.162492      -0.035541

                          1       4    4px              10.389228      -0.565392
                                                         3.849621      -0.038231
                                                         1.388401      -0.382373
                                                         0.496955       0.179070
                                                         0.162492       0.122714
                          1       4    4py              10.389228      -0.565392
                                                         3.849621      -0.038231
                                                         1.388401      -0.382373
                                                         0.496955       0.179070
                                                         0.162492       0.122714
                          1       4    4pz              10.389228      -0.565392
                                                         3.849621      -0.038231
                                                         1.388401      -0.382373
                                                         0.496955       0.179070
                                                         0.162492       0.122714

                          1       5    4dx2             10.389228       1.867377
                                                         3.849621       0.670994
                                                         1.388401       1.353441
                                                         0.496955       0.273538
                                                         0.162492       0.006620
                          1       5    4dxy             10.389228       3.234392
                                                         3.849621       1.162195
                                                         1.388401       2.344229
                                                         0.496955       0.473781
                                                         0.162492       0.011466
                          1       5    4dxz             10.389228       3.234392
                                                         3.849621       1.162195
                                                         1.388401       2.344229
                                                         0.496955       0.473781
                                                         0.162492       0.011466
                          1       5    4dy2             10.389228       1.867377
                                                         3.849621       0.670994
                                                         1.388401       1.353441
                                                         0.496955       0.273538
                                                         0.162492       0.006620
                          1       5    4dyz             10.389228       3.234392
                                                         3.849621       1.162195
                                                         1.388401       2.344229
                                                         0.496955       0.473781
                                                         0.162492       0.011466
                          1       5    4dz2             10.389228       1.867377
                                                         3.849621       0.670994
                                                         1.388401       1.353441
                                                         0.496955       0.273538
                                                         0.162492       0.006620

       Atomic covalent radius [Angstrom]:                                  0.730

       Atomic van der Waals radius [Angstrom]:                             1.520

     GTH Potential information for                                    GTH-PBE-q6

       Description:                       Goedecker-Teter-Hutter pseudopotential
                                           Goedecker et al., PRB 54, 1703 (1996)
                                          Hartwigsen et al., PRB 58, 3641 (1998)
                                                      Krack, TCA 114, 145 (2005)

       Gaussian exponent of the core charge distribution:               8.360253
       Electronic configuration (s p d ...):                               2   4

       Parameters of the local part of the GTH pseudopotential:

                          rloc        C1          C2          C3          C4
                        0.244554  -16.667215    2.487311

       Parameters of the non-local part of the GTH pseudopotential:

                   l      r(l)      h(i,j,l)

                   0    0.220956   18.337458
                   1    0.211332

  2. Atomic kind: H                                     Number of atoms:     190

     Orbital Basis Set                                        DZVP-MOLOPT-SR-GTH

       Number of orbital shell sets:                                           1
       Number of orbital shells:                                               3
       Number of primitive Cartesian functions:                                5
       Number of Cartesian basis functions:                                    5
       Number of spherical basis functions:                                    5
       Norm type:                                                              2

       Normalised Cartesian orbitals:

                        Set   Shell   Orbital            Exponent    Coefficient

                          1       1    2s               10.068468      -0.133023
                                                         2.680223      -0.177618
                                                         0.791502      -0.258419
                                                         0.239116      -0.107525
                                                         0.082193      -0.014019

                          1       2    3s               10.068468       0.344673
                                                         2.680223       1.819821
                                                         0.791502      -0.999069
                                                         0.239116       0.017430
                                                         0.082193       0.082660

                          1       3    3px              10.068468       0.155326
                                                         2.680223       0.367157
                                                         0.791502       0.311480
                                                         0.239116       0.080105
                                                         0.082193       0.033440
                          1       3    3py              10.068468       0.155326
                                                         2.680223       0.367157
                                                         0.791502       0.311480
                                                         0.239116       0.080105
                                                         0.082193       0.033440
                          1       3    3pz              10.068468       0.155326
                                                         2.680223       0.367157
                                                         0.791502       0.311480
                                                         0.239116       0.080105
                                                         0.082193       0.033440

       Atomic covalent radius [Angstrom]:                                  0.320

       Atomic van der Waals radius [Angstrom]:                             1.090

     GTH Potential information for                                    GTH-PBE-q1

       Description:                       Goedecker-Teter-Hutter pseudopotential
                                           Goedecker et al., PRB 54, 1703 (1996)
                                          Hartwigsen et al., PRB 58, 3641 (1998)
                                                      Krack, TCA 114, 145 (2005)

       Gaussian exponent of the core charge distribution:              12.500000
       Electronic configuration (s p d ...):                                   1

       Parameters of the local part of the GTH pseudopotential:

                          rloc        C1          C2          C3          C4
                        0.200000   -4.178900    0.724463

  3. Atomic kind: Pt                                    Number of atoms:     216

     Orbital Basis Set                      DZVP-A5-Q10-323-MOL-T1-DERIVED_SET-1

       Number of orbital shell sets:                                           1
       Number of orbital shells:                                               6
       Number of primitive Cartesian functions:                                5
       Number of Cartesian basis functions:                                   23
       Number of spherical basis functions:                                   20
       Norm type:                                                              2

       Normalised Cartesian orbitals:

                        Set   Shell   Orbital            Exponent    Coefficient

                          1       1    2s                2.521825       0.177473
                                                         1.453920      -0.063399
                                                         0.614053      -0.407089
                                                         0.232656       0.262254
                                                         0.074788       0.047371

                          1       2    3s                2.521825      -0.049056
                                                         1.453920       0.044904
                                                         0.614053      -0.009756
                                                         0.232656      -0.144709
                                                         0.074788       0.144085

                          1       3    3px               2.521825      -0.317572
                                                         1.453920       0.534826
                                                         0.614053      -0.489458
                                                         0.232656       0.245631
                                                         0.074788       0.018221
                          1       3    3py               2.521825      -0.317572
                                                         1.453920       0.534826
                                                         0.614053      -0.489458
                                                         0.232656       0.245631
                                                         0.074788       0.018221
                          1       3    3pz               2.521825      -0.317572
                                                         1.453920       0.534826
                                                         0.614053      -0.489458
                                                         0.232656       0.245631
                                                         0.074788       0.018221

                          1       4    4dx2              2.521825       3.008522
                                                         1.453920      -1.224251
                                                         0.614053       0.225691
                                                         0.232656       0.125144
                                                         0.074788      -0.015348
                          1       4    4dxy              2.521825       5.210912
                                                         1.453920      -2.120465
                                                         0.614053       0.390909
                                                         0.232656       0.216756
                                                         0.074788      -0.026584
                          1       4    4dxz              2.521825       5.210912
                                                         1.453920      -2.120465
                                                         0.614053       0.390909
                                                         0.232656       0.216756
                                                         0.074788      -0.026584
                          1       4    4dy2              2.521825       3.008522
                                                         1.453920      -1.224251
                                                         0.614053       0.225691
                                                         0.232656       0.125144
                                                         0.074788      -0.015348
                          1       4    4dyz              2.521825       5.210912
                                                         1.453920      -2.120465
                                                         0.614053       0.390909
                                                         0.232656       0.216756
                                                         0.074788      -0.026584
                          1       4    4dz2              2.521825       3.008522
                                                         1.453920      -1.224251
                                                         0.614053       0.225691
                                                         0.232656       0.125144
                                                         0.074788      -0.015348

                          1       5    5dx2              2.521825       0.698026
                                                         1.453920      -1.511486
                                                         0.614053      -0.335394
                                                         0.232656      -0.025564
                                                         0.074788      -0.002699
                          1       5    5dxy              2.521825       1.209017
                                                         1.453920      -2.617970
                                                         0.614053      -0.580920
                                                         0.232656      -0.044277
                                                         0.074788      -0.004674
                          1       5    5dxz              2.521825       1.209017
                                                         1.453920      -2.617970
                                                         0.614053      -0.580920
                                                         0.232656      -0.044277
                                                         0.074788      -0.004674
                          1       5    5dy2              2.521825       0.698026
                                                         1.453920      -1.511486
                                                         0.614053      -0.335394
                                                         0.232656      -0.025564
                                                         0.074788      -0.002699
                          1       5    5dyz              2.521825       1.209017
                                                         1.453920      -2.617970
                                                         0.614053      -0.580920
                                                         0.232656      -0.044277
                                                         0.074788      -0.004674
                          1       5    5dz2              2.521825       0.698026
                                                         1.453920      -1.511486
                                                         0.614053      -0.335394
                                                         0.232656      -0.025564
                                                         0.074788      -0.002699

                          1       6    6dx2              2.521825       0.831079
                                                         1.453920      -0.709226
                                                         0.614053      -0.137351
                                                         0.232656       0.068642
                                                         0.074788       0.011745
                          1       6    6dxy              2.521825       1.439472
                                                         1.453920      -1.228415
                                                         0.614053      -0.237899
                                                         0.232656       0.118891
                                                         0.074788       0.020343
                          1       6    6dxz              2.521825       1.439472
                                                         1.453920      -1.228415
                                                         0.614053      -0.237899
                                                         0.232656       0.118891
                                                         0.074788       0.020343
                          1       6    6dy2              2.521825       0.831079
                                                         1.453920      -0.709226
                                                         0.614053      -0.137351
                                                         0.232656       0.068642
                                                         0.074788       0.011745
                          1       6    6dyz              2.521825       1.439472
                                                         1.453920      -1.228415
                                                         0.614053      -0.237899
                                                         0.232656       0.118891
                                                         0.074788       0.020343
                          1       6    6dz2              2.521825       0.831079
                                                         1.453920      -0.709226
                                                         0.614053      -0.137351
                                                         0.232656       0.068642
                                                         0.074788       0.011745

       Atomic covalent radius [Angstrom]:                                  1.300

       Atomic van der Waals radius [Angstrom]:                             1.750

     GTH Potential information for                                   GTH-PBE-q10

       Description:                       Goedecker-Teter-Hutter pseudopotential
                                           Goedecker et al., PRB 54, 1703 (1996)
                                          Hartwigsen et al., PRB 58, 3641 (1998)
                                                      Krack, TCA 114, 145 (2005)

       Gaussian exponent of the core charge distribution:               1.317676
       Electronic configuration (s p d ...):                           1   0   9

       Parameters of the local part of the GTH pseudopotential:

                          rloc        C1          C2          C3          C4
                        0.616000   11.313635

       Parameters of the non-local part of the GTH pseudopotential:

                   l      r(l)      h(i,j,l)

                   0    0.550904    4.733491   -1.784594
                                   -1.784594    2.303901
                   1    0.674138    2.534798   -1.778066
                                   -1.778066    2.103836
                   2    0.457392   -7.264011    2.558665
                                    2.558665   -2.901253


 MOLECULE KIND INFORMATION


 All atoms are their own molecule, skipping detailed information


 TOTAL NUMBERS AND MAXIMUM NUMBERS

  Total number of            - Atomic kinds:                                   3
                             - Atoms:                                        501
                             - Shell sets:                                   501
                             - Shells:                                      2341
                             - Primitive Cartesian functions:               2505
                             - Cartesian basis functions:                   7248
                             - Spherical basis functions:                   6505

  Maximum angular momentum of- Orbital basis functions:                        2
                             - Local part of the GTH pseudopotential:          2
                             - Non-local part of the GTH pseudopotential:      4


 MODULE QUICKSTEP:  ATOMIC COORDINATES IN angstrom

 Atom  Kind  Element       X           Y           Z          Z(eff)       Mass
    1   1 O    8     -16.070002   15.560001   37.258000       6.0000     15.9994
    2   2 H    1     -15.220001   15.140000   37.637999       1.0000      1.0079
    3   2 H    1     -16.480001   14.840001   36.657998       1.0000      1.0079
    4   1 O    8     -19.440001  -13.680000   33.987998       6.0000     15.9994
    5   2 H    1     -19.960001  -13.730000   34.858001       1.0000      1.0079
    6   2 H    1     -18.510000  -13.230000   34.168000       1.0000      1.0079
    7   1 O    8       2.070000  -14.210001   29.887999       6.0000     15.9994
    8   2 H    1       1.590000  -14.720001   30.588000       1.0000      1.0079
    9   2 H    1       1.670000  -14.490002   28.997996       1.0000      1.0079
   10   1 O    8       2.320000   24.000000   29.998000       6.0000     15.9994
   11   2 H    1       3.140000   24.560001   29.987998       1.0000      1.0079
   12   2 H    1       1.830000   24.390001   29.217997       1.0000      1.0079
   13   1 O    8     -15.780001   20.320000   37.688001       6.0000     15.9994
   14   2 H    1     -15.400001   19.750002   38.437999       1.0000      1.0079
   15   2 H    1     -16.550001   20.770000   38.158000       1.0000      1.0079
   16   1 O    8     -18.090002   36.760002   35.457999       6.0000     15.9994
   17   2 H    1     -18.040001   36.320004   34.537999       1.0000      1.0079
   18   2 H    1      -1.260000   36.010002   36.088000       1.0000      1.0079
   19   1 O    8      -8.990001    7.400000   38.947999       6.0000     15.9994
   20   2 H    1     -17.540001   22.190001   39.887999       1.0000      1.0079
   21   2 H    1      -9.920000    7.270000   38.637999       1.0000      1.0079
   22   1 O    8       0.750000   26.460001   39.068000       6.0000     15.9994
   23   2 H    1       1.040000   26.940002   38.257998       1.0000      1.0079
   24   2 H    1       0.950000   25.480001   38.768000       1.0000      1.0079
   25   1 O    8     -29.910002    2.040000   32.788001       6.0000     15.9994
   26   2 H    1     -29.170000    1.570000   33.237998       1.0000      1.0079
   27   2 H    1     -29.540003    2.250000   31.908000       1.0000      1.0079
   28   1 O    8     -10.810001   -2.340000   36.148000       6.0000     15.9994
   29   2 H    1     -10.100000   -2.740000   35.547999       1.0000      1.0079
   30   2 H    1     -11.710000   -2.550000   35.778001       1.0000      1.0079
   31   1 O    8      22.510002   39.020000   36.608001       6.0000     15.9994
   32   2 H    1      22.310001   38.220001   37.147998       1.0000      1.0079
   33   2 H    1      22.930002   39.770004   37.177998       1.0000      1.0079
   34   1 O    8     -20.960003   13.250000   30.158000       6.0000     15.9994
   35   2 H    1     -30.050001   28.380001   30.757998       1.0000      1.0079
   36   2 H    1     -21.030003   13.650000   29.248000       1.0000      1.0079
   37   1 O    8      -7.490000   -0.780000   31.877999       6.0000     15.9994
   38   2 H    1      -7.040000   -1.280000   32.617999       1.0000      1.0079
   39   2 H    1      -8.380001   -0.580000   32.177998       1.0000      1.0079
   40   1 O    8       1.110000    4.680000   32.647998       6.0000     15.9994
   41   2 H    1       1.820000    4.550000   33.297999       1.0000      1.0079
   42   2 H    1       0.600000    3.810000   32.607999       1.0000      1.0079
   43   1 O    8     -28.400002   19.390001   33.237998       6.0000     15.9994
   44   2 H    1     -28.730001   19.210001   32.277999       1.0000      1.0079
   45   2 H    1     -29.250002   19.670002   33.748000       1.0000      1.0079
   46   1 O    8      -5.310000   -0.020000   38.337998       6.0000     15.9994
   47   2 H    1      -4.670000   -0.110000   37.527999       1.0000      1.0079
   48   2 H    1      -5.370000   -0.910000   38.768000       1.0000      1.0079
   49   1 O    8     -30.450001  -17.820000   35.867999       6.0000     15.9994
   50   2 H    1     -29.940002  -18.620001   36.047999       1.0000      1.0079
   51   2 H    1     -30.250000  -17.330000   36.668000       1.0000      1.0079
   52   1 O    8      37.940002   -4.380000   33.707999       6.0000     15.9994
   53   2 H    1      38.080002   -4.860000   34.557998       1.0000      1.0079
   54   2 H    1      38.660004   -4.520000   33.068000       1.0000      1.0079
   55   1 O    8     -39.860004    7.020000   35.848000       6.0000     15.9994
   56   2 H    1     -23.750000    7.610001   35.527999       1.0000      1.0079
   57   2 H    1     -23.300001    6.490001   36.657998       1.0000      1.0079
   58   1 O    8      13.920001  -10.860001   37.447999       6.0000     15.9994
   59   2 H    1      13.620001  -11.670000   37.957999       1.0000      1.0079
   60   2 H    1      14.900002  -10.870000   37.417998       1.0000      1.0079
   61   1 O    8     -11.100000   22.000000   30.068000       6.0000     15.9994
   62   2 H    1     -10.650001   22.840002   29.827998       1.0000      1.0079
   63   2 H    1     -12.040001   21.990002   29.698001       1.0000      1.0079
   64   1 O    8      14.520000    9.730001   38.327998       6.0000     15.9994
   65   2 H    1      13.880000    9.240000   37.747998       1.0000      1.0079
   66   2 H    1      15.030001   10.130000   37.557999       1.0000      1.0079
   67   1 O    8       7.660000   20.350000   37.247998       6.0000     15.9994
   68   2 H    1       7.970000   19.440001   37.068000       1.0000      1.0079
   69   2 H    1       8.040000   20.580002   38.187999       1.0000      1.0079
   70   1 O    8     -17.390001   21.270000   33.007998       6.0000     15.9994
   71   2 H    1     -16.680000   21.020000   33.537997       1.0000      1.0079
   72   2 H    1     -17.060001   21.200001   32.107999       1.0000      1.0079
   73   1 O    8      -3.370000   -9.570000   34.498000       6.0000     15.9994
   74   2 H    1      -3.040000  -10.000000   33.678000       1.0000      1.0079
   75   2 H    1      -4.180000  -10.050000   34.668000       1.0000      1.0079
   76   1 O    8      19.240002    9.850000   29.887999       6.0000     15.9994
   77   2 H    1      19.130001    9.520000   28.948001       1.0000      1.0079
   78   2 H    1      18.600002   10.590000   29.928000       1.0000      1.0079
   79   1 O    8      26.220001   11.670000   36.037997       6.0000     15.9994
   80   2 H    1      25.900002   10.800000   35.678000       1.0000      1.0079
   81   2 H    1      25.520000   12.270001   35.658000       1.0000      1.0079
   82   1 O    8     -12.430000   25.160000   29.228000       6.0000     15.9994
   83   2 H    1     -12.400000   26.080000   29.527999       1.0000      1.0079
   84   2 H    1     -11.450001   24.799999   29.557998       1.0000      1.0079
   85   1 O    8       0.290000    3.210000   29.917998       6.0000     15.9994
   86   2 H    1       0.750000    3.180000   28.997996       1.0000      1.0079
   87   2 H    1      -0.470000    3.820000   29.608001       1.0000      1.0079
   88   1 O    8       2.430000   34.270000   39.568000       6.0000     15.9994
   89   2 H    1       2.270000   35.100002   40.027999       1.0000      1.0079
   90   2 H    1       2.710000   34.450001   38.648000       1.0000      1.0079
   91   1 O    8      -4.300000    3.050000   37.098000       6.0000     15.9994
   92   2 H    1     -12.420001   16.750000   36.818000       1.0000      1.0079
   93   2 H    1      -3.580000    3.430000   37.688001       1.0000      1.0079
   94   1 O    8      24.170000    1.000000   29.357997       6.0000     15.9994
   95   2 H    1      23.570002    1.750000   29.468001       1.0000      1.0079
   96   2 H    1      23.850002    0.370000   30.027999       1.0000      1.0079
   97   1 O    8       1.240000   -5.390000   38.348000       6.0000     15.9994
   98   2 H    1       1.700000   -5.780000   37.557999       1.0000      1.0079
   99   2 H    1       0.530000   -6.060000   38.648000       1.0000      1.0079
  100   1 O    8      18.100000   -0.100000   37.647998       6.0000     15.9994
  101   2 H    1      18.950001    0.070000   37.277999       1.0000      1.0079
  102   2 H    1      18.000000    0.240000   38.627999       1.0000      1.0079
  103   1 O    8       1.950000  -11.190001   39.398000       6.0000     15.9994
  104   2 H    1       2.290000  -11.710000   38.687999       1.0000      1.0079
  105   2 H    1       1.290000  -11.780001   39.777999       1.0000      1.0079
  106   1 O    8      -5.920000  -11.560000   34.828000       6.0000     15.9994
  107   2 H    1      -5.550000  -11.900001   33.897998       1.0000      1.0079
  108   2 H    1      -5.270000  -12.080001   35.358001       1.0000      1.0079
  109   1 O    8      25.800001   -2.790000   29.978000       6.0000     15.9994
  110   2 H    1      25.450001   -2.470000   29.097998       1.0000      1.0079
  111   2 H    1      25.670002   -2.050000   30.588000       1.0000      1.0079
  112   1 O    8     -33.020000   23.790001   34.658000       6.0000     15.9994
  113   2 H    1     -15.660001   24.090002   33.807999       1.0000      1.0079
  114   2 H    1     -33.900002   23.670002   34.287999       1.0000      1.0079
  115   1 O    8      20.130001   -7.830000   29.887999       6.0000     15.9994
  116   2 H    1      19.570002   -7.010000   30.087996       1.0000      1.0079
  117   2 H    1      20.020000   -7.960001   28.937999       1.0000      1.0079
  118   1 O    8      14.920001   18.640001   32.408000       6.0000     15.9994
  119   2 H    1      15.330001   19.540001   32.557999       1.0000      1.0079
  120   2 H    1      15.460001   18.000000   32.998000       1.0000      1.0079
  121   1 O    8       7.190001   14.080001   36.657998       6.0000     15.9994
  122   2 H    1       8.060000   14.400001   36.867999       1.0000      1.0079
  123   2 H    1       7.220001   14.030001   35.658000       1.0000      1.0079
  124   1 O    8      -3.780000    8.520000   36.037997       6.0000     15.9994
  125   2 H    1      -2.870000    8.130000   35.717999       1.0000      1.0079
  126   2 H    1      -4.420000    7.840000   36.097998       1.0000      1.0079
  127   1 O    8       4.450000  -14.110001   29.228000       6.0000     15.9994
  128   2 H    1       4.930000  -14.940001   29.397998       1.0000      1.0079
  129   2 H    1       3.470000  -14.190001   29.498000       1.0000      1.0079
  130   1 O    8     -17.980001   44.920002   39.108001       6.0000     15.9994
  131   2 H    1     -17.730001   44.240002   39.887999       1.0000      1.0079
  132   2 H    1     -17.300001   44.750004   38.418000       1.0000      1.0079
  133   1 O    8      13.800001   25.890003   33.037999       6.0000     15.9994
  134   2 H    1      22.520000   10.540000   33.648000       1.0000      1.0079
  135   2 H    1      -2.410000   26.540001   33.287999       1.0000      1.0079
  136   1 O    8       0.940000   -1.980000   32.478000       6.0000     15.9994
  137   2 H    1       1.500000   -1.310000   32.007998       1.0000      1.0079
  138   2 H    1       1.290000   -2.880000   32.387997       1.0000      1.0079
  139   1 O    8       7.950000    6.920000   30.068000       6.0000     15.9994
  140   2 H    1       8.290001    7.430000   29.308001       1.0000      1.0079
  141   2 H    1       7.810000    5.910000   29.777999       1.0000      1.0079
  142   1 O    8      -0.450000   17.260000   34.008000       6.0000     15.9994
  143   2 H    1       0.560000   17.080000   33.678000       1.0000      1.0079
  144   2 H    1      -0.320000   17.710001   34.928000       1.0000      1.0079
  145   1 O    8     -29.790001    5.520000   29.108001       6.0000     15.9994
  146   2 H    1     -29.320002    6.270000   29.457999       1.0000      1.0079
  147   2 H    1     -30.780001    5.710001   29.448001       1.0000      1.0079
  148   1 O    8     -18.790001   -2.590000   37.967999       6.0000     15.9994
  149   2 H    1     -17.900002   -2.850000   38.327998       1.0000      1.0079
  150   2 H    1     -18.470001   -1.870000   37.347998       1.0000      1.0079
  151   1 O    8       2.430000    0.050000   31.347998       6.0000     15.9994
  152   2 H    1       2.890000    0.630000   31.987998       1.0000      1.0079
  153   2 H    1       1.670000    0.480000   30.918000       1.0000      1.0079
  154   1 O    8      -0.230000  -11.160001   36.557998       6.0000     15.9994
  155   2 H    1       0.270000  -10.360001   36.787999       1.0000      1.0079
  156   2 H    1       0.290000  -11.940001   36.898000       1.0000      1.0079
  157   1 O    8       3.840000    0.890000   36.037997       6.0000     15.9994
  158   2 H    1       4.200000    0.910000   36.928000       1.0000      1.0079
  159   2 H    1       3.620000   -0.080000   35.827998       1.0000      1.0079
  160   1 O    8       2.600000   12.120000   39.408000       6.0000     15.9994
  161   2 H    1       3.400000   12.040001   40.007998       1.0000      1.0079
  162   2 H    1       1.990000   12.330000   40.237998       1.0000      1.0079
  163   1 O    8      12.040001   20.340002   37.217997       6.0000     15.9994
  164   2 H    1      11.500001   20.520000   36.357999       1.0000      1.0079
  165   2 H    1      12.560000   19.520000   37.047999       1.0000      1.0079
  166   1 O    8      20.960003   44.340000   33.648000       6.0000     15.9994
  167   2 H    1      21.590002   44.400002   32.907998       1.0000      1.0079
  168   2 H    1      20.400002   43.570004   33.588000       1.0000      1.0079
  169   1 O    8      14.830000   -5.540000   34.117999       6.0000     15.9994
  170   2 H    1      14.580001   -5.430000   35.057999       1.0000      1.0079
  171   2 H    1      14.330001   -6.370000   33.877999       1.0000      1.0079
  172   1 O    8      -8.420001   17.870001   35.997998       6.0000     15.9994
  173   2 H    1      -7.480001   17.970001   35.627999       1.0000      1.0079
  174   2 H    1       0.260000    2.770000   36.838000       1.0000      1.0079
  175   1 O    8      -5.240001    4.550000   34.787997       6.0000     15.9994
  176   2 H    1      -5.720000    5.260000   35.258000       1.0000      1.0079
  177   2 H    1      -4.730000    4.140000   35.547999       1.0000      1.0079
  178   1 O    8     -12.070000    2.280000   30.147998       6.0000     15.9994
  179   2 H    1     -12.650002    1.770000   29.468001       1.0000      1.0079
  180   2 H    1     -12.410001    3.190000   29.998000       1.0000      1.0079
  181   1 O    8       4.040000   19.080002   30.677998       6.0000     15.9994
  182   2 H    1       3.150000   18.550001   30.588000       1.0000      1.0079
  183   2 H    1      12.240001    5.310000   30.317996       1.0000      1.0079
  184   1 O    8       2.190000    7.800000   31.917998       6.0000     15.9994
  185   2 H    1       3.120000    7.710000   32.228000       1.0000      1.0079
  186   2 H    1       2.190000    8.620001   31.357999       1.0000      1.0079
  187   1 O    8       6.410000   15.390000   32.307999       6.0000     15.9994
  188   2 H    1       6.840000   16.260000   32.607999       1.0000      1.0079
  189   2 H    1       6.780000   15.150002   31.417998       1.0000      1.0079
  190   1 O    8     -14.450001    9.320001   38.557999       6.0000     15.9994
  191   2 H    1     -15.090000    9.010000   39.257998       1.0000      1.0079
  192   2 H    1     -14.270000   10.280000   38.697999       1.0000      1.0079
  193   1 O    8      17.250000   11.260000   34.347998       6.0000     15.9994
  194   2 H    1      17.480000   10.710001   35.167998       1.0000      1.0079
  195   2 H    1      17.880001   11.010000   33.637997       1.0000      1.0079
  196   1 O    8       4.890000   10.520000   30.177996       6.0000     15.9994
  197   2 H    1       3.870000   10.550001   30.058001       1.0000      1.0079
  198   2 H    1       4.990000   10.880001   31.117999       1.0000      1.0079
  199   1 O    8      -9.260000   -8.810000   29.187999       6.0000     15.9994
  200   2 H    1      -8.450001   -8.480000   29.627997       1.0000      1.0079
  201   2 H    1      -9.980000   -8.160001   29.487998       1.0000      1.0079
  202   1 O    8      -3.010000   -7.020000   37.957999       6.0000     15.9994
  203   2 H    1      -3.650000   -7.650001   37.557999       1.0000      1.0079
  204   2 H    1      -3.400000   -6.650000   38.777999       1.0000      1.0079
  205   1 O    8      -1.060000    6.640000   32.867999       6.0000     15.9994
  206   2 H    1     -10.270000   20.690001   32.877997       1.0000      1.0079
  207   2 H    1      -0.230000    6.050000   32.747998       1.0000      1.0079
  208   1 O    8      11.800001   12.910000   34.978000       6.0000     15.9994
  209   2 H    1       3.680000   26.730001   34.437999       1.0000      1.0079
  210   2 H    1       2.590000   27.080002   35.377997       1.0000      1.0079
  211   1 O    8     -36.380001   27.380001   29.207999       6.0000     15.9994
  212   2 H    1     -36.810001   26.540001   29.588000       1.0000      1.0079
  213   2 H    1     -35.440002   27.220001   29.457999       1.0000      1.0079
  214   1 O    8       4.650001    7.280001   33.027999       6.0000     15.9994
  215   2 H    1       5.380001    7.020000   32.367999       1.0000      1.0079
  216   2 H    1       4.560000    6.470000   33.627999       1.0000      1.0079
  217   1 O    8      14.150001  -26.260002   29.187999       6.0000     15.9994
  218   2 H    1      13.400001  -25.760002   29.608001       1.0000      1.0079
  219   2 H    1      13.910000  -27.200001   29.158000       1.0000      1.0079
  220   1 O    8      -1.180000   -1.000000   34.178000       6.0000     15.9994
  221   2 H    1      -1.410000   -0.210000   33.518000       1.0000      1.0079
  222   2 H    1      -0.380000   -1.490000   33.838000       1.0000      1.0079
  223   1 O    8      -8.500000   15.180001   29.987998       6.0000     15.9994
  224   2 H    1      -8.450001   16.140001   29.847998       1.0000      1.0079
  225   2 H    1      -8.670000   14.790001   29.137999       1.0000      1.0079
  226   1 O    8      17.190001    9.640000   36.408000       6.0000     15.9994
  227   2 H    1      17.920000    9.470000   37.058001       1.0000      1.0079
  228   2 H    1      16.810001    8.820001   36.137999       1.0000      1.0079
  229   1 O    8      -2.400000    4.160000   39.127997       6.0000     15.9994
  230   2 H    1      -1.500000    3.960000   39.157998       1.0000      1.0079
  231   2 H    1      -2.820000    3.900000   39.998000       1.0000      1.0079
  232   1 O    8      22.180002    7.730001   29.867999       6.0000     15.9994
  233   2 H    1      22.160000    8.660001   30.077998       1.0000      1.0079
  234   2 H    1      23.080002    7.400000   29.787997       1.0000      1.0079
  235   1 O    8      41.320000    4.290000   29.757998       6.0000     15.9994
  236   2 H    1      42.210003    3.900000   29.917998       1.0000      1.0079
  237   2 H    1      40.900002    4.140000   30.637999       1.0000      1.0079
  238   1 O    8       2.910000  -16.650002   33.508000       6.0000     15.9994
  239   2 H    1       3.120000  -16.910002   34.417998       1.0000      1.0079
  240   2 H    1       3.590000  -17.210001   33.077998       1.0000      1.0079
  241   1 O    8      -1.610000    9.850000   29.847998       6.0000     15.9994
  242   2 H    1      -1.530000    9.790000   30.848000       1.0000      1.0079
  243   2 H    1      -0.820000   10.310000   29.427996       1.0000      1.0079
  244   1 O    8      -1.100000    3.190000   33.327998       6.0000     15.9994
  245   2 H    1      -9.280001   17.640001   34.268000       1.0000      1.0079
  246   2 H    1      -1.920000    3.790000   33.437999       1.0000      1.0079
  247   1 O    8     -20.590000    0.520000   36.297999       6.0000     15.9994
  248   2 H    1     -20.570002    0.660000   35.307998       1.0000      1.0079
  249   2 H    1     -19.680000    0.310000   36.508000       1.0000      1.0079
  250   1 O    8       6.420000   -0.530000   31.557998       6.0000     15.9994
  251   2 H    1       5.640000   -0.960000   31.117999       1.0000      1.0079
  252   2 H    1       6.120000   -0.120000   32.398000       1.0000      1.0079
  253   1 O    8     -15.140000    6.020000   30.268000       6.0000     15.9994
  254   2 H    1     -15.330001    5.260000   30.907998       1.0000      1.0079
  255   2 H    1     -14.930000    6.850000   30.988000       1.0000      1.0079
  256   1 O    8      -8.540000   12.050000   30.128001       6.0000     15.9994
  257   2 H    1      -8.130000   12.190001   30.967997       1.0000      1.0079
  258   2 H    1      -7.910000   11.680001   29.507998       1.0000      1.0079
  259   1 O    8     -11.830001   21.300001   38.588000       6.0000     15.9994
  260   2 H    1     -11.360001   20.470001   38.797999       1.0000      1.0079
  261   2 H    1     -11.150000   21.930000   38.408000       1.0000      1.0079
  262   1 O    8      13.110001   15.890001   38.707999       6.0000     15.9994
  263   2 H    1      14.090000   15.780001   38.807999       1.0000      1.0079
  264   2 H    1      12.780001   15.380001   39.547999       1.0000      1.0079
  265   1 O    8      18.880001   17.060001   33.248000       6.0000     15.9994
  266   2 H    1      19.670002   16.460001   33.367999       1.0000      1.0079
  267   2 H    1      19.110001   17.950001   33.707999       1.0000      1.0079
  268   1 O    8      -8.020000   18.090002   39.008000       6.0000     15.9994
  269   2 H    1      -7.700000   17.260000   39.447999       1.0000      1.0079
  270   2 H    1      -7.300000   18.710001   39.057998       1.0000      1.0079
  271   1 O    8      10.200001    3.290000   29.768000       6.0000     15.9994
  272   2 H    1      -6.680000    2.310000   29.998000       1.0000      1.0079
  273   2 H    1      10.440001    3.340000   28.808001       1.0000      1.0079
  274   1 O    8       6.880000   24.010000   32.557999       6.0000     15.9994
  275   2 H    1       7.530000   24.620001   32.988000       1.0000      1.0079
  276   2 H    1       7.060000   23.080002   32.767999       1.0000      1.0079
  277   1 O    8     -16.970001   13.790001   35.318000       6.0000     15.9994
  278   2 H    1     -16.360001   13.130001   34.967999       1.0000      1.0079
  279   2 H    1     -17.850000   13.350000   35.377997       1.0000      1.0079
  280   1 O    8       1.680000    6.260000   35.088000       6.0000     15.9994
  281   2 H    1       0.910000    6.420000   35.697999       1.0000      1.0079
  282   2 H    1       1.450000    6.840000   34.318000       1.0000      1.0079
  283   1 O    8      -6.560000   10.100000   32.588000       6.0000     15.9994
  284   2 H    1      -6.540000    9.660000   31.727998       1.0000      1.0079
  285   2 H    1      -5.670000   10.060000   33.077998       1.0000      1.0079
  286   3 Pt  78       1.520000    0.680000   26.857997      10.0000    195.0840
  287   3 Pt  78       4.340000    0.600000   26.968001      10.0000    195.0840
  288   3 Pt  78       7.140000    0.610000   27.047999      10.0000    195.0840
  289   3 Pt  78       9.910001    0.640000   26.818000      10.0000    195.0840
  290   3 Pt  78      12.770000    0.660000   27.088000      10.0000    195.0840
  291   3 Pt  78      15.580001    0.800000   26.968001      10.0000    195.0840
  292   3 Pt  78       3.040000    3.050000   26.917998      10.0000    195.0840
  293   3 Pt  78       5.800000    3.020000   26.878001      10.0000    195.0840
  294   3 Pt  78       8.570001    3.050000   26.777999      10.0000    195.0840
  295   3 Pt  78      11.400002    3.120000   26.777999      10.0000    195.0840
  296   3 Pt  78      14.200001    3.150000   26.937999      10.0000    195.0840
  297   3 Pt  78       0.240000    3.080000   26.818000      10.0000    195.0840
  298   3 Pt  78       4.300000    5.520000   27.027999      10.0000    195.0840
  299   3 Pt  78       7.190001    5.510000   26.808001      10.0000    195.0840
  300   3 Pt  78       9.800000    5.470000   26.897998      10.0000    195.0840
  301   3 Pt  78      12.870001    5.450000   26.818000      10.0000    195.0840
  302   3 Pt  78      -1.160000    5.540000   26.867999      10.0000    195.0840
  303   3 Pt  78       1.590000    5.520000   26.897998      10.0000    195.0840
  304   3 Pt  78       5.740000    8.010000   26.897998      10.0000    195.0840
  305   3 Pt  78       8.560000    7.880001   26.797999      10.0000    195.0840
  306   3 Pt  78      11.390000    7.850000   26.787997      10.0000    195.0840
  307   3 Pt  78      -2.730000    7.980001   26.717997      10.0000    195.0840
  308   3 Pt  78       0.050000    8.030001   26.757998      10.0000    195.0840
  309   3 Pt  78       2.860000    7.950000   26.808001      10.0000    195.0840
  310   3 Pt  78       7.190001   10.380001   26.847998      10.0000    195.0840
  311   3 Pt  78       9.900001   10.320001   26.957999      10.0000    195.0840
  312   3 Pt  78      -4.120000   10.360001   26.857997      10.0000    195.0840
  313   3 Pt  78      -1.360000   10.410000   26.637999      10.0000    195.0840
  314   3 Pt  78       1.580000   10.570001   26.687999      10.0000    195.0840
  315   3 Pt  78       4.360000   10.370001   26.808001      10.0000    195.0840
  316   3 Pt  78       8.550000   12.860001   26.978000      10.0000    195.0840
  317   3 Pt  78      -5.590000   12.880001   26.847998      10.0000    195.0840
  318   3 Pt  78      -2.680000   12.800001   26.867999      10.0000    195.0840
  319   3 Pt  78       0.130000   12.920000   26.857997      10.0000    195.0840
  320   3 Pt  78       2.960000   12.890000   26.818000      10.0000    195.0840
  321   3 Pt  78       5.820000   12.760000   26.957999      10.0000    195.0840
  322   3 Pt  78       0.190000    1.490000   24.588000      10.0000    195.0840
  323   3 Pt  78       3.050000    1.460000   24.588000      10.0000    195.0840
  324   3 Pt  78       5.830000    1.510000   24.527999      10.0000    195.0840
  325   3 Pt  78       8.570001    1.330000   24.507998      10.0000    195.0840
  326   3 Pt  78      11.440001    1.430000   24.597998      10.0000    195.0840
  327   3 Pt  78      14.260001    1.460000   24.478000      10.0000    195.0840
  328   3 Pt  78       1.630000    3.930000   24.588000      10.0000    195.0840
  329   3 Pt  78       4.450000    3.920000   24.647998      10.0000    195.0840
  330   3 Pt  78       7.250000    3.910000   24.347998      10.0000    195.0840
  331   3 Pt  78       9.900001    3.930000   24.457999      10.0000    195.0840
  332   3 Pt  78      12.900001    3.970000   24.527999      10.0000    195.0840
  333   3 Pt  78      -1.210000    3.980000   24.597998      10.0000    195.0840
  334   3 Pt  78       3.100000    6.340000   24.557998      10.0000    195.0840
  335   3 Pt  78       5.790000    6.380000   24.608001      10.0000    195.0840
  336   3 Pt  78       8.640000    6.310000   24.408000      10.0000    195.0840
  337   3 Pt  78      11.320001    6.320000   24.518000      10.0000    195.0840
  338   3 Pt  78      -2.570000    6.360001   24.497996      10.0000    195.0840
  339   3 Pt  78       0.410000    6.350000   24.437999      10.0000    195.0840
  340   3 Pt  78       4.390000    8.840000   24.437999      10.0000    195.0840
  341   3 Pt  78       7.190001    8.780001   24.468001      10.0000    195.0840
  342   3 Pt  78      10.020000    8.740000   24.538001      10.0000    195.0840
  343   3 Pt  78      -4.180000    8.770000   24.577998      10.0000    195.0840
  344   3 Pt  78      -1.180000    8.720000   24.487998      10.0000    195.0840
  345   3 Pt  78       1.650000    8.810000   24.518000      10.0000    195.0840
  346   3 Pt  78       5.830000   11.320001   24.457999      10.0000    195.0840
  347   3 Pt  78       8.610001   11.260000   24.527999      10.0000    195.0840
  348   3 Pt  78      -5.450000   11.200000   24.608001      10.0000    195.0840
  349   3 Pt  78      -2.670000   11.180000   24.397998      10.0000    195.0840
  350   3 Pt  78       0.200000   11.180000   24.478000      10.0000    195.0840
  351   3 Pt  78       3.100000   11.300000   24.327998      10.0000    195.0840
  352   3 Pt  78       7.210000   13.690001   24.627997      10.0000    195.0840
  353   3 Pt  78      -6.950001   13.640001   24.527999      10.0000    195.0840
  354   3 Pt  78      -4.040000   13.700001   24.547999      10.0000    195.0840
  355   3 Pt  78      -1.240000   13.620001   24.557998      10.0000    195.0840
  356   3 Pt  78       1.550000   13.650000   24.378001      10.0000    195.0840
  357   3 Pt  78       4.460000   13.700001   24.557998      10.0000    195.0840
  358   3 Pt  78      -8.210000   14.520000   22.257998      10.0000    195.0840
  359   3 Pt  78      -5.380001   14.550000   22.318000      10.0000    195.0840
  360   3 Pt  78      -2.630000   14.430000   22.287997      10.0000    195.0840
  361   3 Pt  78       0.170000   14.410001   22.097998      10.0000    195.0840
  362   3 Pt  78       3.000000   14.500000   22.158000      10.0000    195.0840
  363   3 Pt  78       5.760000   14.530001   22.047995      10.0000    195.0840
  364   3 Pt  78       1.600000    2.370000   22.297999      10.0000    195.0840
  365   3 Pt  78       4.420000    2.410000   22.187999      10.0000    195.0840
  366   3 Pt  78       7.230001    2.310000   22.117999      10.0000    195.0840
  367   3 Pt  78      10.000000    2.200000   22.177996      10.0000    195.0840
  368   3 Pt  78      12.940001    2.260000   22.117999      10.0000    195.0840
  369   3 Pt  78      -1.180000    2.340000   22.217997      10.0000    195.0840
  370   3 Pt  78       3.100000    4.780000   22.207999      10.0000    195.0840
  371   3 Pt  78       5.870000    4.810000   22.207999      10.0000    195.0840
  372   3 Pt  78       8.750001    4.800000   22.097998      10.0000    195.0840
  373   3 Pt  78      11.420001    4.750000   22.207999      10.0000    195.0840
  374   3 Pt  78      -2.640000    4.780000   22.228000      10.0000    195.0840
  375   3 Pt  78       0.240000    4.700000   22.198001      10.0000    195.0840
  376   3 Pt  78       4.470000    7.300000   22.177996      10.0000    195.0840
  377   3 Pt  78       7.180000    7.230001   22.207999      10.0000    195.0840
  378   3 Pt  78       9.980000    7.310000   22.237998      10.0000    195.0840
  379   3 Pt  78      -4.110000    7.150001   22.198001      10.0000    195.0840
  380   3 Pt  78      -1.140000    7.150001   22.167998      10.0000    195.0840
  381   3 Pt  78       1.600000    7.210000   22.177996      10.0000    195.0840
  382   3 Pt  78       5.860000    9.720000   22.228000      10.0000    195.0840
  383   3 Pt  78       8.600000    9.700001   22.257998      10.0000    195.0840
  384   3 Pt  78      -5.360000    9.690001   22.268000      10.0000    195.0840
  385   3 Pt  78      -2.650000    9.560000   22.207999      10.0000    195.0840
  386   3 Pt  78       0.290000    9.600000   22.147998      10.0000    195.0840
  387   3 Pt  78       3.050000    9.650001   22.107997      10.0000    195.0840
  388   3 Pt  78       7.230001   12.130001   22.217997      10.0000    195.0840
  389   3 Pt  78      -6.840000   12.100000   22.318000      10.0000    195.0840
  390   3 Pt  78      -4.070000   12.120000   22.207999      10.0000    195.0840
  391   3 Pt  78      -1.230000   12.000000   22.247996      10.0000    195.0840
  392   3 Pt  78       1.550000   12.070000   22.037997      10.0000    195.0840
  393   3 Pt  78       4.330000   12.200001   22.128001      10.0000    195.0840
  394   3 Pt  78       1.610000    0.660000   20.040000      10.0000    195.0840
  395   3 Pt  78       4.490000    0.620000   20.040000      10.0000    195.0840
  396   3 Pt  78       7.250000    0.640000   19.830000      10.0000    195.0840
  397   3 Pt  78       9.900001    0.690000   19.820000      10.0000    195.0840
  398   3 Pt  78      12.750001    0.670000   19.770000      10.0000    195.0840
  399   3 Pt  78      15.540000    0.720000   19.830000      10.0000    195.0840
  400   3 Pt  78       3.080000    3.070000   19.890000      10.0000    195.0840
  401   3 Pt  78       5.720000    3.190000   19.800000      10.0000    195.0840
  402   3 Pt  78       8.530001    3.200000   19.810000      10.0000    195.0840
  403   3 Pt  78      11.360001    3.100000   19.880000      10.0000    195.0840
  404   3 Pt  78      14.190001    3.110000   19.870000      10.0000    195.0840
  405   3 Pt  78       0.150000    3.070000   19.850000      10.0000    195.0840
  406   3 Pt  78       4.380000    5.600000   19.870000      10.0000    195.0840
  407   3 Pt  78       7.140000    5.710001   19.890000      10.0000    195.0840
  408   3 Pt  78       9.900001    5.640000   19.820000      10.0000    195.0840
  409   3 Pt  78      12.720001    5.550000   19.880000      10.0000    195.0840
  410   3 Pt  78      -1.230000    5.510000   19.930000      10.0000    195.0840
  411   3 Pt  78       1.660000    5.440001   19.910000      10.0000    195.0840
  412   3 Pt  78       5.790000    8.070001   19.880000      10.0000    195.0840
  413   3 Pt  78       8.560000    8.050001   19.840000      10.0000    195.0840
  414   3 Pt  78      11.420001    7.940001   19.840000      10.0000    195.0840
  415   3 Pt  78      -2.660000    7.890000   19.880000      10.0000    195.0840
  416   3 Pt  78       0.180000    7.930000   19.840000      10.0000    195.0840
  417   3 Pt  78       3.020000    7.920001   19.850000      10.0000    195.0840
  418   3 Pt  78       7.200000   10.500001   19.890000      10.0000    195.0840
  419   3 Pt  78       9.960001   10.430001   19.960000      10.0000    195.0840
  420   3 Pt  78      -4.050000   10.430001   19.980000      10.0000    195.0840
  421   3 Pt  78      -1.200000   10.310000   19.850000      10.0000    195.0840
  422   3 Pt  78       1.490000   10.430001   19.730000      10.0000    195.0840
  423   3 Pt  78       4.380000   10.460000   19.850000      10.0000    195.0840
  424   3 Pt  78       8.580000   12.930001   19.930000      10.0000    195.0840
  425   3 Pt  78      -5.490000   12.800001   20.100000      10.0000    195.0840
  426   3 Pt  78      -2.690000   12.830001   19.870000      10.0000    195.0840
  427   3 Pt  78       0.110000   12.800001   19.770000      10.0000    195.0840
  428   3 Pt  78       2.880000   12.910000   19.700000      10.0000    195.0840
  429   3 Pt  78       5.710001   12.840000   19.750000      10.0000    195.0840
  430   3 Pt  78       0.090000    1.510000   17.710001      10.0000    195.0840
  431   3 Pt  78       2.870000    1.410000   17.740000      10.0000    195.0840
  432   3 Pt  78       5.620000    1.620000   17.640000      10.0000    195.0840
  433   3 Pt  78       8.490001    1.620000   17.470000      10.0000    195.0840
  434   3 Pt  78      11.270000    1.490000   17.490000      10.0000    195.0840
  435   3 Pt  78      14.080001    1.460000   17.490000      10.0000    195.0840
  436   3 Pt  78       1.530000    3.920000   17.680000      10.0000    195.0840
  437   3 Pt  78       4.310000    3.910000   17.530000      10.0000    195.0840
  438   3 Pt  78       7.130001    4.080000   17.450000      10.0000    195.0840
  439   3 Pt  78      10.020000    4.030000   17.440000      10.0000    195.0840
  440   3 Pt  78      12.690001    3.980000   17.540000      10.0000    195.0840
  441   3 Pt  78      -1.410000    3.980000   17.520000      10.0000    195.0840
  442   3 Pt  78       2.970000    6.310000   17.580000      10.0000    195.0840
  443   3 Pt  78       5.720000    6.490001   17.480000      10.0000    195.0840
  444   3 Pt  78       8.540000    6.540000   17.450000      10.0000    195.0840
  445   3 Pt  78      11.380000    6.530001   17.400000      10.0000    195.0840
  446   3 Pt  78      -2.730000    6.460000   17.560000      10.0000    195.0840
  447   3 Pt  78       0.160000    6.280000   17.640000      10.0000    195.0840
  448   3 Pt  78       4.300000    8.830000   17.580000      10.0000    195.0840
  449   3 Pt  78       7.270000    8.980000   17.590000      10.0000    195.0840
  450   3 Pt  78       9.960001    8.900001   17.540000      10.0000    195.0840
  451   3 Pt  78      -4.120000    8.810000   17.620000      10.0000    195.0840
  452   3 Pt  78      -1.210000    8.760000   17.560000      10.0000    195.0840
  453   3 Pt  78       1.560000    8.800000   17.560000      10.0000    195.0840
  454   3 Pt  78       5.770000   11.280001   17.400000      10.0000    195.0840
  455   3 Pt  78       8.520000   11.340000   17.640000      10.0000    195.0840
  456   3 Pt  78      -5.540000   11.260000   17.750000      10.0000    195.0840
  457   3 Pt  78      -2.710000   11.310000   17.570000      10.0000    195.0840
  458   3 Pt  78       0.060000   11.190001   17.480000      10.0000    195.0840
  459   3 Pt  78       2.940000   11.250000   17.490000      10.0000    195.0840
  460   3 Pt  78       7.080000   13.760000   17.590000      10.0000    195.0840
  461   3 Pt  78      -6.970000   13.680000   17.700000      10.0000    195.0840
  462   3 Pt  78      -4.150000   13.720001   17.730000      10.0000    195.0840
  463   3 Pt  78      -1.430000   13.730000   17.470000      10.0000    195.0840
  464   3 Pt  78       1.420000   13.720001   17.490000      10.0000    195.0840
  465   3 Pt  78       4.220000   13.620001   17.410000      10.0000    195.0840
  466   3 Pt  78      -8.540000   14.500000   15.340000      10.0000    195.0840
  467   3 Pt  78      -5.740000   14.580001   15.400000      10.0000    195.0840
  468   3 Pt  78      -2.850000   14.560001   15.200000      10.0000    195.0840
  469   3 Pt  78      -0.070000   14.580001   15.090000      10.0000    195.0840
  470   3 Pt  78       2.730000   14.530001   15.190000      10.0000    195.0840
  471   3 Pt  78       5.590000   14.470000   15.180000      10.0000    195.0840
  472   3 Pt  78       1.360000    2.520000   15.400000      10.0000    195.0840
  473   3 Pt  78       4.180000    2.490000   15.300001      10.0000    195.0840
  474   3 Pt  78       6.960001    2.320000   15.110000      10.0000    195.0840
  475   3 Pt  78       9.790000    2.480000   15.170001      10.0000    195.0840
  476   3 Pt  78      12.670001    2.320000   15.070000      10.0000    195.0840
  477   3 Pt  78      -1.450000    2.320000   15.230000      10.0000    195.0840
  478   3 Pt  78       2.600000    4.960000   15.370000      10.0000    195.0840
  479   3 Pt  78       5.520000    4.850000   15.240000      10.0000    195.0840
  480   3 Pt  78       8.280001    4.750000   15.130000      10.0000    195.0840
  481   3 Pt  78      11.290001    4.880000   15.150000      10.0000    195.0840
  482   3 Pt  78      -2.850000    4.670000   15.180000      10.0000    195.0840
  483   3 Pt  78      -0.090000    4.690000   15.300001      10.0000    195.0840
  484   3 Pt  78       4.170000    7.200000   15.170001      10.0000    195.0840
  485   3 Pt  78       7.020000    7.230001   15.380000      10.0000    195.0840
  486   3 Pt  78       9.880000    7.220001   15.150000      10.0000    195.0840
  487   3 Pt  78      -4.300000    7.210000   15.060000      10.0000    195.0840
  488   3 Pt  78      -1.610000    7.210000   15.090000      10.0000    195.0840
  489   3 Pt  78       1.270000    7.310000   15.360000      10.0000    195.0840
  490   3 Pt  78       5.450000    9.620001   15.150000      10.0000    195.0840
  491   3 Pt  78       8.460000    9.530001   15.190000      10.0000    195.0840
  492   3 Pt  78      -5.620000    9.660000   15.140000      10.0000    195.0840
  493   3 Pt  78      -3.020000    9.630001   15.320000      10.0000    195.0840
  494   3 Pt  78      -0.250000    9.590000   15.000000      10.0000    195.0840
  495   3 Pt  78       2.560000    9.710001   15.300001      10.0000    195.0840
  496   3 Pt  78       7.080000   12.010001   15.140000      10.0000    195.0840
  497   3 Pt  78      -7.110000   12.070000   15.320000      10.0000    195.0840
  498   3 Pt  78      -4.310000   12.210001   15.450000      10.0000    195.0840
  499   3 Pt  78      -1.480000   11.990000   15.120000      10.0000    195.0840
  500   3 Pt  78       1.250000   12.100000   15.190000      10.0000    195.0840
  501   3 Pt  78       3.880000   12.120000   15.040000      10.0000    195.0840




 SCF PARAMETERS         Density guess:                                   RESTART
                        --------------------------------------------------------
                        max_scf:                                             500
                        max_scf_history:                                       0
[...]
 flops    13 x    20 x   104           5176104960       0.0%    100.0%      0.0%
 flops     5 x    13 x    96           5322470400       0.0%    100.0%      0.0%
 flops    13 x     5 x    96           5326064640       0.0%    100.0%      0.0%
 flops    13 x    32 x    13           5358040896       0.0%    100.0%      0.0%
 flops    20 x     5 x   104           5514662400       0.0%    100.0%      0.0%
 flops     5 x    20 x   104           5516659200       0.0%    100.0%      0.0%
 flops    13 x    13 x    96           6398226432       0.0%    100.0%      0.0%
 flops    13 x    32 x    20           8094944000       0.0%    100.0%      0.0%
 flops    20 x    32 x    13           8094944000       0.0%    100.0%      0.0%
 flops     5 x    32 x    20           8627059200       0.0%    100.0%      0.0%
 flops    20 x    32 x     5           8627059200       0.0%    100.0%      0.0%
 flops    20 x    13 x    96           9553489920       0.0%    100.0%      0.0%
 flops    13 x    20 x    96           9555886080       0.0%    100.0%      0.0%
 flops    20 x     5 x    96          10180915200       0.0%    100.0%      0.0%
 flops     5 x    20 x    96          10184601600       0.0%    100.0%      0.0%
 flops     5 x     5 x   128          36223948800       0.0%    100.0%      0.0%
 flops     5 x    13 x   128          46128076800       0.0%    100.0%      0.0%
 flops    13 x     5 x   128          46159226880       0.0%    100.0%      0.0%
 flops    20 x    20 x   104          46797004800       0.0%    100.0%      0.0%
 flops    13 x    13 x   128          55451295744       0.0%    100.0%      0.0%
 flops    20 x    32 x    20          72858009600       0.0%    100.0%      0.0%
 flops    20 x    13 x   128          82796912640       0.0%    100.0%      0.0%
 flops    13 x    20 x   128          82817679360       0.0%    100.0%      0.0%
 flops    20 x    20 x    96          86394470400       0.0%    100.0%      0.0%
 flops    20 x     5 x   128          88234598400       0.0%    100.0%      0.0%
 flops     5 x    20 x   128          88266547200       0.0%    100.0%      0.0%
 flops    20 x    20 x   128         748752076800       0.0%    100.0%      0.0%
 flops inhomo. stacks                           0       0.0%      0.0%      0.0%
 flops total                         1.626316E+12       0.0%    100.0%      0.0%
 flops max/rank                     14.316179E+09       0.0%    100.0%      0.0%
 matmuls inhomo. stacks                         0       0.0%      0.0%      0.0%
 matmuls total                           47484210       0.0%    100.0%      0.0%
 number of processed stacks                464105       0.0%    100.0%      0.0%
 average stack size                                     0.0     102.3       0.0
 marketing flops                     3.255211E+12
 -------------------------------------------------------------------------------
 # multiplications                             25
 max memory usage/rank               1.580507E+09
 # max total images/rank                        2
 # max 3D layers                                1
 # MPI messages exchanged                   92800
 MPI messages size (bytes):
  total size                        58.386899E+09
  min size                         299.520000E+03
  max size                           2.124184E+06
  average size                     629.169188E+03
 MPI breakdown and total messages size (bytes):
             size <=      128                   0                        0
       128 < size <=     8192                   0                        0
      8192 < size <=    32768                   0                        0
     32768 < size <=   131072                   0                        0
    131072 < size <=  4194304               92800              58386899480
   4194304 < size <= 16777216                   0                        0
  16777216 < size                               0                        0
 -------------------------------------------------------------------------------

 *** WARNING in dbcsr_mm.F:290 :: Using a non-square number of MPI ranks ***
 *** might lead to poor performance. Used ranks: 128 Suggested: 121 256  ***

 -------------------------------------------------------------------------------
 -                                                                             -
 -                      DBCSR MESSAGE PASSING PERFORMANCE                      -
 -                                                                             -
 -------------------------------------------------------------------------------
 ROUTINE             CALLS      AVE VOLUME [Bytes]
 MP_Bcast               46                     12.
 MP_Allreduce          278                     15.
 MP_Alltoall           693                 574596.
 MP_ISend             1600                 300919.
 MP_IRecv             1600                 294623.
 -------------------------------------------------------------------------------

 -------------------------------------------------------------------------------
 -                                                                             -
 -                                DBM STATISTICS                               -
 -                                                                             -
 -------------------------------------------------------------------------------
    M  x    N  x    K                                          COUNT     PERCENT
 -------------------------------------------------------------------------------

 -------------------------------------------------------------------------------
 -                                                                             -
 -                                GRID STATISTICS                              -
 -                                                                             -
 -------------------------------------------------------------------------------
 LP    KERNEL             BACKEND                              COUNT     PERCENT
 4     collocate general  REF                                9242251      23.00%
 4     integrate general  REF                                9102555      22.65%
 3     collocate general  REF                                6029243      15.00%
 3     integrate general  REF                                5971111      14.86%
 2     collocate general  REF                                4692207      11.68%
 2     integrate general  REF                                4488198      11.17%
 5     integrate general  REF                                 401837       1.00%
 0     collocate general  REF                                 128256       0.32%
 0     integrate general  REF                                  64128       0.16%
 1     integrate general  REF                                  64128       0.16%
 -------------------------------------------------------------------------------

 MEMORY| Estimated peak process memory [MiB]                                1770

 -------------------------------------------------------------------------------
 ----                             MULTIGRID INFO                            ----
 -------------------------------------------------------------------------------
 count for grid        1:        1089019          cutoff [a.u.]          200.00
 count for grid        2:        1083374          cutoff [a.u.]           66.67
 count for grid        3:         703136          cutoff [a.u.]           22.22
 count for grid        4:         537808          cutoff [a.u.]            7.41
 total gridlevel count  :        3413337

 -------------------------------------------------------------------------------
 -                                                                             -
 -                         MESSAGE PASSING PERFORMANCE                         -
 -                                                                             -
 -------------------------------------------------------------------------------

 ROUTINE             CALLS      AVE VOLUME [Bytes]
 MP_Group                4
 MP_Bcast             2141                 313572.
 MP_Allreduce         3004                  35150.
 MP_Sync                52
 MP_Alltoall          1402               16710048.
 MP_SendRecv           508                   5847.
 MP_ISendRecv        11684                  61740.
 MP_Wait             20942
 MP_comm_split          24
 MP_ISend             8732                 256745.
 MP_IRecv             8732                 256745.
 MP_Recv               122                1665280.
 MP_Write_All            3                1797408.
 -------------------------------------------------------------------------------


 -------------------------------------------------------------------------------
 -                                                                             -
 -                           R E F E R E N C E S                               -
 -                                                                             -
 -------------------------------------------------------------------------------
 
 CP2K version 2022.1, the CP2K developers group (2022).
 CP2K is freely available from https://www.cp2k.org/ .

 Kuehne,Thomas D.; Iannuzzi,Marcella; Del Ben,Mauro;
 Rybkin,Vladimir V.; Seewald,Patrick; Stein,Frederick; Laino,Teodoro;
 Khaliullin,Rustam Z.; Schuett,Ole; Schiffmann,Florian; Golze,Dorothea;
 Wilhelm,Jan; Chulkov,Sergey; Bani-Hashemian,Mohammad Hossein;
 Weber,Valery; Borstnik,Urban; Taillefumier,Mathieu;
 Jakobovits,Alice Shoshana; Lazzaro,Alfio; Pabst,Hans; Mueller,Tiziano;
 Schade,Robert; Guidon,Manuel; Andermatt,Samuel; Holmberg,Nico;
 Schenter,Gregory K.; Hehn,Anna; Bussy,Augustin; Belleflamme,Fabian;
 Tabacchi,Gloria; Gloess,Andreas; Lass,Michael; Bethune,Iain;
 Mundy,Christopher J.; Plessl,Christian; Watkins,Matt;
 VandeVondele,Joost; Krack,Matthias; Hutter,Juerg. 
 The Journal of Chemical Physics, 152 (19), (2020). 
 CP2K: An electronic structure and molecular dynamics software package -
 Quickstep: Efficient and accurate electronic structure calculations.
 https://doi.org/10.1063/5.0007045

 Goerigk, Lars; Hansen, Andreas; Bauer, Christoph; Ehrlich, Stephan;
 Najibi, Asim; Grimme, Stefan. , 19 (48), (2017). 
 A look at the density functional theory zoo with the advanced GMTKN55 database
 for general main group thermochemistry, kinetics and noncovalent interactions.
 https://doi.org/10.1039/C7CP04913G

 Bani-Hashemian, MH; Bruck, S; Luisier, M; VandeVondele, J. 
 JOURNAL OF CHEMICAL PHYSICS, 144 (4), 044113 (2016). 
 A generalized Poisson solver for first-principles device simulations.
 https://doi.org/10.1063/1.4940796

 Schuett, Ole; Messmer, Peter; Hutter, Juerg; VandeVondele, Joost. 
 Electronic Structure Calculations on Graphics Processing Units, John
 Wiley & Sons, Ltd, 173-190 (2016). 
 GPU-Accelerated Sparse Matrix-Matrix Multiplication for
 Linear Scaling Density Functional Theory.
 https://doi.org/10.1002/9781118670712.ch8

 Heinecke, A; Henry, G; Hutchinson, M; Pabst, H. 
 Proceedings of Intl. Supercomputing Conference, 981-991 (2016). 
 LIBXSMM: Accelerating Small Matrix Multiplications
 by Runtime Code Generation.
 https://doi.org/10.1109/SC.2016.83

 Borstnik, U; VandeVondele, J; Weber, V; Hutter, J. 
 PARALLEL COMPUTING, 40 (5-6), 47-58 (2014). 
 Sparse matrix multiplication: The distributed block-compressed sparse
 row library.
 https://doi.org/10.1016/j.parco.2014.03.012

 Hutter, J; Iannuzzi, M; Schiffmann, F; VandeVondele, J. 
 WIREs Comput Mol Sci., 4 (1), 15-25 (2014). 
 CP2K: atomistic simulations of condensed matter systems.
 https://doi.org/10.1002/wcms.1159

 Marek, A; Blum, V; Johanni, R; Havu, V; Lang, B; Auckenthaler, T;
 Heinecke, A; Bungartz, H; Lederer, H. 
 Journal of Physics: Condensed Matter, 26 (21), (2014). 
 The ELPA library: scalable parallel eigenvalue solutions for
 electronic structure
 theory and computational science.
 https://doi.org/10.1088/0953-8984/26/21/213201

 Grimme, S; Ehrlich, S; Goerigk, L. 
 JOURNAL OF COMPUTATIONAL CHEMISTRY, 32, 1456 (2011). 
 Effect of the damping function in dispersion corrected density functional theory.
 https://doi.org/10.1002/jcc.21759

 Grimme, S; Antony, J; Ehrlich, S; Krieg, H. 
 JOURNAL OF CHEMICAL PHYSICS, 132 (15), 154104 (2010). 
 A consistent and accurate ab initio parametrization of density
 functional dispersion correction (DFT-D) for the 94 elements H-Pu.
 https://doi.org/10.1063/1.3382344

 VandeVondele, J; Hutter, J. 
 JOURNAL OF CHEMICAL PHYSICS, 127 (11), 114105 (2007). 
 Gaussian basis sets for accurate calculations on molecular systems in
 gas and condensed phases.
 https://doi.org/10.1063/1.2770708

 Krack, M. 
 THEORETICAL CHEMISTRY ACCOUNTS, 114 (1-3), 145-152 (2005). 
 Pseudopotentials for H to Kr optimized for gradient-corrected
 exchange-correlation functionals.
 https://doi.org/10.1007/s00214-005-0655-y

 VandeVondele, J; Krack, M; Mohamed, F; Parrinello, M; Chassaing, T;
 Hutter, J. COMPUTER PHYSICS COMMUNICATIONS, 167 (2), 103-128 (2005). 
 QUICKSTEP: Fast and accurate density functional calculations using a
 mixed Gaussian and plane waves approach.
 https://doi.org/10.1016/j.cpc.2004.12.014

 Frigo, M; Johnson, SG. 
 PROCEEDINGS OF THE IEEE, 93 (2), 216-231 (2005). 
 The design and implementation of FFTW3.
 https://doi.org/10.1109/JPROC.2004.840301

 Hartwigsen, C; Goedecker, S; Hutter, J. 
 PHYSICAL REVIEW B, 58 (7), 3641-3662 (1998). 
 Relativistic separable dual-space Gaussian pseudopotentials from H to Rn.
 https://doi.org/10.1103/PhysRevB.58.3641

 Lippert, G; Hutter, J; Parrinello, M. 
 MOLECULAR PHYSICS, 92 (3), 477-487 (1997). 
 A hybrid Gaussian and plane wave density functional scheme.
 https://doi.org/10.1080/002689797170220

 Perdew, JP; Burke, K; Ernzerhof, M. 
 PHYSICAL REVIEW LETTERS, 77 (18), 3865-3868 (1996). 
 Generalized gradient approximation made simple.
 https://doi.org/10.1103/PhysRevLett.77.3865

 Goedecker, S; Teter, M; Hutter, J. 
 PHYSICAL REVIEW B, 54 (3), 1703-1710 (1996). 
 Separable dual-space Gaussian pseudopotentials.
 https://doi.org/10.1103/PhysRevB.54.1703


 -------------------------------------------------------------------------------
 -                                                                             -
 -                                T I M I N G                                  -
 -                                                                             -
 -------------------------------------------------------------------------------
 SUBROUTINE                       CALLS  ASD         SELF TIME        TOTAL TIME
                                MAXIMUM       AVERAGE  MAXIMUM  AVERAGE  MAXIMUM
 CP2K                                 1  1.0    0.385    0.395  164.543  164.544
 qs_forces                            1  2.0    0.002    0.002  163.818  163.819
 qs_energies                          1  3.0    0.000    0.001  157.732  157.735
 scf_env_do_scf                       1  4.0    0.000    0.000  148.951  149.095
 scf_env_do_scf_inner_loop           22  5.0    0.002    0.003  148.948  149.091
 rebuild_ks_matrix                   23  6.9    0.000    0.000   82.692   82.712
 qs_ks_build_kohn_sham_matrix        23  7.9    0.004    0.004   82.692   82.712
 qs_ks_update_qs_env                 22  6.0    0.000    0.000   78.680   78.700
 pw_transfer                       1200 12.1    0.088    0.116   52.177   53.291
 fft_wrap_pw1pw2                   1200 13.1    0.012    0.017   52.089   53.183
 fft_wrap_pw1pw2_200               1062 14.4    3.544    4.220   51.351   52.374
 pw_poisson_solve                    23  8.9    0.002    0.006   44.484   44.503
 fft3d_ps                          1200 15.1   15.091   16.796   41.813   43.496
 qs_scf_new_mos                      22  6.0    0.001    0.003   42.160   42.228
 implicit_poisson_solver_mixed_      23  9.9    0.947    1.157   41.895   41.950
 eigensolver                         22  7.0    0.002    0.003   39.765   39.882
 derive_fft                         138 12.0    0.008    0.010   29.387   29.452
 cp_fm_diag_elpa                     24  8.1    0.000    0.000   28.712   28.786
 cp_fm_redistribute_end              24  9.1    3.839   28.419    3.883   28.446
 cp_fm_diag_elpa_base                24  9.1   24.194   27.797   24.425   28.036
 mp_alltoall_z22v                  1200 17.1   22.280   27.492   22.280   27.492
 qs_rho_update_rho_low               23  6.0    0.000    0.000   25.694   25.717
 calculate_rho_elec                  23  7.0    0.045    0.058   25.694   25.717
 sum_up_and_integrate                23  8.9    0.125    0.153   25.455   25.485
 integrate_v_rspace                  23  9.9    0.001    0.001   25.330   25.400
 apply_P_operator                   115 11.1    0.617    0.700   25.114   25.176
 grid_collocate_task_list            23  8.0   16.081   20.144   16.081   20.144
 grid_integrate_task_list            23 10.9   14.998   18.416   14.998   18.416
 x_to_yz                            691 16.4    2.941    3.821   16.994   17.637
 rs_pw_transfer                     188 10.4    0.002    0.003   12.231   14.762
 cp_fm_triangular_multiply           66  8.0   12.584   12.717   12.584   12.717
 yz_to_x                            371 16.4    1.018    1.191    9.153   12.509
 density_rs2pw                       23  8.0    0.001    0.003    9.043   11.597
 qs_vxc_create                       23  8.9    0.001    0.001   11.332   11.474
 xc_vxc_pw_create                    23  9.9    0.197    0.246   11.331   11.473
 xc_pw_derive                       138 11.9    0.002    0.002    7.983    8.852
 rs_pw_transfer_RS2PW_200            25  9.9    1.626    1.814    5.711    8.241
 mp_waitany                        8732 12.3    5.681    8.218    5.681    8.218
 apply_poisson_operator_fft          23 10.9    0.000    0.000    7.347    7.471
 apply_inv_laplace_operator_fft      71 11.6    0.178    0.200    6.812    7.074
 mp_alltoall_d11v                   344 10.2    4.401    6.819    4.401    6.819
 potential_pw2rs                     23 10.9    0.007    0.007    6.669    6.720
 rs_gather_matrices                  23 10.9    0.027    0.033    3.651    6.104
 xc_pw_divergence                    23 10.9    0.001    0.001    5.390    6.055
 xc_rho_set_and_dset_create          23 10.9    0.115    0.135    5.526    5.878
 scf_post_calculation_gpw             1  4.0    0.000    0.001    5.544    5.550
 write_available_results              1  5.0    0.000    0.000    5.544    5.549
 ps_implicit_compute_error_fft       46 10.9    0.290    0.354    4.955    5.328
 ps_implicit_compute_veps            23 10.9    0.134    0.159    5.026    5.119
 pw_scatter_p                       760 15.3    4.283    4.951    4.283    4.951
 rs_pw_transfer_PW2RS_200            25 12.5    1.891    1.989    3.961    4.101
 qs_ks_update_qs_env_forces           1  3.0    0.000    0.000    4.044    4.045
 pw_derive                          552 13.0    3.500    3.773    3.500    3.773
 write_mo_dependent_results           1  6.0    0.000    0.000    2.542    3.647
 calculate_projected_dos              1  7.0    0.348    1.603    2.542    3.647
 gspace_mixing                       21  6.0    0.040    0.050    3.340    3.340
 -------------------------------------------------------------------------------

 The number of warnings for this run is : 1
 
 -------------------------------------------------------------------------------
  **** **** ******  **  PROGRAM ENDED AT                 2023-12-02 19:05:03.727
 ***** ** ***  *** **   PROGRAM RAN ON                                     cu029
 **    ****   ******    PROGRAM RAN BY                                     jxzhu
 ***** **    ** ** **   PROGRAM PROCESS ID                                 60682
  **** **  *******  **  PROGRAM STOPPED IN /public/home/jxzhu/tmp_calc/e769ef683
                                           7c19ec1b2245cd1b606567b63bed5c1/calc/
                                           002000.000/search_hi.000001
