 DBCSR| CPU Multiplication driver                                           XSMM
 DBCSR| Multrec recursion limit                                              512
 DBCSR| Multiplication stack size                                           1000
 DBCSR| Maximum elements for images                                    UNLIMITED
 DBCSR| Multiplicative factor virtual images                                   1
 DBCSR| Use multiplication densification                                       T
 DBCSR| Multiplication size stacks                                             3
 DBCSR| Use memory pool for CPU allocation                                     F
 DBCSR| Number of 3D layers                                               SINGLE
 DBCSR| Use MPI memory allocation                                              F
 DBCSR| Use RMA algorithm                                                      F
 DBCSR| Use Communication thread                                               T
 DBCSR| Communication thread load                                             87
 DBCSR| MPI: My node id                                                        0
 DBCSR| MPI: Number of nodes                                                  64
 DBCSR| OMP: Current number of threads                                         1
 DBCSR| OMP: Max number of threads                                             1
 DBCSR| Split modifier for TAS multiplication algorithm                  1.0E+00


  **** **** ******  **  PROGRAM STARTED AT               2023-11-26 23:49:57.717
 ***** ** ***  *** **   PROGRAM STARTED ON                                 cu054
 **    ****   ******    PROGRAM STARTED BY                                 jxzhu
 ***** **    ** ** **   PROGRAM PROCESS ID                                 47180
  **** **  *******  **  PROGRAM STARTED IN /public/home/jxzhu/tmp_calc/af2075565
                                           805657d94fa4669dad6f4b174b0a4fb/calc/
                                           001400.000/pbc

 CP2K| version string:                                       CP2K version 2022.1
 CP2K| source code revision number:                                  git:2caeb6f
 CP2K| cp2kflags: omp libint fftw3 libxc elpa parallel mpi3 scalapack cosma xsmm
 CP2K|             plumed2 spglib mkl sirius libvori libbqb
 CP2K| is freely available from                            https://www.cp2k.org/
 CP2K| Program compiled at                           Mon Jul 3 17:37:06 CST 2023
 CP2K| Program compiled on                                                 mu003
 CP2K| Program compiled for                                                local
 CP2K| Data directory path                             /public/home/jxzhu/basis/
 CP2K| Input file name                                                 input.inp
 
 GLOBAL| Force Environment number                                              1
 GLOBAL| Basis set file name                                        BASIS_MOLOPT
 GLOBAL| Potential file name                                      GTH_POTENTIALS
 GLOBAL| MM Potential file name                                     MM_POTENTIAL
 GLOBAL| Coordinate file name                                          coord.xyz
 GLOBAL| Method name                                                        CP2K
 GLOBAL| Project name                                                       cp2k
 GLOBAL| Run type                                                   ENERGY_FORCE
 GLOBAL| FFT library                                                       FFTW3
 GLOBAL| Diagonalization library                                            ELPA
 GLOBAL| Minimum number of eigenvectors for ELPA usage                        16
 GLOBAL| Orthonormality check for eigenvectors                          DISABLED
 GLOBAL| Matrix multiplication library                                     COSMA
 GLOBAL| All-to-all communication in single precision                          F
 GLOBAL| FFTs using library dependent lengths                                  F
 GLOBAL| Grid backend                                                       AUTO
 GLOBAL| Global print level                                               MEDIUM
 GLOBAL| MPI I/O enabled                                                       T
 GLOBAL| Total number of message passing processes                            64
 GLOBAL| Number of threads for this process                                    1
 GLOBAL| This output is from process                                           0
 GLOBAL| Stack size for threads created by OpenMP (OMP_STACKSIZE)        default
 GLOBAL| CPU model name                 Intel(R) Xeon(R) Gold 6338 CPU @ 2.00GHz
 GLOBAL| CPUID                                                              1003

 MEMORY| system memory details [Kb]
 MEMORY|                        rank 0           min           max       average
 MEMORY| MemTotal            263619172     263619172     263619172     263619172
 MEMORY| MemFree             210358656     210358656     210362376     210359004
 MEMORY| Buffers                  3320          3320          3320          3320
 MEMORY| Cached                4325180       4325180       4325180       4325180
 MEMORY| Slab                  1818740       1818740       1818740       1818740
 MEMORY| SReclaimable           243604        243604        243604        243604
 MEMORY| MemLikelyFree       214930760     214930760     214934480     214931108


 *** Fundamental physical constants (SI units) ***

 *** Literature: B. J. Mohr and B. N. Taylor,
 ***             CODATA recommended values of the fundamental physical
 ***             constants: 2006, Web Version 5.1
 ***             http://physics.nist.gov/constants

 Speed of light in vacuum [m/s]                             2.99792458000000E+08
 Magnetic constant or permeability of vacuum [N/A**2]       1.25663706143592E-06
 Electric constant or permittivity of vacuum [F/m]          8.85418781762039E-12
 Planck constant (h) [J*s]                                  6.62606896000000E-34
 Planck constant (h-bar) [J*s]                              1.05457162825177E-34
 Elementary charge [C]                                      1.60217648700000E-19
 Electron mass [kg]                                         9.10938215000000E-31
 Electron g factor [ ]                                     -2.00231930436220E+00
 Proton mass [kg]                                           1.67262163700000E-27
 Fine-structure constant                                    7.29735253760000E-03
 Rydberg constant [1/m]                                     1.09737315685270E+07
 Avogadro constant [1/mol]                                  6.02214179000000E+23
 Boltzmann constant [J/K]                                   1.38065040000000E-23
 Atomic mass unit [kg]                                      1.66053878200000E-27
 Bohr radius [m]                                            5.29177208590000E-11

 *** Conversion factors ***

 [u] -> [a.u.]                                              1.82288848426455E+03
 [Angstrom] -> [Bohr] = [a.u.]                              1.88972613288564E+00
 [a.u.] = [Bohr] -> [Angstrom]                              5.29177208590000E-01
 [a.u.] -> [s]                                              2.41888432650478E-17
 [a.u.] -> [fs]                                             2.41888432650478E-02
 [a.u.] -> [J]                                              4.35974393937059E-18
 [a.u.] -> [N]                                              8.23872205491840E-08
 [a.u.] -> [K]                                              3.15774647902944E+05
 [a.u.] -> [kJ/mol]                                         2.62549961709828E+03
 [a.u.] -> [kcal/mol]                                       6.27509468713739E+02
 [a.u.] -> [Pa]                                             2.94210107994716E+13
 [a.u.] -> [bar]                                            2.94210107994716E+08
 [a.u.] -> [atm]                                            2.90362800883016E+08
 [a.u.] -> [eV]                                             2.72113838565563E+01
 [a.u.] -> [Hz]                                             6.57968392072181E+15
 [a.u.] -> [1/cm] (wave numbers)                            2.19474631370540E+05
 [a.u./Bohr**2] -> [1/cm]                                   5.14048714338585E+03
 

 CELL_TOP| Volume [angstrom^3]:                                     10221.806009
 CELL_TOP| Vector a [angstrom    16.869     0.000     0.000   |a| =    16.869000
 CELL_TOP| Vector b [angstrom    -8.434    14.609     0.000   |b| =    16.869015
 CELL_TOP| Vector c [angstrom     0.000     0.000    41.478   |c| =    41.478000
 CELL_TOP| Angle (b,c), alpha [degree]:                                90.000000
 CELL_TOP| Angle (a,c), beta  [degree]:                                90.000000
 CELL_TOP| Angle (a,b), gamma [degree]:                               119.999970
 CELL_TOP| Numerically orthorhombic:                                          NO
 
 GENERATE|  Preliminary Number of Bonds generated:                             0
 GENERATE|  Achieved consistency in connectivity generation.

 CELL| Volume [angstrom^3]:                                         10221.806009
 CELL| Vector a [angstrom]:      16.869     0.000     0.000   |a| =    16.869000
 CELL| Vector b [angstrom]:      -8.434    14.609     0.000   |b| =    16.869015
 CELL| Vector c [angstrom]:       0.000     0.000    41.478   |c| =    41.478000
 CELL| Angle (b,c), alpha [degree]:                                    90.000000
 CELL| Angle (a,c), beta  [degree]:                                    90.000000
 CELL| Angle (a,b), gamma [degree]:                                   119.999970
 CELL| Numerically orthorhombic:                                              NO

 CELL_REF| Volume [angstrom^3]:                                     10221.806009
 CELL_REF| Vector a [angstrom    16.869     0.000     0.000   |a| =    16.869000
 CELL_REF| Vector b [angstrom    -8.434    14.609     0.000   |b| =    16.869015
 CELL_REF| Vector c [angstrom     0.000     0.000    41.478   |c| =    41.478000
 CELL_REF| Angle (b,c), alpha [degree]:                                90.000000
 CELL_REF| Angle (a,c), beta  [degree]:                                90.000000
 CELL_REF| Angle (a,b), gamma [degree]:                               119.999970
 CELL_REF| Numerically orthorhombic:                                          NO

 *******************************************************************************
 *******************************************************************************
 **                                                                           **
 **     #####                         ##              ##                      **
 **    ##   ##            ##          ##              ##                      **
 **   ##     ##                       ##            ######                    **
 **   ##     ##  ##   ##  ##   #####  ##  ##   ####   ##    #####    #####    **
 **   ##     ##  ##   ##  ##  ##      ## ##   ##      ##   ##   ##  ##   ##   **
 **   ##  ## ##  ##   ##  ##  ##      ####     ###    ##   ######   ######    **
 **    ##  ###   ##   ##  ##  ##      ## ##      ##   ##   ##       ##        **
 **     #######   #####   ##   #####  ##  ##  ####    ##    #####   ##        **
 **           ##                                                    ##        **
 **                                                                           **
 **                                                ... make the atoms dance   **
 **                                                                           **
 **            Copyright (C) by CP2K developers group (2000-2022)             **
 **                      J. Chem. Phys. 152, 194103 (2020)                    **
 **                                                                           **
 *******************************************************************************

 DFT| Spin restricted Kohn-Sham (RKS) calculation                            RKS
 DFT| Multiplicity                                                             1
 DFT| Number of spin states                                                    1
 DFT| Charge                                                                   0
 DFT| Self-interaction correction (SIC)                                       NO
 DFT| Cutoffs: density                                              1.000000E-10
 DFT|          gradient                                             1.000000E-10
 DFT|          tau                                                  1.000000E-10
 DFT|          cutoff_smoothing_range                               0.000000E+00
 DFT| XC density smoothing                                                  NONE
 DFT| XC derivatives                                                          PW

 FUNCTIONAL| PBE:
 FUNCTIONAL| J.P.Perdew, K.Burke, M.Ernzerhof, Phys. Rev. Letter, vol. 77, n 18,
 FUNCTIONAL|  pp. 3865-3868, (1996){spin unpolarized}                           

 vdW POTENTIAL|                                                   Pair Potential
 vdW POTENTIAL|          DFT-D3 (Version 3.1)
 vdW POTENTIAL|          Potential Form: S. Grimme et al, JCP 132: 154104 (2010)
 vdW POTENTIAL|          Zero Damping
 vdW POTENTIAL|          Cutoff Radius [Bohr]:                             20.00
 vdW POTENTIAL|          s6 Scaling Factor:                               1.0000
 vdW POTENTIAL|          sr6 Scaling Factor:                              1.2170
 vdW POTENTIAL|          s8 Scaling Factor:                               0.7220
 vdW POTENTIAL|          Cutoff for CN calculation:                   0.1000E-05

 QS| Method:                                                                 GPW
 QS| Density plane wave grid type                        NON-SPHERICAL FULLSPACE
 QS| Number of grid levels:                                                    4
 QS| Density cutoff [a.u.]:                                                200.0
 QS| Multi grid cutoff [a.u.]: 1) grid level                               200.0
 QS|                           2) grid level                                66.7
 QS|                           3) grid level                                22.2
 QS|                           4) grid level                                 7.4
 QS| Grid level progression factor:                                          3.0
 QS| Relative density cutoff [a.u.]:                                        20.0
 QS| Interaction thresholds: eps_pgf_orb:                                3.2E-07
 QS|                         eps_filter_matrix:                          0.0E+00
 QS|                         eps_core_charge:                            1.0E-15
 QS|                         eps_rho_gspace:                             1.0E-13
 QS|                         eps_rho_rspace:                             1.0E-13
 QS|                         eps_gvg_rspace:                             3.2E-07
 QS|                         eps_ppl:                                    1.0E-02
 QS|                         eps_ppnl:                                   3.2E-09


 ATOMIC KIND INFORMATION

  1. Atomic kind: O                                     Number of atoms:     230

     Orbital Basis Set                                        DZVP-MOLOPT-SR-GTH

       Number of orbital shell sets:                                           1
       Number of orbital shells:                                               5
       Number of primitive Cartesian functions:                                5
       Number of Cartesian basis functions:                                   14
       Number of spherical basis functions:                                   13
       Norm type:                                                              2

       Normalised Cartesian orbitals:

                        Set   Shell   Orbital            Exponent    Coefficient

                          1       1    2s               10.389228       0.396646
                                                         3.849621       0.208811
                                                         1.388401      -0.301641
                                                         0.496955      -0.274061
                                                         0.162492      -0.033677

                          1       2    3s               10.389228       0.303673
                                                         3.849621       0.240943
                                                         1.388401      -0.313066
                                                         0.496955      -0.043055
                                                         0.162492       0.213991

                          1       3    3px              10.389228      -1.530415
                                                         3.849621      -1.371928
                                                         1.388401      -0.761951
                                                         0.496955      -0.253695
                                                         0.162492      -0.035541
                          1       3    3py              10.389228      -1.530415
                                                         3.849621      -1.371928
                                                         1.388401      -0.761951
                                                         0.496955      -0.253695
                                                         0.162492      -0.035541
                          1       3    3pz              10.389228      -1.530415
                                                         3.849621      -1.371928
                                                         1.388401      -0.761951
                                                         0.496955      -0.253695
                                                         0.162492      -0.035541

                          1       4    4px              10.389228      -0.565392
                                                         3.849621      -0.038231
                                                         1.388401      -0.382373
                                                         0.496955       0.179070
                                                         0.162492       0.122714
                          1       4    4py              10.389228      -0.565392
                                                         3.849621      -0.038231
                                                         1.388401      -0.382373
                                                         0.496955       0.179070
                                                         0.162492       0.122714
                          1       4    4pz              10.389228      -0.565392
                                                         3.849621      -0.038231
                                                         1.388401      -0.382373
                                                         0.496955       0.179070
                                                         0.162492       0.122714

                          1       5    4dx2             10.389228       1.867377
                                                         3.849621       0.670994
                                                         1.388401       1.353441
                                                         0.496955       0.273538
                                                         0.162492       0.006620
                          1       5    4dxy             10.389228       3.234392
                                                         3.849621       1.162195
                                                         1.388401       2.344229
                                                         0.496955       0.473781
                                                         0.162492       0.011466
                          1       5    4dxz             10.389228       3.234392
                                                         3.849621       1.162195
                                                         1.388401       2.344229
                                                         0.496955       0.473781
                                                         0.162492       0.011466
                          1       5    4dy2             10.389228       1.867377
                                                         3.849621       0.670994
                                                         1.388401       1.353441
                                                         0.496955       0.273538
                                                         0.162492       0.006620
                          1       5    4dyz             10.389228       3.234392
                                                         3.849621       1.162195
                                                         1.388401       2.344229
                                                         0.496955       0.473781
                                                         0.162492       0.011466
                          1       5    4dz2             10.389228       1.867377
                                                         3.849621       0.670994
                                                         1.388401       1.353441
                                                         0.496955       0.273538
                                                         0.162492       0.006620

       Atomic covalent radius [Angstrom]:                                  0.730

       Atomic van der Waals radius [Angstrom]:                             1.520

     GTH Potential information for                                    GTH-PBE-q6

       Description:                       Goedecker-Teter-Hutter pseudopotential
                                           Goedecker et al., PRB 54, 1703 (1996)
                                          Hartwigsen et al., PRB 58, 3641 (1998)
                                                      Krack, TCA 114, 145 (2005)

       Gaussian exponent of the core charge distribution:               8.360253
       Electronic configuration (s p d ...):                               2   4

       Parameters of the local part of the GTH pseudopotential:

                          rloc        C1          C2          C3          C4
                        0.244554  -16.667215    2.487311

       Parameters of the non-local part of the GTH pseudopotential:

                   l      r(l)      h(i,j,l)

                   0    0.220956   18.337458
                   1    0.211332

  2. Atomic kind: H                                     Number of atoms:     460

     Orbital Basis Set                                        DZVP-MOLOPT-SR-GTH

       Number of orbital shell sets:                                           1
       Number of orbital shells:                                               3
       Number of primitive Cartesian functions:                                5
       Number of Cartesian basis functions:                                    5
       Number of spherical basis functions:                                    5
       Norm type:                                                              2

       Normalised Cartesian orbitals:

                        Set   Shell   Orbital            Exponent    Coefficient

                          1       1    2s               10.068468      -0.133023
                                                         2.680223      -0.177618
                                                         0.791502      -0.258419
                                                         0.239116      -0.107525
                                                         0.082193      -0.014019

                          1       2    3s               10.068468       0.344673
                                                         2.680223       1.819821
                                                         0.791502      -0.999069
                                                         0.239116       0.017430
                                                         0.082193       0.082660

                          1       3    3px              10.068468       0.155326
                                                         2.680223       0.367157
                                                         0.791502       0.311480
                                                         0.239116       0.080105
                                                         0.082193       0.033440
                          1       3    3py              10.068468       0.155326
                                                         2.680223       0.367157
                                                         0.791502       0.311480
                                                         0.239116       0.080105
                                                         0.082193       0.033440
                          1       3    3pz              10.068468       0.155326
                                                         2.680223       0.367157
                                                         0.791502       0.311480
                                                         0.239116       0.080105
                                                         0.082193       0.033440

       Atomic covalent radius [Angstrom]:                                  0.320

       Atomic van der Waals radius [Angstrom]:                             1.090

     GTH Potential information for                                    GTH-PBE-q1

       Description:                       Goedecker-Teter-Hutter pseudopotential
                                           Goedecker et al., PRB 54, 1703 (1996)
                                          Hartwigsen et al., PRB 58, 3641 (1998)
                                                      Krack, TCA 114, 145 (2005)

       Gaussian exponent of the core charge distribution:              12.500000
       Electronic configuration (s p d ...):                                   1

       Parameters of the local part of the GTH pseudopotential:

                          rloc        C1          C2          C3          C4
                        0.200000   -4.178900    0.724463

  3. Atomic kind: Pt                                    Number of atoms:     216

     Orbital Basis Set                      DZVP-A5-Q10-323-MOL-T1-DERIVED_SET-1

       Number of orbital shell sets:                                           1
       Number of orbital shells:                                               6
       Number of primitive Cartesian functions:                                5
       Number of Cartesian basis functions:                                   23
       Number of spherical basis functions:                                   20
       Norm type:                                                              2

       Normalised Cartesian orbitals:

                        Set   Shell   Orbital            Exponent    Coefficient

                          1       1    2s                2.521825       0.177473
                                                         1.453920      -0.063399
                                                         0.614053      -0.407089
                                                         0.232656       0.262254
                                                         0.074788       0.047371

                          1       2    3s                2.521825      -0.049056
                                                         1.453920       0.044904
                                                         0.614053      -0.009756
                                                         0.232656      -0.144709
                                                         0.074788       0.144085

                          1       3    3px               2.521825      -0.317572
                                                         1.453920       0.534826
                                                         0.614053      -0.489458
                                                         0.232656       0.245631
                                                         0.074788       0.018221
                          1       3    3py               2.521825      -0.317572
                                                         1.453920       0.534826
                                                         0.614053      -0.489458
                                                         0.232656       0.245631
                                                         0.074788       0.018221
                          1       3    3pz               2.521825      -0.317572
                                                         1.453920       0.534826
                                                         0.614053      -0.489458
                                                         0.232656       0.245631
                                                         0.074788       0.018221

                          1       4    4dx2              2.521825       3.008522
                                                         1.453920      -1.224251
                                                         0.614053       0.225691
                                                         0.232656       0.125144
                                                         0.074788      -0.015348
                          1       4    4dxy              2.521825       5.210912
                                                         1.453920      -2.120465
                                                         0.614053       0.390909
                                                         0.232656       0.216756
                                                         0.074788      -0.026584
                          1       4    4dxz              2.521825       5.210912
                                                         1.453920      -2.120465
                                                         0.614053       0.390909
                                                         0.232656       0.216756
                                                         0.074788      -0.026584
                          1       4    4dy2              2.521825       3.008522
                                                         1.453920      -1.224251
                                                         0.614053       0.225691
                                                         0.232656       0.125144
                                                         0.074788      -0.015348
                          1       4    4dyz              2.521825       5.210912
                                                         1.453920      -2.120465
                                                         0.614053       0.390909
                                                         0.232656       0.216756
                                                         0.074788      -0.026584
                          1       4    4dz2              2.521825       3.008522
                                                         1.453920      -1.224251
                                                         0.614053       0.225691
                                                         0.232656       0.125144
                                                         0.074788      -0.015348

                          1       5    5dx2              2.521825       0.698026
                                                         1.453920      -1.511486
                                                         0.614053      -0.335394
                                                         0.232656      -0.025564
                                                         0.074788      -0.002699
                          1       5    5dxy              2.521825       1.209017
                                                         1.453920      -2.617970
                                                         0.614053      -0.580920
                                                         0.232656      -0.044277
                                                         0.074788      -0.004674
                          1       5    5dxz              2.521825       1.209017
                                                         1.453920      -2.617970
                                                         0.614053      -0.580920
                                                         0.232656      -0.044277
                                                         0.074788      -0.004674
                          1       5    5dy2              2.521825       0.698026
                                                         1.453920      -1.511486
                                                         0.614053      -0.335394
                                                         0.232656      -0.025564
                                                         0.074788      -0.002699
                          1       5    5dyz              2.521825       1.209017
                                                         1.453920      -2.617970
                                                         0.614053      -0.580920
                                                         0.232656      -0.044277
                                                         0.074788      -0.004674
                          1       5    5dz2              2.521825       0.698026
                                                         1.453920      -1.511486
                                                         0.614053      -0.335394
                                                         0.232656      -0.025564
                                                         0.074788      -0.002699

                          1       6    6dx2              2.521825       0.831079
                                                         1.453920      -0.709226
                                                         0.614053      -0.137351
                                                         0.232656       0.068642
                                                         0.074788       0.011745
                          1       6    6dxy              2.521825       1.439472
                                                         1.453920      -1.228415
                                                         0.614053      -0.237899
                                                         0.232656       0.118891
                                                         0.074788       0.020343
                          1       6    6dxz              2.521825       1.439472
                                                         1.453920      -1.228415
                                                         0.614053      -0.237899
                                                         0.232656       0.118891
                                                         0.074788       0.020343
                          1       6    6dy2              2.521825       0.831079
                                                         1.453920      -0.709226
                                                         0.614053      -0.137351
                                                         0.232656       0.068642
                                                         0.074788       0.011745
                          1       6    6dyz              2.521825       1.439472
                                                         1.453920      -1.228415
                                                         0.614053      -0.237899
                                                         0.232656       0.118891
                                                         0.074788       0.020343
                          1       6    6dz2              2.521825       0.831079
                                                         1.453920      -0.709226
                                                         0.614053      -0.137351
                                                         0.232656       0.068642
                                                         0.074788       0.011745

       Atomic covalent radius [Angstrom]:                                  1.300

       Atomic van der Waals radius [Angstrom]:                             1.750

     GTH Potential information for                                   GTH-PBE-q10

       Description:                       Goedecker-Teter-Hutter pseudopotential
                                           Goedecker et al., PRB 54, 1703 (1996)
                                          Hartwigsen et al., PRB 58, 3641 (1998)
                                                      Krack, TCA 114, 145 (2005)

       Gaussian exponent of the core charge distribution:               1.317676
       Electronic configuration (s p d ...):                           1   0   9

       Parameters of the local part of the GTH pseudopotential:

                          rloc        C1          C2          C3          C4
                        0.616000   11.313635

       Parameters of the non-local part of the GTH pseudopotential:

                   l      r(l)      h(i,j,l)

                   0    0.550904    4.733491   -1.784594
                                   -1.784594    2.303901
                   1    0.674138    2.534798   -1.778066
                                   -1.778066    2.103836
                   2    0.457392   -7.264011    2.558665
                                    2.558665   -2.901253


 MOLECULE KIND INFORMATION


 All atoms are their own molecule, skipping detailed information


 TOTAL NUMBERS AND MAXIMUM NUMBERS

  Total number of            - Atomic kinds:                                   3
                             - Atoms:                                        906
                             - Shell sets:                                   906
                             - Shells:                                      3826
                             - Primitive Cartesian functions:               4530
                             - Cartesian basis functions:                  10488
                             - Spherical basis functions:                   9610

  Maximum angular momentum of- Orbital basis functions:                        2
                             - Local part of the GTH pseudopotential:          2
                             - Non-local part of the GTH pseudopotential:      4


 MODULE QUICKSTEP:  ATOMIC COORDINATES IN angstrom

 Atom  Kind  Element       X           Y           Z          Z(eff)       Mass
    1   1 O    8      -1.120000   -8.560000    9.790000       6.0000     15.9994
    2   2 H    1      -1.640000   -9.330000    9.430000       1.0000      1.0079
    3   2 H    1      -1.640000   -7.770000    9.440001       1.0000      1.0079
    4   1 O    8       6.680000    8.490001    8.880001       6.0000     15.9994
    5   2 H    1       6.440001    8.200001    7.990000       1.0000      1.0079
    6   2 H    1       5.880000    9.010000    9.080001       1.0000      1.0079
    7   1 O    8      -7.920001   -9.470000   13.120001       6.0000     15.9994
    8   2 H    1      -7.400000  -10.200001   12.760000       1.0000      1.0079
    9   2 H    1      -7.490000   -9.190001   14.020000       1.0000      1.0079
   10   1 O    8       4.370000    6.960001    8.210000       6.0000     15.9994
   11   2 H    1       3.630000    6.380000    8.440001       1.0000      1.0079
   12   2 H    1       4.260000    7.840000    8.720000       1.0000      1.0079
   13   1 O    8       9.600000   -7.380000   11.730001       6.0000     15.9994
   14   2 H    1       9.120001   -7.410001   10.810001       1.0000      1.0079
   15   2 H    1       9.440001   -8.260000   12.170000       1.0000      1.0079
   16   1 O    8       1.350000   29.810001   13.400001       6.0000     15.9994
   17   2 H    1       2.090000   29.300001   12.980001       1.0000      1.0079
   18   2 H    1       0.520000   29.480001   13.070001       1.0000      1.0079
   19   1 O    8      -4.130000   34.389999   14.840001       6.0000     15.9994
   20   2 H    1      -4.640000   34.860001   14.160000       1.0000      1.0079
   21   2 H    1      -3.430000   33.920002   14.230001       1.0000      1.0079
   22   1 O    8      -0.090000   29.150002    8.330001       6.0000     15.9994
   23   2 H    1      -1.020000   29.580002    8.580000       1.0000      1.0079
   24   2 H    1       9.000000   15.250001    8.700001       1.0000      1.0079
   25   1 O    8     -22.250002  -24.440001   28.870001       6.0000     15.9994
   26   2 H    1     -22.770002  -24.200001   29.660000       1.0000      1.0079
   27   2 H    1     -22.900002  -24.900000   28.340000       1.0000      1.0079
   28   1 O    8       4.660000    4.480000   23.300001       6.0000     15.9994
   29   2 H    1       4.010000    3.700000   23.440001       1.0000      1.0079
   30   2 H    1       4.310000    5.360000   23.630001       1.0000      1.0079
   31   1 O    8       1.860000   -3.000000   25.600002       6.0000     15.9994
   32   2 H    1       1.160000   -3.600000   25.900002       1.0000      1.0079
   33   2 H    1       1.470000   -2.150000   25.880001       1.0000      1.0079
   34   1 O    8      -9.770000  -20.020000   20.770000       6.0000     15.9994
   35   2 H    1      -9.250001  -20.710001   20.210001       1.0000      1.0079
   36   2 H    1      -9.520000  -19.139999   20.370003       1.0000      1.0079
   37   1 O    8      -8.430000  -17.980001   32.050003       6.0000     15.9994
   38   2 H    1      -8.460000  -16.990002   32.230000       1.0000      1.0079
   39   2 H    1      -9.340000  -18.350000   32.350002       1.0000      1.0079
   40   1 O    8      18.630001   17.570002    8.960000       6.0000     15.9994
   41   2 H    1      18.880001   16.980001    9.710001       1.0000      1.0079
   42   2 H    1      18.610001   18.440001    9.400001       1.0000      1.0079
   43   1 O    8       5.100000   -6.030001   27.350002       6.0000     15.9994
   44   2 H    1       6.000000   -6.140000   26.950001       1.0000      1.0079
   45   2 H    1       4.830000   -5.140000   27.170002       1.0000      1.0079
   46   1 O    8      -2.570000   16.280001   31.200001       6.0000     15.9994
   47   2 H    1      -2.760000   15.380001   30.880001       1.0000      1.0079
   48   2 H    1      -1.720000   16.049999   31.720001       1.0000      1.0079
   49   1 O    8     -11.570001   18.860001   20.200001       6.0000     15.9994
   50   2 H    1     -12.370001   19.370001   20.410002       1.0000      1.0079
   51   2 H    1     -10.980000   19.590000   19.770000       1.0000      1.0079
   52   1 O    8      -6.490001   17.780001   11.980001       6.0000     15.9994
   53   2 H    1      -6.860001   16.990002   12.500000       1.0000      1.0079
   54   2 H    1      -6.670001   17.470001   11.100000       1.0000      1.0079
   55   1 O    8       3.030000  -13.320000   29.890001       6.0000     15.9994
   56   2 H    1       2.400000  -14.120001   30.070002       1.0000      1.0079
   57   2 H    1       2.680000  -12.980001   29.070000       1.0000      1.0079
   58   1 O    8      20.840000   -0.860000   22.740002       6.0000     15.9994
   59   2 H    1      21.180000   -0.730000   21.809999       1.0000      1.0079
   60   2 H    1      20.730001    0.050000   23.140001       1.0000      1.0079
   61   1 O    8     -15.310000   29.890001   31.110001       6.0000     15.9994
   62   2 H    1     -15.350000   30.389999   30.200003       1.0000      1.0079
   63   2 H    1       2.180000   30.400002   31.650002       1.0000      1.0079
   64   1 O    8      26.700001  -12.740001    9.510000       6.0000     15.9994
   65   2 H    1      26.340000  -11.870001    9.170000       1.0000      1.0079
   66   2 H    1      44.529999  -12.530001    9.280001       1.0000      1.0079
   67   1 O    8       7.400000    2.230000    8.610001       6.0000     15.9994
   68   2 H    1      -1.050000   15.820000    8.690001       1.0000      1.0079
   69   2 H    1       8.370000    2.440000    8.630000       1.0000      1.0079
   70   1 O    8     -10.870000   20.030001   28.510000       6.0000     15.9994
   71   2 H    1     -11.740000   19.610001   28.480000       1.0000      1.0079
   72   2 H    1     -10.500001   20.200001   27.600002       1.0000      1.0079
   73   1 O    8      -5.320000   -1.010000   22.710001       6.0000     15.9994
   74   2 H    1      -5.740000   -0.580000   23.460003       1.0000      1.0079
   75   2 H    1      -5.140000   -0.370000   22.000000       1.0000      1.0079
   76   1 O    8      -4.390000   10.300001   32.700001       6.0000     15.9994
   77   2 H    1      -4.220000    9.310000   32.700001       1.0000      1.0079
   78   2 H    1      -4.240000   10.590000   31.740002       1.0000      1.0079
   79   1 O    8      -3.740000  -36.330002   23.640001       6.0000     15.9994
   80   2 H    1      -3.720000  -35.670002   22.850000       1.0000      1.0079
   81   2 H    1      -2.810000  -36.610001   23.940001       1.0000      1.0079
   82   1 O    8       1.190000   -6.330000   14.540001       6.0000     15.9994
   83   2 H    1       1.070000   -5.370000   14.400001       1.0000      1.0079
   84   2 H    1       1.890000   -6.380000   15.180001       1.0000      1.0079
   85   1 O    8      -4.620000   17.020000    8.130000       6.0000     15.9994
   86   2 H    1      -4.030000   17.780001    8.520000       1.0000      1.0079
   87   2 H    1      -4.180000   16.150002    8.330001       1.0000      1.0079
   88   1 O    8      18.070000   -0.760000   17.180000       6.0000     15.9994
   89   2 H    1       1.720000   -0.810000   18.010002       1.0000      1.0079
   90   2 H    1      18.290001    0.150000   16.760002       1.0000      1.0079
   91   1 O    8       7.480001   -6.540000   15.140000       6.0000     15.9994
   92   2 H    1       7.430000   -5.590000   15.420000       1.0000      1.0079
   93   2 H    1       7.330000   -6.560000   14.190001       1.0000      1.0079
   94   1 O    8      19.280001   23.840000   21.070002       6.0000     15.9994
   95   2 H    1      19.370001   24.640003   21.580000       1.0000      1.0079
   96   2 H    1      18.840000   24.110001   20.250000       1.0000      1.0079
   97   1 O    8     -25.610001  -10.580001    8.930000       6.0000     15.9994
   98   2 H    1     -25.980000   -9.730001    9.310000       1.0000      1.0079
   99   2 H    1     -25.990002  -10.610001    8.050001       1.0000      1.0079
  100   1 O    8      -0.770000   -8.900001   21.270000       6.0000     15.9994
  101   2 H    1      -0.780000   -8.350000   22.070000       1.0000      1.0079
  102   2 H    1      -0.440000   -9.760000   21.490002       1.0000      1.0079
  103   1 O    8      26.049999    7.440000   25.720001       6.0000     15.9994
  104   2 H    1      26.980001    7.440000   25.459999       1.0000      1.0079
  105   2 H    1       9.160001    7.480001   26.740000       1.0000      1.0079
  106   1 O    8      -3.010000    7.200000    8.960000       6.0000     15.9994
  107   2 H    1      -3.120000    7.150001    7.960001       1.0000      1.0079
  108   2 H    1      -3.780000    7.800000    9.150001       1.0000      1.0079
  109   1 O    8      24.280003   17.390001   15.750000       6.0000     15.9994
  110   2 H    1      24.300001   18.320002   16.240002       1.0000      1.0079
  111   2 H    1      23.990002   17.630001   14.840001       1.0000      1.0079
  112   1 O    8     -14.170000    9.210001   29.520000       6.0000     15.9994
  113   2 H    1     -14.410001    8.870000   30.400002       1.0000      1.0079
  114   2 H    1     -13.400001    8.670000   29.220001       1.0000      1.0079
  115   1 O    8      10.910001   19.580000    8.940001       6.0000     15.9994
  116   2 H    1       9.950001   19.790001    8.980000       1.0000      1.0079
  117   2 H    1      11.070000   19.330002    7.990000       1.0000      1.0079
  118   1 O    8     -21.890001   18.170000   27.470001       6.0000     15.9994
  119   2 H    1     -21.610001   18.860001   28.150002       1.0000      1.0079
  120   2 H    1     -22.450001   17.560001   28.000002       1.0000      1.0079
  121   1 O    8      16.170002   12.000000   26.910002       6.0000     15.9994
  122   2 H    1      15.200001   11.840000   26.660002       1.0000      1.0079
  123   2 H    1      16.350000   11.200000   27.420002       1.0000      1.0079
  124   1 O    8     -15.290001   13.690001   30.510002       6.0000     15.9994
  125   2 H    1     -24.490002   28.300001   29.930000       1.0000      1.0079
  126   2 H    1     -14.820002   12.880001   30.170002       1.0000      1.0079
  127   1 O    8      13.300000   -5.700001   16.310001       6.0000     15.9994
  128   2 H    1      13.140000   -5.380001   17.240002       1.0000      1.0079
  129   2 H    1       4.400000    8.010000   16.250002       1.0000      1.0079
  130   1 O    8      -6.330000    8.180000   30.220001       6.0000     15.9994
  131   2 H    1      -5.450000    8.570001   30.410002       1.0000      1.0079
  132   2 H    1      -6.480000    7.400000   30.870001       1.0000      1.0079
  133   1 O    8       0.320000   24.390001    8.090000       6.0000     15.9994
  134   2 H    1       0.410000   25.270002    8.610001       1.0000      1.0079
  135   2 H    1      -0.450000   23.890001    8.510000       1.0000      1.0079
  136   1 O    8     -18.560001    4.720000   23.350000       6.0000     15.9994
  137   2 H    1     -18.340000    5.090000   24.280003       1.0000      1.0079
  138   2 H    1     -19.310001    5.350000   23.220001       1.0000      1.0079
  139   1 O    8      -2.340000    9.150001   22.889999       6.0000     15.9994
  140   2 H    1      -1.870000    9.430000   22.120001       1.0000      1.0079
  141   2 H    1      -2.670000    9.970000   23.340000       1.0000      1.0079
  142   1 O    8      -0.080000    8.740000   18.880001       6.0000     15.9994
  143   2 H    1      -0.890000    8.120001   18.870001       1.0000      1.0079
  144   2 H    1       0.620000    8.160001   19.210001       1.0000      1.0079
  145   1 O    8     -19.130001   31.020002   11.850000       6.0000     15.9994
  146   2 H    1      -3.240000   30.740002   12.100000       1.0000      1.0079
  147   2 H    1     -18.680000   30.170002   12.080001       1.0000      1.0079
  148   1 O    8     -28.660002   26.110001   26.550003       6.0000     15.9994
  149   2 H    1     -29.220001   26.850002   26.860001       1.0000      1.0079
  150   2 H    1     -28.630001   26.280001   25.570002       1.0000      1.0079
  151   1 O    8      -9.110001   19.820002   17.240002       6.0000     15.9994
  152   2 H    1      -8.930000   19.530001   18.110001       1.0000      1.0079
  153   2 H    1      -9.860001   20.520000   17.340000       1.0000      1.0079
  154   1 O    8     -11.360001  -12.510000   22.670002       6.0000     15.9994
  155   2 H    1     -10.540000  -12.650002   22.100000       1.0000      1.0079
  156   2 H    1     -11.150000  -11.530000   22.889999       1.0000      1.0079
  157   1 O    8       1.250000  -11.710000   13.250000       6.0000     15.9994
  158   2 H    1       2.100000  -11.220001   13.060001       1.0000      1.0079
  159   2 H    1       0.760000  -11.790000   12.410001       1.0000      1.0079
  160   1 O    8       0.920000   -2.340000    9.260000       6.0000     15.9994
  161   2 H    1       0.360000   -1.620000    8.870000       1.0000      1.0079
  162   2 H    1       1.000000   -2.290000   10.220001       1.0000      1.0079
  163   1 O    8      42.670002   -8.410000   32.280003       6.0000     15.9994
  164   2 H    1      43.270000   -9.220000   32.300003       1.0000      1.0079
  165   2 H    1      42.260002   -8.440001   33.160004       1.0000      1.0079
  166   1 O    8       9.870001   -1.190000   17.090000       6.0000     15.9994
  167   2 H    1       9.720000   -2.060000   16.630001       1.0000      1.0079
  168   2 H    1      10.070001   -0.420000   16.480001       1.0000      1.0079
  169   1 O    8     -34.640003   -0.470000   19.290001       6.0000     15.9994
  170   2 H    1     -18.190001    0.450000   19.320000       1.0000      1.0079
  171   2 H    1     -17.210001   -0.410000   18.490002       1.0000      1.0079
  172   1 O    8      -1.190000  -14.910001    9.240000       6.0000     15.9994
  173   2 H    1      -0.390000  -15.040001    9.960001       1.0000      1.0079
  174   2 H    1      -1.250000  -15.570001    8.490001       1.0000      1.0079
  175   1 O    8       8.990001    3.380000   21.270000       6.0000     15.9994
  176   2 H    1       8.620001    2.500000   21.550003       1.0000      1.0079
  177   2 H    1       9.160001    3.270000   20.280001       1.0000      1.0079
  178   1 O    8     -10.200001   21.210001   30.840000       6.0000     15.9994
  179   2 H    1     -10.280000   20.780001   30.000002       1.0000      1.0079
  180   2 H    1      -9.200000   21.200001   30.950001       1.0000      1.0079
  181   1 O    8      20.660000    2.140000   32.400002       6.0000     15.9994
  182   2 H    1      20.810001    1.810000   33.310001       1.0000      1.0079
  183   2 H    1      21.580000    2.030000   31.950001       1.0000      1.0079
  184   1 O    8       7.030000    6.780000   29.720001       6.0000     15.9994
  185   2 H    1       7.860000    6.710000   29.120003       1.0000      1.0079
  186   2 H    1       7.460001    7.000000   30.590002       1.0000      1.0079
  187   1 O    8      -7.770000   29.960001   19.220001       6.0000     15.9994
  188   2 H    1      -7.780001   29.090002   18.730001       1.0000      1.0079
  189   2 H    1      -6.810000   30.070002   19.430000       1.0000      1.0079
  190   1 O    8      12.150001   13.800001   27.580002       6.0000     15.9994
  191   2 H    1      11.140001   13.770000   27.630003       1.0000      1.0079
  192   2 H    1      12.430000   14.480001   26.910002       1.0000      1.0079
  193   1 O    8       7.350000   13.960000   12.540001       6.0000     15.9994
  194   2 H    1       6.970000   13.790001   13.410001       1.0000      1.0079
  195   2 H    1       7.130001   13.190001   11.970000       1.0000      1.0079
  196   1 O    8     -32.459999   -4.100000   29.740002       6.0000     15.9994
  197   2 H    1     -32.880001   -3.820000   30.580002       1.0000      1.0079
  198   2 H    1     -32.340004   -5.110001   29.900002       1.0000      1.0079
  199   1 O    8     -12.990000   13.570002   26.030003       6.0000     15.9994
  200   2 H    1     -13.070001   13.890000   26.960001       1.0000      1.0079
  201   2 H    1     -13.890000   13.340001   25.810001       1.0000      1.0079
  202   1 O    8       6.180000   18.830002   13.380001       6.0000     15.9994
  203   2 H    1       6.130000   18.030001   12.800001       1.0000      1.0079
  204   2 H    1       7.030000   19.240002   13.210001       1.0000      1.0079
  205   1 O    8      20.250000   -2.210000    9.010000       6.0000     15.9994
  206   2 H    1      11.890000   12.410001    8.040000       1.0000      1.0079
  207   2 H    1      19.270000   -2.210000    9.110001       1.0000      1.0079
  208   1 O    8      -3.990000  -21.290001   20.000000       6.0000     15.9994
  209   2 H    1      -4.430000  -20.510002   20.420000       1.0000      1.0079
  210   2 H    1      -4.690000  -21.870001   19.610001       1.0000      1.0079
  211   1 O    8       4.370000  -12.190001   26.610001       6.0000     15.9994
  212   2 H    1       4.670000  -12.760000   25.880001       1.0000      1.0079
  213   2 H    1       4.080000  -11.340000   26.140001       1.0000      1.0079
  214   1 O    8      10.770000    6.670001   18.450001       6.0000     15.9994
  215   2 H    1       9.960001    7.170000   18.760000       1.0000      1.0079
  216   2 H    1      11.090001    7.300000   17.730001       1.0000      1.0079
  217   1 O    8     -22.260000    2.930000   22.710001       6.0000     15.9994
  218   2 H    1     -21.380001    2.420000   22.560001       1.0000      1.0079
  219   2 H    1     -22.880001    2.750000   22.000000       1.0000      1.0079
  220   1 O    8      35.140003    2.000000   19.450001       6.0000     15.9994
  221   2 H    1      34.700005    1.790000   20.320000       1.0000      1.0079
  222   2 H    1      36.130001    2.000000   19.630001       1.0000      1.0079
  223   1 O    8      -8.490001    7.270000   19.290001       6.0000     15.9994
  224   2 H    1       8.090000    6.520000   19.880001       1.0000      1.0079
  225   2 H    1      -9.020000    7.150001   18.450001       1.0000      1.0079
  226   1 O    8       3.600000   37.860001   11.600000       6.0000     15.9994
  227   2 H    1       2.750000   37.370003   11.450001       1.0000      1.0079
  228   2 H    1      21.090002   37.170002   11.800001       1.0000      1.0079
  229   1 O    8      -3.500000    6.880000   23.250000       6.0000     15.9994
  230   2 H    1      -3.130000    7.700000   22.750000       1.0000      1.0079
  231   2 H    1      -4.250000    6.610000   22.720001       1.0000      1.0079
  232   1 O    8       4.570000    5.470000   33.500000       6.0000     15.9994
  233   2 H    1       4.520000    6.530001   33.310001       1.0000      1.0079
  234   2 H    1       3.720000    5.070000   33.060001       1.0000      1.0079
  235   1 O    8      -0.910000   32.040001   28.630001       6.0000     15.9994
  236   2 H    1      -1.100000   33.000000   28.560001       1.0000      1.0079
  237   2 H    1      -1.740000   31.520002   28.890001       1.0000      1.0079
  238   1 O    8      -0.120000   -0.720000   32.570004       6.0000     15.9994
  239   2 H    1      -7.940001   14.300001   31.930000       1.0000      1.0079
  240   2 H    1       0.130000   -0.310000   33.380001       1.0000      1.0079
  241   1 O    8      10.440001   -4.510000   23.790001       6.0000     15.9994
  242   2 H    1      11.330000   -4.550000   24.270000       1.0000      1.0079
  243   2 H    1      10.630001   -4.330000   22.830000       1.0000      1.0079
  244   1 O    8       4.410000    0.300000    9.680000       6.0000     15.9994
  245   2 H    1       4.050000   -0.550000    9.380000       1.0000      1.0079
  246   2 H    1       5.380001    0.180000    9.630001       1.0000      1.0079
  247   1 O    8      17.170002    3.030000   33.430000       6.0000     15.9994
  248   2 H    1      17.560001    2.170000   33.340000       1.0000      1.0079
  249   2 H    1      16.280001    2.880000   32.990002       1.0000      1.0079
  250   1 O    8      21.920002   -0.600000   20.270002       6.0000     15.9994
  251   2 H    1      22.840002   -1.060000   20.210001       1.0000      1.0079
  252   2 H    1      21.920002    0.210000   19.720001       1.0000      1.0079
  253   1 O    8      -4.350000    2.480000    8.070001       6.0000     15.9994
  254   2 H    1      -5.250000    2.840000    8.350000       1.0000      1.0079
  255   2 H    1      -3.760000    3.230000    8.410000       1.0000      1.0079
  256   1 O    8      16.000000   -7.660000   12.250000       6.0000     15.9994
  257   2 H    1      16.280001   -8.400001   12.890000       1.0000      1.0079
  258   2 H    1      15.940001   -8.160001   11.270000       1.0000      1.0079
  259   1 O    8     -10.480001   26.920002   17.630001       6.0000     15.9994
  260   2 H    1     -10.900001   27.750000   17.290001       1.0000      1.0079
  261   2 H    1     -11.320001   26.330002   17.730001       1.0000      1.0079
  262   1 O    8       7.940001    9.640000   12.020000       6.0000     15.9994
  263   2 H    1       7.770000    8.760000   12.150001       1.0000      1.0079
  264   2 H    1       8.580000    9.970000   12.740001       1.0000      1.0079
  265   1 O    8       5.780000    2.460000   13.930000       6.0000     15.9994
  266   2 H    1       5.400000    3.020000   13.170000       1.0000      1.0079
  267   2 H    1      13.520001   17.000000   14.610001       1.0000      1.0079
  268   1 O    8      -2.150000  -10.660001   29.570004       6.0000     15.9994
  269   2 H    1      -2.220000  -11.350001   30.330002       1.0000      1.0079
  270   2 H    1      -1.560000   -9.960001   29.920002       1.0000      1.0079
  271   1 O    8       5.490000    3.720000    9.410001       6.0000     15.9994
  272   2 H    1       6.180000    2.990000    9.440001       1.0000      1.0079
  273   2 H    1       5.260000    4.010000   10.370001       1.0000      1.0079
  274   1 O    8       0.800000    9.860001   12.980001       6.0000     15.9994
  275   2 H    1       0.790000    8.950001   12.610001       1.0000      1.0079
  276   2 H    1       1.500000    9.980000   13.570002       1.0000      1.0079
  277   1 O    8       6.660000   11.800001   11.300000       6.0000     15.9994
  278   2 H    1     -10.420000   11.760000   10.350000       1.0000      1.0079
  279   2 H    1       6.970000   10.910001   11.600000       1.0000      1.0079
  280   1 O    8      29.680002   -6.890000   32.550003       6.0000     15.9994
  281   2 H    1      28.810001   -6.350000   32.550003       1.0000      1.0079
  282   2 H    1      30.310001   -6.170001   32.760002       1.0000      1.0079
  283   1 O    8      25.150002   -4.020000   16.470001       6.0000     15.9994
  284   2 H    1      16.900002   10.110001   17.330000       1.0000      1.0079
  285   2 H    1      24.330002   -3.510000   16.790001       1.0000      1.0079
  286   1 O    8     -29.670002   31.630001   15.920001       6.0000     15.9994
  287   2 H    1     -13.730000   31.430000   15.990001       1.0000      1.0079
  288   2 H    1     -29.380001   32.459999   16.230000       1.0000      1.0079
  289   1 O    8      -6.260000    1.300000   27.260000       6.0000     15.9994
  290   2 H    1      -6.800000    2.070000   27.280003       1.0000      1.0079
  291   2 H    1      -5.420001    1.580000   26.830002       1.0000      1.0079
  292   1 O    8      10.520000    7.160000   12.080001       6.0000     15.9994
  293   2 H    1       9.870001    7.280001   11.360001       1.0000      1.0079
  294   2 H    1      10.060000    7.610001   12.860001       1.0000      1.0079
  295   1 O    8       2.120000   17.110001   32.140003       6.0000     15.9994
  296   2 H    1       2.290000   16.730001   31.290001       1.0000      1.0079
  297   2 H    1       2.770000   16.630001   32.620003       1.0000      1.0079
  298   1 O    8      -4.070000   23.130001   26.390001       6.0000     15.9994
  299   2 H    1      -3.560000   23.970001   26.360001       1.0000      1.0079
  300   2 H    1      -3.880000   22.730000   25.520000       1.0000      1.0079
  301   1 O    8     -13.740001   17.750000   16.400002       6.0000     15.9994
  302   2 H    1     -14.410001   17.960001   17.250000       1.0000      1.0079
  303   2 H    1     -13.350000   18.610001   16.090000       1.0000      1.0079
  304   1 O    8       4.420000   10.250001   18.610001       6.0000     15.9994
  305   2 H    1       3.960000    9.470000   18.990000       1.0000      1.0079
  306   2 H    1       5.190001   10.430001   19.220001       1.0000      1.0079
  307   1 O    8     -14.680000   11.240001    8.980000       6.0000     15.9994
  308   2 H    1     -14.430000   11.940001    8.270000       1.0000      1.0079
  309   2 H    1     -14.940001   11.760000    9.760000       1.0000      1.0079
  310   1 O    8     -16.850000   28.920002   23.660002       6.0000     15.9994
  311   2 H    1     -17.760002   28.570002   23.970001       1.0000      1.0079
  312   2 H    1     -16.320002   28.110001   23.490002       1.0000      1.0079
  313   1 O    8       7.130001    3.140000   27.100000       6.0000     15.9994
  314   2 H    1       7.300000    2.150000   27.080002       1.0000      1.0079
  315   2 H    1       6.750000    3.350000   27.990000       1.0000      1.0079
  316   1 O    8       5.800000  -14.100000   24.910002       6.0000     15.9994
  317   2 H    1       5.840001  -13.670001   24.000000       1.0000      1.0079
  318   2 H    1       5.010000  -14.620000   24.940002       1.0000      1.0079
  319   1 O    8      -3.660000   -1.040000   15.870001       6.0000     15.9994
  320   2 H    1      -4.540000   -1.300000   16.210001       1.0000      1.0079
  321   2 H    1      -3.480000   -0.120000   16.200001       1.0000      1.0079
  322   1 O    8      19.620001    8.210000   19.590000       6.0000     15.9994
  323   2 H    1      19.960001    7.250000   19.280001       1.0000      1.0079
  324   2 H    1      20.100000    8.390000   20.389999       1.0000      1.0079
  325   1 O    8       3.670000   21.540001   25.680000       6.0000     15.9994
  326   2 H    1       4.200000   21.990002   26.380001       1.0000      1.0079
  327   2 H    1       4.200000   21.740000   24.790001       1.0000      1.0079
  328   1 O    8      -1.100000   14.910001   14.040001       6.0000     15.9994
  329   2 H    1      -1.700000   15.600000   13.790001       1.0000      1.0079
  330   2 H    1      -0.840000   14.320001   13.300000       1.0000      1.0079
  331   1 O    8     -24.490002   35.850002   28.220001       6.0000     15.9994
  332   2 H    1     -24.180002   35.010002   27.750000       1.0000      1.0079
  333   2 H    1     -23.700001   36.250004   28.640001       1.0000      1.0079
  334   1 O    8     -15.730000    6.190000   15.550001       6.0000     15.9994
  335   2 H    1     -16.360001    5.740000   16.270000       1.0000      1.0079
  336   2 H    1     -16.049999    7.110000   15.470000       1.0000      1.0079
  337   1 O    8       2.890000   22.139999   33.120003       6.0000     15.9994
  338   2 H    1      10.670000    8.270000   33.209999       1.0000      1.0079
  339   2 H    1     -14.500000   21.390001   32.770000       1.0000      1.0079
  340   1 O    8      11.910001   28.320000    8.680000       6.0000     15.9994
  341   2 H    1      12.870001   28.150002    8.420001       1.0000      1.0079
  342   2 H    1      11.490001   28.670002    7.860000       1.0000      1.0079
  343   1 O    8       4.390000   12.490001   12.680000       6.0000     15.9994
  344   2 H    1       4.270000   11.850000   13.440001       1.0000      1.0079
  345   2 H    1       5.250000   12.080001   12.370001       1.0000      1.0079
  346   1 O    8      -0.270000   -7.370000   32.150002       6.0000     15.9994
  347   2 H    1      -0.710000   -6.910000   32.920002       1.0000      1.0079
  348   2 H    1      -0.150000   -8.310000   32.510002       1.0000      1.0079
  349   1 O    8      13.800001   -3.620000   25.380001       6.0000     15.9994
  350   2 H    1      13.330001   -2.920000   25.850000       1.0000      1.0079
  351   2 H    1      13.630000   -3.340000   24.430000       1.0000      1.0079
  352   1 O    8      -0.940000    9.320001   28.770000       6.0000     15.9994
  353   2 H    1      -1.000000    9.890000   29.580002       1.0000      1.0079
  354   2 H    1      -1.020000    8.400001   29.150002       1.0000      1.0079
  355   1 O    8       7.320001   -1.810000   20.140001       6.0000     15.9994
  356   2 H    1       7.200000   -2.180000   19.210001       1.0000      1.0079
  357   2 H    1       7.450001   -2.610000   20.710001       1.0000      1.0079
  358   1 O    8      -0.710000   25.130001   17.700001       6.0000     15.9994
  359   2 H    1      -0.780000   24.260002   17.340000       1.0000      1.0079
  360   2 H    1      -0.900000   25.750000   16.930000       1.0000      1.0079
  361   1 O    8     -15.080000    4.560000   25.780001       6.0000     15.9994
  362   2 H    1     -14.600000    5.230000   25.320000       1.0000      1.0079
  363   2 H    1     -14.470000    4.310000   26.620003       1.0000      1.0079
  364   1 O    8      -1.090000   18.950001   16.910002       6.0000     15.9994
  365   2 H    1      -0.860000   19.460001   16.080000       1.0000      1.0079
  366   2 H    1      -1.050000   17.940001   16.780001       1.0000      1.0079
  367   1 O    8       8.210000   16.480001   21.980001       6.0000     15.9994
  368   2 H    1       8.430000   15.620001   22.340002       1.0000      1.0079
  369   2 H    1       8.440001   17.100000   22.670002       1.0000      1.0079
  370   1 O    8     -24.230001    4.200000   27.070000       6.0000     15.9994
  371   2 H    1     -23.760002    4.350000   26.260002       1.0000      1.0079
  372   2 H    1     -25.110001    3.740000   27.060001       1.0000      1.0079
  373   1 O    8      -2.900000    1.170000   28.810001       6.0000     15.9994
  374   2 H    1      -3.670000    1.150000   29.450001       1.0000      1.0079
  375   2 H    1      -3.360000    1.530000   28.050001       1.0000      1.0079
  376   1 O    8      -6.770000   12.250000   11.920000       6.0000     15.9994
  377   2 H    1      -7.210000   11.980001   12.790001       1.0000      1.0079
  378   2 H    1      -6.350000   11.320001   11.740000       1.0000      1.0079
  379   1 O    8      -2.660000   -1.470000   29.040001       6.0000     15.9994
  380   2 H    1      -2.550000   -0.420000   28.870001       1.0000      1.0079
  381   2 H    1      -1.880000   -2.010000   28.810001       1.0000      1.0079
  382   1 O    8      -6.280000    0.780000   24.440001       6.0000     15.9994
  383   2 H    1      -6.100000    1.680000   24.020002       1.0000      1.0079
  384   2 H    1      -6.390000    0.940000   25.459999       1.0000      1.0079
  385   1 O    8      -1.210000   22.220001   16.650002       6.0000     15.9994
  386   2 H    1      -1.990000   22.800003   16.560001       1.0000      1.0079
  387   2 H    1      -0.700000   22.310001   15.860001       1.0000      1.0079
  388   1 O    8       3.890000   15.050001   12.770000       6.0000     15.9994
  389   2 H    1       3.890000   15.390000   13.720001       1.0000      1.0079
  390   2 H    1       4.130000   14.110001   12.830001       1.0000      1.0079
  391   1 O    8       1.470000   20.450001    9.260000       6.0000     15.9994
  392   2 H    1       1.670000   20.350000    8.330001       1.0000      1.0079
  393   2 H    1       0.490000   20.540001    9.430000       1.0000      1.0079
  394   1 O    8      12.930001   23.870001   21.550003       6.0000     15.9994
  395   2 H    1      22.299999    9.230001   21.320002       1.0000      1.0079
  396   2 H    1      12.850000   24.780003   21.890001       1.0000      1.0079
  397   1 O    8      -2.730000   12.020000   24.080002       6.0000     15.9994
  398   2 H    1      -3.260000   12.630000   23.530003       1.0000      1.0079
  399   2 H    1      -1.900000   12.600001   24.270000       1.0000      1.0079
  400   1 O    8       5.090000   19.480001   32.510002       6.0000     15.9994
  401   2 H    1       5.550000   20.350000   32.360001       1.0000      1.0079
  402   2 H    1       5.000000   19.500000   33.520004       1.0000      1.0079
  403   1 O    8      21.840000   41.110001   22.780001       6.0000     15.9994
  404   2 H    1      21.340000   42.020000   22.680000       1.0000      1.0079
  405   2 H    1      22.620001   41.040001   22.160000       1.0000      1.0079
  406   1 O    8      11.710000   -2.930000   29.780003       6.0000     15.9994
  407   2 H    1      12.670001   -2.780000   29.430000       1.0000      1.0079
  408   2 H    1      11.550001   -3.960000   29.600000       1.0000      1.0079
  409   1 O    8      16.750000    7.310000    9.490001       6.0000     15.9994
  410   2 H    1      17.130001    7.980001    8.790001       1.0000      1.0079
  411   2 H    1      15.820000    7.570000    9.780001       1.0000      1.0079
  412   1 O    8     -26.049999   -4.350000   20.990002       6.0000     15.9994
  413   2 H    1     -25.160000   -4.140000   21.410000       1.0000      1.0079
  414   2 H    1     -25.720001   -4.930000   20.210001       1.0000      1.0079
  415   1 O    8     -22.730000    9.950001   11.400002       6.0000     15.9994
  416   2 H    1     -22.650002    9.880000   10.360001       1.0000      1.0079
  417   2 H    1     -22.770002    8.970000   11.670000       1.0000      1.0079
  418   1 O    8      27.010002   39.880001   18.610001       6.0000     15.9994
  419   2 H    1      26.100002   39.970001   18.210001       1.0000      1.0079
  420   2 H    1      27.340002   40.760002   18.790001       1.0000      1.0079
  421   1 O    8      21.860001    6.550000   12.920000       6.0000     15.9994
  422   2 H    1      22.650002    7.030000   12.770000       1.0000      1.0079
  423   2 H    1      21.460001    6.850000   13.750001       1.0000      1.0079
  424   1 O    8      -1.240000   11.120001   31.060001       6.0000     15.9994
  425   2 H    1      -1.430000   10.420000   31.700001       1.0000      1.0079
  426   2 H    1       7.740001   -2.780000   31.470001       1.0000      1.0079
  427   1 O    8      -0.530000   13.840000   28.810001       6.0000     15.9994
  428   2 H    1      -1.360000   13.900002   29.250002       1.0000      1.0079
  429   2 H    1      -0.600000   13.000001   28.220001       1.0000      1.0079
  430   1 O    8     -15.430001   12.380000   25.360001       6.0000     15.9994
  431   2 H    1     -16.080000   12.080001   26.060001       1.0000      1.0079
  432   2 H    1     -15.380001   11.620001   24.700001       1.0000      1.0079
  433   1 O    8      -1.580000  -21.660002   12.420001       6.0000     15.9994
  434   2 H    1      -0.680000  -21.800001   12.020000       1.0000      1.0079
  435   2 H    1      -2.090000  -20.920000   11.950001       1.0000      1.0079
  436   1 O    8       6.750000   23.380001   32.550003       6.0000     15.9994
  437   2 H    1       7.000000   23.520000   33.540001       1.0000      1.0079
  438   2 H    1      15.130001    7.810000   32.380001       1.0000      1.0079
  439   1 O    8      -1.790000    6.700000   19.730000       6.0000     15.9994
  440   2 H    1      -1.020000    6.610000   20.420000       1.0000      1.0079
  441   2 H    1      -2.550000    7.200000   20.020000       1.0000      1.0079
  442   1 O    8      12.690001   11.190001   30.130003       6.0000     15.9994
  443   2 H    1      11.850000   11.250000   29.630001       1.0000      1.0079
  444   2 H    1      13.200001   10.450001   29.740002       1.0000      1.0079
  445   1 O    8     -19.610001    6.740000   16.750000       6.0000     15.9994
  446   2 H    1     -20.150002    6.130000   16.170002       1.0000      1.0079
  447   2 H    1     -18.940001    7.170000   16.140001       1.0000      1.0079
  448   1 O    8      -5.610001   11.500001   15.890001       6.0000     15.9994
  449   2 H    1      -5.840001   12.430000   16.110001       1.0000      1.0079
  450   2 H    1      12.140001   11.610001   15.430001       1.0000      1.0079
  451   1 O    8      11.370001    4.470000   25.280001       6.0000     15.9994
  452   2 H    1      11.680001    5.400000   25.459999       1.0000      1.0079
  453   2 H    1      11.240001    4.360000   24.350002       1.0000      1.0079
  454   1 O    8       7.790000   11.620001   28.190002       6.0000     15.9994
  455   2 H    1       7.470000   10.980000   27.500002       1.0000      1.0079
  456   2 H    1       8.650001   11.240001   28.570002       1.0000      1.0079
  457   1 O    8       0.280000  -19.480001    8.150001       6.0000     15.9994
  458   2 H    1      -0.700000  -19.050001    8.460000       1.0000      1.0079
  459   2 H    1       0.980000  -18.910000    8.510000       1.0000      1.0079
  460   1 O    8       9.170000   10.850000   14.280001       6.0000     15.9994
  461   2 H    1       8.380001   11.380000   14.680000       1.0000      1.0079
  462   2 H    1      -6.830000   11.090001   14.800000       1.0000      1.0079
  463   1 O    8     -13.480000  -18.740002   14.280001       6.0000     15.9994
  464   2 H    1     -12.950001  -19.060001   15.080000       1.0000      1.0079
  465   2 H    1     -13.340001  -19.430000   13.600000       1.0000      1.0079
  466   1 O    8       6.930000   -3.280000   12.830001       6.0000     15.9994
  467   2 H    1       6.290000   -3.100000   13.500000       1.0000      1.0079
  468   2 H    1       7.620000   -3.910000   13.190001       1.0000      1.0079
  469   1 O    8      -8.120001   -1.930000   32.630001       6.0000     15.9994
  470   2 H    1      -7.550001   -1.420000   32.010002       1.0000      1.0079
  471   2 H    1      -8.460000   -1.260000   33.180000       1.0000      1.0079
  472   1 O    8       0.960000   -0.930000   27.360001       6.0000     15.9994
  473   2 H    1       0.400000   -1.710000   27.630003       1.0000      1.0079
  474   2 H    1       0.330000   -0.340000   26.730001       1.0000      1.0079
  475   1 O    8      17.570002    4.600000   19.310001       6.0000     15.9994
  476   2 H    1      17.730001    3.580000   19.320000       1.0000      1.0079
  477   2 H    1      17.380001    4.870000   20.230000       1.0000      1.0079
  478   1 O    8      -7.970000   28.990002   11.240001       6.0000     15.9994
  479   2 H    1      -7.650001   28.090000   11.280001       1.0000      1.0079
  480   2 H    1      -7.120000   29.430000   10.910001       1.0000      1.0079
  481   1 O    8       1.790000    8.420001   31.970003       6.0000     15.9994
  482   2 H    1       1.290000    7.600000   32.029999       1.0000      1.0079
  483   2 H    1       1.380000    9.060000   32.580002       1.0000      1.0079
  484   1 O    8       3.090000   44.270000   20.230000       6.0000     15.9994
  485   2 H    1       3.930000   44.650002   20.030001       1.0000      1.0079
  486   2 H    1       3.160000   43.400002   19.880001       1.0000      1.0079
  487   1 O    8       1.370000   38.520004   26.560001       6.0000     15.9994
  488   2 H    1       1.070000   38.460003   27.500002       1.0000      1.0079
  489   2 H    1       2.140000   37.960003   26.690002       1.0000      1.0079
  490   1 O    8       5.600000   24.660000   11.030001       6.0000     15.9994
  491   2 H    1       4.680000   24.520000   11.350001       1.0000      1.0079
  492   2 H    1       6.070001   25.260000   11.680001       1.0000      1.0079
  493   1 O    8       1.590000   10.680000   33.450005       6.0000     15.9994
  494   2 H    1      -7.530000   25.990002   33.240002       1.0000      1.0079
  495   2 H    1       2.370000   11.180000   33.070000       1.0000      1.0079
  496   1 O    8       7.740001    9.780001   25.680000       6.0000     15.9994
  497   2 H    1      -0.250000   23.540001   25.500002       1.0000      1.0079
  498   2 H    1      -1.490000   24.580002   25.200003       1.0000      1.0079
  499   1 O    8      12.770000   16.440001   19.210001       6.0000     15.9994
  500   2 H    1      13.160001   16.450001   18.300001       1.0000      1.0079
  501   2 H    1      13.090000   17.180000   19.680000       1.0000      1.0079
  502   1 O    8       2.660000    4.520000   32.070004       6.0000     15.9994
  503   2 H    1       3.040000    4.830000   31.230001       1.0000      1.0079
  504   2 H    1       2.820000    3.530000   32.170002       1.0000      1.0079
  505   1 O    8      18.380001    1.550000   15.890001       6.0000     15.9994
[...]
    899      3      Pt          0.00807400     0.00452518    -0.00020814
    900      3      Pt          0.00007937    -0.00471605     0.00560906
    901      3      Pt         -0.02701384    -0.00006636     0.00056734
    902      3      Pt          0.00879732     0.01106945     0.01327233
    903      3      Pt          0.00684181     0.00514544    -0.00611434
    904      3      Pt         -0.00990827    -0.01366462    -0.01014370
    905      3      Pt         -0.00305311    -0.01241301    -0.00130899
    906      3      Pt          0.01410530    -0.00658282     0.00435617
 SUM OF ATOMIC FORCES          -0.01773925    -0.01423796     0.00718927     0.02385552

 STRESS| Analytical stress tensor [GPa]
 STRESS|                        x                   y                   z
 STRESS|      x       -1.97023901805E+00  -1.13349666814E-01   2.02151706363E-01
 STRESS|      y       -1.13349666814E-01  -2.42372335802E+00   6.12040124554E-02
 STRESS|      z        2.02151706363E-01   6.12040124554E-02  -5.60630696488E-02
 STRESS| 1/3 Trace                                            -1.48334181524E+00
 STRESS| Determinant                                          -1.63376717903E-01

 STRESS| Eigenvectors and eigenvalues of the analytical stress tensor [GPa]
 STRESS|                        1                   2                   3
 STRESS| Eigenvalues  -2.45529151011E+00  -1.96079844348E+00  -3.39354921230E-02
 STRESS|      x           0.245209077552      0.964023533755      0.102621316760
 STRESS|      y           0.968408264321     -0.248517541354      0.020602554077
 STRESS|      z          -0.045364544317     -0.094327397965      0.994507114159

 -------------------------------------------------------------------------------
 -                                                                             -
 -                                DBCSR STATISTICS                             -
 -                                                                             -
 -------------------------------------------------------------------------------
 COUNTER                                    TOTAL       BLAS       SMM       ACC
 flops     5 x     5 x   288          86902272000       0.0%    100.0%      0.0%
 flops     5 x     5 x   292          88109248000       0.0%    100.0%      0.0%
 flops     5 x    13 x   288          97880140800       0.0%    100.0%      0.0%
 flops    13 x     5 x   288          98080819200       0.0%    100.0%      0.0%
 flops    13 x    20 x   288          99117158400       0.0%    100.0%      0.0%
 flops    20 x    13 x   288          99165081600       0.0%    100.0%      0.0%
 flops     5 x    13 x   292          99239587200       0.0%    100.0%      0.0%
 flops    13 x     5 x   292          99443052800       0.0%    100.0%      0.0%
 flops    13 x    20 x   292         100493785600       0.0%    100.0%      0.0%
 flops    20 x    13 x   292         100542374400       0.0%    100.0%      0.0%
 flops    13 x    13 x   288         104430643200       0.0%    100.0%      0.0%
 flops    13 x    13 x   292         105881068800       0.0%    100.0%      0.0%
 flops    20 x     5 x   288         108066816000       0.0%    100.0%      0.0%
 flops     5 x    20 x   288         108163584000       0.0%    100.0%      0.0%
 flops    20 x     5 x   292         109567744000       0.0%    100.0%      0.0%
 flops     5 x    20 x   292         109665856000       0.0%    100.0%      0.0%
 flops    20 x    20 x   288         431972352000       0.0%    100.0%      0.0%
 flops    20 x    20 x   292         437971968000       0.0%    100.0%      0.0%
 flops     5 x     5 x   320         579348480000       0.0%    100.0%      0.0%
 flops     5 x    13 x   320         652534272000       0.0%    100.0%      0.0%
 flops    13 x     5 x   320         653872128000       0.0%    100.0%      0.0%
 flops    13 x    20 x   320         660781056000       0.0%    100.0%      0.0%
 flops    20 x    13 x   320         661100544000       0.0%    100.0%      0.0%
 flops    13 x    13 x   320         696204288000       0.0%    100.0%      0.0%
 flops    20 x     5 x   320         720445440000       0.0%    100.0%      0.0%
 flops     5 x    20 x   320         721090560000       0.0%    100.0%      0.0%
 flops    20 x    20 x   320        2879815680000       0.0%    100.0%      0.0%
 flops inhomo. stacks                           0       0.0%      0.0%      0.0%
 flops total                        10.709886E+12       0.0%    100.0%      0.0%
 flops max/rank                    172.831600E+09       0.0%    100.0%      0.0%
 matmuls inhomo. stacks                         0       0.0%      0.0%      0.0%
 matmuls total                          154356480       0.0%    100.0%      0.0%
 number of processed stacks                409600       0.0%    100.0%      0.0%
 average stack size                                     0.0     376.8       0.0
 marketing flops                    30.447185E+12
 -------------------------------------------------------------------------------
 # multiplications                             80
 max memory usage/rank               1.880519E+09
 # max total images/rank                        1
 # max 3D layers                                1
 # MPI messages exchanged                   71680
 MPI messages size (bytes):
  total size                       215.263904E+09
  min size                           2.762496E+06
  max size                           3.077120E+06
  average size                       3.003124E+06
 MPI breakdown and total messages size (bytes):
             size <=      128                   0                        0
       128 < size <=     8192                   0                        0
      8192 < size <=    32768                   0                        0
     32768 < size <=   131072                   0                        0
    131072 < size <=  4194304               71680             215264000000
   4194304 < size <= 16777216                   0                        0
  16777216 < size                               0                        0
 -------------------------------------------------------------------------------
 -                                                                             -
 -                      DBCSR MESSAGE PASSING PERFORMANCE                      -
 -                                                                             -
 -------------------------------------------------------------------------------
 ROUTINE             CALLS      AVE VOLUME [Bytes]
 MP_Bcast               28                     12.
 MP_Allreduce          634                     10.
 MP_Alltoall          2240                1982066.
 MP_ISend             2560                1329597.
 MP_IRecv             2560                1310413.
 -------------------------------------------------------------------------------

 -------------------------------------------------------------------------------
 -                                                                             -
 -                                DBM STATISTICS                               -
 -                                                                             -
 -------------------------------------------------------------------------------
    M  x    N  x    K                                          COUNT     PERCENT
 -------------------------------------------------------------------------------

 -------------------------------------------------------------------------------
 -                                                                             -
 -                                GRID STATISTICS                              -
 -                                                                             -
 -------------------------------------------------------------------------------
 LP    KERNEL             BACKEND                              COUNT     PERCENT
 3     collocate general  REF                               55516480      18.87%
 3     integrate general  REF                               54880508      18.66%
 2     collocate general  REF                               52304960      17.78%
 2     integrate general  REF                               51651148      17.56%
 4     collocate general  REF                               39133120      13.30%
 4     integrate general  REF                               38643956      13.14%
 6     integrate general  REF                                 693956       0.24%
 5     integrate general  REF                                 653812       0.22%
 7     integrate general  REF                                 489164       0.17%
 0     collocate general  REF                                 115968       0.04%
 0     integrate general  REF                                  57984       0.02%
 -------------------------------------------------------------------------------

 MEMORY| Estimated peak process memory [MiB]                                2113

 -------------------------------------------------------------------------------
 ----                             MULTIGRID INFO                            ----
 -------------------------------------------------------------------------------
 count for grid        1:         731115          cutoff [a.u.]          200.00
 count for grid        2:         806828          cutoff [a.u.]           66.67
 count for grid        3:         740990          cutoff [a.u.]           22.22
 count for grid        4:         831167          cutoff [a.u.]            7.41
 total gridlevel count  :        3110100

 -------------------------------------------------------------------------------
 -                                                                             -
 -                         MESSAGE PASSING PERFORMANCE                         -
 -                                                                             -
 -------------------------------------------------------------------------------

 ROUTINE             CALLS      AVE VOLUME [Bytes]
 MP_Group                4
 MP_Bcast              260                2270636.
 MP_Allreduce         1354                   1850.
 MP_Sync                83
 MP_Alltoall          1776               12785139.
 MP_SendRecv           252                  14172.
 MP_ISendRecv        20160                 113680.
 MP_Wait             45108
 MP_ISend            23328                 340076.
 MP_IRecv            23328                 340076.
 MP_Recv               308                2460160.
 MP_Write_All            3                1540656.
 -------------------------------------------------------------------------------


 -------------------------------------------------------------------------------
 -                                                                             -
 -                           R E F E R E N C E S                               -
 -                                                                             -
 -------------------------------------------------------------------------------
 
 CP2K version 2022.1, the CP2K developers group (2022).
 CP2K is freely available from https://www.cp2k.org/ .

 Kuehne,Thomas D.; Iannuzzi,Marcella; Del Ben,Mauro;
 Rybkin,Vladimir V.; Seewald,Patrick; Stein,Frederick; Laino,Teodoro;
 Khaliullin,Rustam Z.; Schuett,Ole; Schiffmann,Florian; Golze,Dorothea;
 Wilhelm,Jan; Chulkov,Sergey; Bani-Hashemian,Mohammad Hossein;
 Weber,Valery; Borstnik,Urban; Taillefumier,Mathieu;
 Jakobovits,Alice Shoshana; Lazzaro,Alfio; Pabst,Hans; Mueller,Tiziano;
 Schade,Robert; Guidon,Manuel; Andermatt,Samuel; Holmberg,Nico;
 Schenter,Gregory K.; Hehn,Anna; Bussy,Augustin; Belleflamme,Fabian;
 Tabacchi,Gloria; Gloess,Andreas; Lass,Michael; Bethune,Iain;
 Mundy,Christopher J.; Plessl,Christian; Watkins,Matt;
 VandeVondele,Joost; Krack,Matthias; Hutter,Juerg. 
 The Journal of Chemical Physics, 152 (19), (2020). 
 CP2K: An electronic structure and molecular dynamics software package -
 Quickstep: Efficient and accurate electronic structure calculations.
 https://doi.org/10.1063/5.0007045

 Goerigk, Lars; Hansen, Andreas; Bauer, Christoph; Ehrlich, Stephan;
 Najibi, Asim; Grimme, Stefan. , 19 (48), (2017). 
 A look at the density functional theory zoo with the advanced GMTKN55 database
 for general main group thermochemistry, kinetics and noncovalent interactions.
 https://doi.org/10.1039/C7CP04913G

 Schuett, Ole; Messmer, Peter; Hutter, Juerg; VandeVondele, Joost. 
 Electronic Structure Calculations on Graphics Processing Units, John
 Wiley & Sons, Ltd, 173-190 (2016). 
 GPU-Accelerated Sparse Matrix-Matrix Multiplication for
 Linear Scaling Density Functional Theory.
 https://doi.org/10.1002/9781118670712.ch8

 Heinecke, A; Henry, G; Hutchinson, M; Pabst, H. 
 Proceedings of Intl. Supercomputing Conference, 981-991 (2016). 
 LIBXSMM: Accelerating Small Matrix Multiplications
 by Runtime Code Generation.
 https://doi.org/10.1109/SC.2016.83

 Borstnik, U; VandeVondele, J; Weber, V; Hutter, J. 
 PARALLEL COMPUTING, 40 (5-6), 47-58 (2014). 
 Sparse matrix multiplication: The distributed block-compressed sparse
 row library.
 https://doi.org/10.1016/j.parco.2014.03.012

 Hutter, J; Iannuzzi, M; Schiffmann, F; VandeVondele, J. 
 WIREs Comput Mol Sci., 4 (1), 15-25 (2014). 
 CP2K: atomistic simulations of condensed matter systems.
 https://doi.org/10.1002/wcms.1159

 Marek, A; Blum, V; Johanni, R; Havu, V; Lang, B; Auckenthaler, T;
 Heinecke, A; Bungartz, H; Lederer, H. 
 Journal of Physics: Condensed Matter, 26 (21), (2014). 
 The ELPA library: scalable parallel eigenvalue solutions for
 electronic structure
 theory and computational science.
 https://doi.org/10.1088/0953-8984/26/21/213201

 Grimme, S; Ehrlich, S; Goerigk, L. 
 JOURNAL OF COMPUTATIONAL CHEMISTRY, 32, 1456 (2011). 
 Effect of the damping function in dispersion corrected density functional theory.
 https://doi.org/10.1002/jcc.21759

 Grimme, S; Antony, J; Ehrlich, S; Krieg, H. 
 JOURNAL OF CHEMICAL PHYSICS, 132 (15), 154104 (2010). 
 A consistent and accurate ab initio parametrization of density
 functional dispersion correction (DFT-D) for the 94 elements H-Pu.
 https://doi.org/10.1063/1.3382344

 VandeVondele, J; Hutter, J. 
 JOURNAL OF CHEMICAL PHYSICS, 127 (11), 114105 (2007). 
 Gaussian basis sets for accurate calculations on molecular systems in
 gas and condensed phases.
 https://doi.org/10.1063/1.2770708

 Krack, M. 
 THEORETICAL CHEMISTRY ACCOUNTS, 114 (1-3), 145-152 (2005). 
 Pseudopotentials for H to Kr optimized for gradient-corrected
 exchange-correlation functionals.
 https://doi.org/10.1007/s00214-005-0655-y

 VandeVondele, J; Krack, M; Mohamed, F; Parrinello, M; Chassaing, T;
 Hutter, J. COMPUTER PHYSICS COMMUNICATIONS, 167 (2), 103-128 (2005). 
 QUICKSTEP: Fast and accurate density functional calculations using a
 mixed Gaussian and plane waves approach.
 https://doi.org/10.1016/j.cpc.2004.12.014

 Frigo, M; Johnson, SG. 
 PROCEEDINGS OF THE IEEE, 93 (2), 216-231 (2005). 
 The design and implementation of FFTW3.
 https://doi.org/10.1109/JPROC.2004.840301

 Hartwigsen, C; Goedecker, S; Hutter, J. 
 PHYSICAL REVIEW B, 58 (7), 3641-3662 (1998). 
 Relativistic separable dual-space Gaussian pseudopotentials from H to Rn.
 https://doi.org/10.1103/PhysRevB.58.3641

 Lippert, G; Hutter, J; Parrinello, M. 
 MOLECULAR PHYSICS, 92 (3), 477-487 (1997). 
 A hybrid Gaussian and plane wave density functional scheme.
 https://doi.org/10.1080/002689797170220

 Perdew, JP; Burke, K; Ernzerhof, M. 
 PHYSICAL REVIEW LETTERS, 77 (18), 3865-3868 (1996). 
 Generalized gradient approximation made simple.
 https://doi.org/10.1103/PhysRevLett.77.3865

 Goedecker, S; Teter, M; Hutter, J. 
 PHYSICAL REVIEW B, 54 (3), 1703-1710 (1996). 
 Separable dual-space Gaussian pseudopotentials.
 https://doi.org/10.1103/PhysRevB.54.1703


 -------------------------------------------------------------------------------
 -                                                                             -
 -                                T I M I N G                                  -
 -                                                                             -
 -------------------------------------------------------------------------------
 SUBROUTINE                       CALLS  ASD         SELF TIME        TOTAL TIME
                                MAXIMUM       AVERAGE  MAXIMUM  AVERAGE  MAXIMUM
 CP2K                                 1  1.0    0.026    0.037  946.721  946.723
 qs_forces                            1  2.0    0.002    0.003  946.323  946.326
 qs_energies                          1  3.0    0.000    0.000  933.812  933.826
 scf_env_do_scf                       1  4.0    0.000    0.000  925.464  925.703
 scf_env_do_scf_inner_loop           79  5.0    0.004    0.013  925.464  925.703
 qs_scf_new_mos                      79  6.0    0.005    0.013  377.076  377.730
 eigensolver                         79  7.0    0.007    0.010  350.433  350.820
 rebuild_ks_matrix                   80  7.0    0.000    0.000  292.423  292.470
 qs_ks_build_kohn_sham_matrix        80  8.0    0.012    0.015  292.422  292.470
 qs_ks_update_qs_env                 79  6.0    0.001    0.001  284.437  284.485
 qs_rho_update_rho_low               80  6.0    0.001    0.001  249.892  249.921
 calculate_rho_elec                  80  7.0    0.188    0.221  249.891  249.920
 sum_up_and_integrate                80  9.0    0.338    0.415  245.590  245.639
 integrate_v_rspace                  80 10.0    0.003    0.004  245.252  245.337
 grid_collocate_task_list            80  8.0  219.547  226.092  219.547  226.092
 grid_integrate_task_list            80 11.0  214.077  219.424  214.077  219.424
 cp_fm_diag_elpa                     79  8.0    0.001    0.001  205.836  206.333
 cp_fm_diag_elpa_base                79  9.0  202.677  203.532  205.478  205.550
 cp_fm_triangular_multiply          237  8.0  141.684  143.383  141.684  143.383
 pw_transfer                       1600 10.9    0.114    0.155   44.023   44.880
 fft_wrap_pw1pw2                   1440 12.0    0.014    0.018   43.518   44.358
 rs_pw_transfer                     644 10.5    0.007    0.008   39.021   43.837
 fft_wrap_pw1pw2_200                960 13.3    3.948    4.231   41.898   42.755
 qs_vxc_create                       80  9.0    0.003    0.003   41.300   41.527
 xc_vxc_pw_create                    80 10.0    0.735    0.783   41.297   41.525
 fft3d_ps                          1440 14.0   15.927   17.768   32.062   33.261
 density_rs2pw                       80  8.0    0.005    0.006   27.860   32.563
 xc_pw_derive                       480 12.0    0.008    0.009   26.304   27.581
 xc_rho_set_and_dset_create          80 11.0    0.391    0.428   22.231   23.723
 potential_pw2rs                     80 11.0    0.030    0.035   23.104   23.191
 mp_waitany                       23328 12.4   16.904   22.452   16.904   22.452
 rs_pw_transfer_RS2PW_200            82 10.0    5.159    5.646   15.584   20.350
 cp_dbcsr_plus_fm_fm_t_native        80  8.0    0.004    0.008   19.360   20.197
 calculate_dm_sparse                 79  7.0    0.025    0.033   19.425   20.124
 -------------------------------------------------------------------------------

 The number of warnings for this run is : 1
 
 -------------------------------------------------------------------------------
  **** **** ******  **  PROGRAM ENDED AT                 2023-11-27 00:05:46.901
 ***** ** ***  *** **   PROGRAM RAN ON                                     cu054
 **    ****   ******    PROGRAM RAN BY                                     jxzhu
 ***** **    ** ** **   PROGRAM PROCESS ID                                 47180
  **** **  *******  **  PROGRAM STOPPED IN /public/home/jxzhu/tmp_calc/af2075565
                                           805657d94fa4669dad6f4b174b0a4fb/calc/
                                           001400.000/pbc
