 DBCSR| CPU Multiplication driver                                           XSMM
 DBCSR| Multrec recursion limit                                              512
 DBCSR| Multiplication stack size                                           1000
 DBCSR| Maximum elements for images                                    UNLIMITED
 DBCSR| Multiplicative factor virtual images                                   1
 DBCSR| Use multiplication densification                                       T
 DBCSR| Multiplication size stacks                                             3
 DBCSR| Number of 3D layers                                               SINGLE
 DBCSR| Use MPI memory allocation                                              T
 DBCSR| Use RMA algorithm                                                      F
 DBCSR| Use Communication thread                                               T
 DBCSR| Communication thread load                                             87


  **** **** ******  **  PROGRAM STARTED AT               2024-11-01 23:15:49.009
 ***** ** ***  *** **   PROGRAM STARTED ON                               c53-012
 **    ****   ******    PROGRAM STARTED BY                                 jxzhu
 ***** **    ** ** **   PROGRAM PROCESS ID                                263622
  **** **  *******  **  PROGRAM STARTED IN /data/jxzhu/nnp/dp_workdir/d1f764b96e
                                           9a01b62c3e35b0c4f5198f3ba3ed59/calc.0
                                           00/task.001.000006

 CP2K| version string:                                          CP2K version 7.1
 CP2K| source code revision number:                                  git:e635599
 CP2K| cp2kflags: libint fftw3 libxc elpa parallel mpi3 scalapack xsmm spglib   
 CP2K| is freely available from                            https://www.cp2k.org/
 CP2K| Program compiled at                           Mon Mar 8 20:53:19 CST 2021
 CP2K| Program compiled on                                                 mgt01
 CP2K| Program compiled for                                                local
 CP2K| Data directory path                                    /data/jxzhu/basis/
 CP2K| Input file name                                                 input.inp

 GLOBAL| Force Environment number                                              1
 GLOBAL| Basis set file name                                        BASIS_MOLOPT
 GLOBAL| Potential file name                                      GTH_POTENTIALS
 GLOBAL| MM Potential file name                                     MM_POTENTIAL
 GLOBAL| Coordinate file name                                          coord.xyz
 GLOBAL| Method name                                                        CP2K
 GLOBAL| Project name                                                       cp2k
 GLOBAL| Preferred FFT library                                             FFTW3
 GLOBAL| Preferred diagonalization lib.                                     ELPA
 GLOBAL| Run type                                                   ENERGY_FORCE
 GLOBAL| All-to-all communication in single precision                          F
 GLOBAL| FFTs using library dependent lengths                                  F
 GLOBAL| Global print level                                               MEDIUM
 GLOBAL| MPI I/O enabled                                                       T
 GLOBAL| Total number of message passing processes                            32
 GLOBAL| Number of threads for this process                                    1
 GLOBAL| This output is from process                                           0
 GLOBAL| CPU model name                Intel(R) Xeon(R) Gold 6226R CPU @ 2.90GHz
 GLOBAL| CPUID                                                              1003
 GLOBAL| Compiled for CPUID                                                 1002
 HINT in environment.F:814 The compiler target flags (x86_avx2) used to build
   this binary cannot exploit all extensions of this CPU model (x86_avx512).
   Consider compiler target flags as part of FCFLAGS and CFLAGS (ARCH file).

 MEMORY| system memory details [Kb]
 MEMORY|                        rank 0           min           max       average
 MEMORY| MemTotal            196472820     196472820     196472820     196472820
 MEMORY| MemFree             182930124     182930124     182930124     182930124
 MEMORY| Buffers                  2196          2196          2196          2196
 MEMORY| Cached                 799644        799644        799644        799644
 MEMORY| Slab                   432624        432624        432624        432624
 MEMORY| SReclaimable           136232        136232        136232        136232
 MEMORY| MemLikelyFree       183868196     183868196     183868196     183868196


 *** Fundamental physical constants (SI units) ***

 *** Literature: B. J. Mohr and B. N. Taylor,
 ***             CODATA recommended values of the fundamental physical
 ***             constants: 2006, Web Version 5.1
 ***             http://physics.nist.gov/constants

 Speed of light in vacuum [m/s]                             2.99792458000000E+08
 Magnetic constant or permeability of vacuum [N/A**2]       1.25663706143592E-06
 Electric constant or permittivity of vacuum [F/m]          8.85418781762039E-12
 Planck constant (h) [J*s]                                  6.62606896000000E-34
 Planck constant (h-bar) [J*s]                              1.05457162825177E-34
 Elementary charge [C]                                      1.60217648700000E-19
 Electron mass [kg]                                         9.10938215000000E-31
 Electron g factor [ ]                                     -2.00231930436220E+00
 Proton mass [kg]                                           1.67262163700000E-27
 Fine-structure constant                                    7.29735253760000E-03
 Rydberg constant [1/m]                                     1.09737315685270E+07
 Avogadro constant [1/mol]                                  6.02214179000000E+23
 Boltzmann constant [J/K]                                   1.38065040000000E-23
 Atomic mass unit [kg]                                      1.66053878200000E-27
 Bohr radius [m]                                            5.29177208590000E-11

 *** Conversion factors ***

 [u] -> [a.u.]                                              1.82288848426455E+03
 [Angstrom] -> [Bohr] = [a.u.]                              1.88972613288564E+00
 [a.u.] = [Bohr] -> [Angstrom]                              5.29177208590000E-01
 [a.u.] -> [s]                                              2.41888432650478E-17
 [a.u.] -> [fs]                                             2.41888432650478E-02
 [a.u.] -> [J]                                              4.35974393937059E-18
 [a.u.] -> [N]                                              8.23872205491840E-08
 [a.u.] -> [K]                                              3.15774647902944E+05
 [a.u.] -> [kJ/mol]                                         2.62549961709828E+03
 [a.u.] -> [kcal/mol]                                       6.27509468713739E+02
 [a.u.] -> [Pa]                                             2.94210107994716E+13
 [a.u.] -> [bar]                                            2.94210107994716E+08
 [a.u.] -> [atm]                                            2.90362800883016E+08
 [a.u.] -> [eV]                                             2.72113838565563E+01
 [a.u.] -> [Hz]                                             6.57968392072181E+15
 [a.u.] -> [1/cm] (wave numbers)                            2.19474631370540E+05
 [a.u./Bohr**2] -> [1/cm]                                   5.14048714338585E+03
 

 CELL_TOP| Volume [angstrom^3]:                                         4542.849
 CELL_TOP| Vector a [angstrom    11.246     0.000     0.000    |a| =      11.246
 CELL_TOP| Vector b [angstrom     0.000     9.739     0.000    |b| =       9.739
 CELL_TOP| Vector c [angstrom     0.000     0.000    41.478    |c| =      41.478
 CELL_TOP| Angle (b,c), alpha [degree]:                                   90.000
 CELL_TOP| Angle (a,c), beta  [degree]:                                   90.000
 CELL_TOP| Angle (a,b), gamma [degree]:                                   90.000
 CELL_TOP| Numerically orthorhombic:                                         YES

 GENERATE|  Preliminary Number of Bonds generated:                             0
 GENERATE|  Achieved consistency in connectivity generation.

 CELL| Volume [angstrom^3]:                                             4542.849
 CELL| Vector a [angstrom]:      11.246     0.000     0.000    |a| =      11.246
 CELL| Vector b [angstrom]:       0.000     9.739     0.000    |b| =       9.739
 CELL| Vector c [angstrom]:       0.000     0.000    41.478    |c| =      41.478
 CELL| Angle (b,c), alpha [degree]:                                       90.000
 CELL| Angle (a,c), beta  [degree]:                                       90.000
 CELL| Angle (a,b), gamma [degree]:                                       90.000
 CELL| Numerically orthorhombic:                                             YES

 CELL_REF| Volume [angstrom^3]:                                         4542.849
 CELL_REF| Vector a [angstrom    11.246     0.000     0.000    |a| =      11.246
 CELL_REF| Vector b [angstrom     0.000     9.739     0.000    |b| =       9.739
 CELL_REF| Vector c [angstrom     0.000     0.000    41.478    |c| =      41.478
 CELL_REF| Angle (b,c), alpha [degree]:                                   90.000
 CELL_REF| Angle (a,c), beta  [degree]:                                   90.000
 CELL_REF| Angle (a,b), gamma [degree]:                                   90.000
 CELL_REF| Numerically orthorhombic:                                         YES

 *******************************************************************************
 *******************************************************************************
 **                                                                           **
 **     #####                         ##              ##                      **
 **    ##   ##            ##          ##              ##                      **
 **   ##     ##                       ##            ######                    **
 **   ##     ##  ##   ##  ##   #####  ##  ##   ####   ##    #####    #####    **
 **   ##     ##  ##   ##  ##  ##      ## ##   ##      ##   ##   ##  ##   ##   **
 **   ##  ## ##  ##   ##  ##  ##      ####     ###    ##   ######   ######    **
 **    ##  ###   ##   ##  ##  ##      ## ##      ##   ##   ##       ##        **
 **     #######   #####   ##   #####  ##  ##  ####    ##    #####   ##        **
 **           ##                                                    ##        **
 **                                                                           **
 **                                                ... make the atoms dance   **
 **                                                                           **
 **            Copyright (C) by CP2K developers group (2000 - 2019)           **
 **                                                                           **
 *******************************************************************************

 DFT| Spin restricted Kohn-Sham (RKS) calculation                            RKS
 DFT| Multiplicity                                                             1
 DFT| Number of spin states                                                    1
 DFT| Charge                                                                   0
 DFT| Self-interaction correction (SIC)                                       NO
 DFT| Cutoffs: density                                              1.000000E-10
 DFT|          gradient                                             1.000000E-10
 DFT|          tau                                                  1.000000E-10
 DFT|          cutoff_smoothing_range                               0.000000E+00
 DFT| XC density smoothing                                                  NONE
 DFT| XC derivatives                                                          PW
 FUNCTIONAL| ROUTINE=NEW
 FUNCTIONAL| PBE:
 FUNCTIONAL| J.P.Perdew, K.Burke, M.Ernzerhof, Phys. Rev. Letter, vol. 77, n 18,
 FUNCTIONAL|  pp. 3865-3868, (1996){spin unpolarized}                           
 vdW POTENTIAL|                                                   Pair Potential
 vdW POTENTIAL|          DFT-D3 (Version 3.1)
 vdW POTENTIAL|          Potential Form: S. Grimme et al, JCP 132: 154104 (2010)
 vdW POTENTIAL|          Zero Damping
 vdW POTENTIAL|          Cutoff Radius [Bohr]:                             20.00
 vdW POTENTIAL|          s6 Scaling Factor:                               1.0000
 vdW POTENTIAL|          sr6 Scaling Factor:                              1.2170
 vdW POTENTIAL|          s8 Scaling Factor:                               0.7220
 vdW POTENTIAL|          Cutoff for CN calculation:                   0.1000E-05

 QS| Method:                                                                 GPW
 QS| Density plane wave grid type                        NON-SPHERICAL FULLSPACE
 QS| Number of grid levels:                                                    4
 QS| Density cutoff [a.u.]:                                                200.0
 QS| Multi grid cutoff [a.u.]: 1) grid level                               200.0
 QS|                           2) grid level                                66.7
 QS|                           3) grid level                                22.2
 QS|                           4) grid level                                 7.4
 QS| Grid level progression factor:                                          3.0
 QS| Relative density cutoff [a.u.]:                                        20.0
 QS| Consistent realspace mapping and integration 
 QS| Interaction thresholds: eps_pgf_orb:                                3.2E-07
 QS|                         eps_filter_matrix:                          0.0E+00
 QS|                         eps_core_charge:                            1.0E-15
 QS|                         eps_rho_gspace:                             1.0E-13
 QS|                         eps_rho_rspace:                             1.0E-13
 QS|                         eps_gvg_rspace:                             3.2E-07
 QS|                         eps_ppl:                                    1.0E-02
 QS|                         eps_ppnl:                                   3.2E-09


 ATOMIC KIND INFORMATION

  1. Atomic kind: Pt                                    Number of atoms:      96

     Orbital Basis Set                      DZVP-A5-Q10-323-MOL-T1-DERIVED_SET-1

       Number of orbital shell sets:                                           1
       Number of orbital shells:                                               6
       Number of primitive Cartesian functions:                                5
       Number of Cartesian basis functions:                                   23
       Number of spherical basis functions:                                   20
       Norm type:                                                              2

       Normalised Cartesian orbitals:

                        Set   Shell   Orbital            Exponent    Coefficient

                          1       1    2s                2.521825       0.177473
                                                         1.453920      -0.063399
                                                         0.614053      -0.407089
                                                         0.232656       0.262254
                                                         0.074788       0.047371

                          1       2    3s                2.521825      -0.049056
                                                         1.453920       0.044904
                                                         0.614053      -0.009756
                                                         0.232656      -0.144709
                                                         0.074788       0.144085

                          1       3    3px               2.521825      -0.317572
                                                         1.453920       0.534826
                                                         0.614053      -0.489458
                                                         0.232656       0.245631
                                                         0.074788       0.018221
                          1       3    3py               2.521825      -0.317572
                                                         1.453920       0.534826
                                                         0.614053      -0.489458
                                                         0.232656       0.245631
                                                         0.074788       0.018221
                          1       3    3pz               2.521825      -0.317572
                                                         1.453920       0.534826
                                                         0.614053      -0.489458
                                                         0.232656       0.245631
                                                         0.074788       0.018221

                          1       4    4dx2              2.521825       3.008522
                                                         1.453920      -1.224251
                                                         0.614053       0.225691
                                                         0.232656       0.125144
                                                         0.074788      -0.015348
                          1       4    4dxy              2.521825       5.210912
                                                         1.453920      -2.120465
                                                         0.614053       0.390909
                                                         0.232656       0.216756
                                                         0.074788      -0.026584
                          1       4    4dxz              2.521825       5.210912
                                                         1.453920      -2.120465
                                                         0.614053       0.390909
                                                         0.232656       0.216756
                                                         0.074788      -0.026584
                          1       4    4dy2              2.521825       3.008522
                                                         1.453920      -1.224251
                                                         0.614053       0.225691
                                                         0.232656       0.125144
                                                         0.074788      -0.015348
                          1       4    4dyz              2.521825       5.210912
                                                         1.453920      -2.120465
                                                         0.614053       0.390909
                                                         0.232656       0.216756
                                                         0.074788      -0.026584
                          1       4    4dz2              2.521825       3.008522
                                                         1.453920      -1.224251
                                                         0.614053       0.225691
                                                         0.232656       0.125144
                                                         0.074788      -0.015348

                          1       5    5dx2              2.521825       0.698026
                                                         1.453920      -1.511486
                                                         0.614053      -0.335394
                                                         0.232656      -0.025564
                                                         0.074788      -0.002699
                          1       5    5dxy              2.521825       1.209017
                                                         1.453920      -2.617970
                                                         0.614053      -0.580920
                                                         0.232656      -0.044277
                                                         0.074788      -0.004674
                          1       5    5dxz              2.521825       1.209017
                                                         1.453920      -2.617970
                                                         0.614053      -0.580920
                                                         0.232656      -0.044277
                                                         0.074788      -0.004674
                          1       5    5dy2              2.521825       0.698026
                                                         1.453920      -1.511486
                                                         0.614053      -0.335394
                                                         0.232656      -0.025564
                                                         0.074788      -0.002699
                          1       5    5dyz              2.521825       1.209017
                                                         1.453920      -2.617970
                                                         0.614053      -0.580920
                                                         0.232656      -0.044277
                                                         0.074788      -0.004674
                          1       5    5dz2              2.521825       0.698026
                                                         1.453920      -1.511486
                                                         0.614053      -0.335394
                                                         0.232656      -0.025564
                                                         0.074788      -0.002699

                          1       6    6dx2              2.521825       0.831079
                                                         1.453920      -0.709226
                                                         0.614053      -0.137351
                                                         0.232656       0.068642
                                                         0.074788       0.011745
                          1       6    6dxy              2.521825       1.439472
                                                         1.453920      -1.228415
                                                         0.614053      -0.237899
                                                         0.232656       0.118891
                                                         0.074788       0.020343
                          1       6    6dxz              2.521825       1.439472
                                                         1.453920      -1.228415
                                                         0.614053      -0.237899
                                                         0.232656       0.118891
                                                         0.074788       0.020343
                          1       6    6dy2              2.521825       0.831079
                                                         1.453920      -0.709226
                                                         0.614053      -0.137351
                                                         0.232656       0.068642
                                                         0.074788       0.011745
                          1       6    6dyz              2.521825       1.439472
                                                         1.453920      -1.228415
                                                         0.614053      -0.237899
                                                         0.232656       0.118891
                                                         0.074788       0.020343
                          1       6    6dz2              2.521825       0.831079
                                                         1.453920      -0.709226
                                                         0.614053      -0.137351
                                                         0.232656       0.068642
                                                         0.074788       0.011745

     GTH Potential information for                                   GTH-PBE-q10

       Description:                       Goedecker-Teter-Hutter pseudopotential
                                           Goedecker et al., PRB 54, 1703 (1996)
                                          Hartwigsen et al., PRB 58, 3641 (1998)
                                                      Krack, TCA 114, 145 (2005)

       Gaussian exponent of the core charge distribution:               1.317676
       Electronic configuration (s p d ...):                           1   0   9

       Parameters of the local part of the GTH pseudopotential:

                          rloc        C1          C2          C3          C4
                        0.616000   11.313635

       Parameters of the non-local part of the GTH pseudopotential:

                   l      r(l)      h(i,j,l)

                   0    0.550904    4.733491   -1.784594
                                   -1.784594    2.303901
                   1    0.674138    2.534798   -1.778066
                                   -1.778066    2.103836
                   2    0.457392   -7.264011    2.558665
                                    2.558665   -2.901253

  2. Atomic kind: O                                     Number of atoms:       1

     Orbital Basis Set                                        DZVP-MOLOPT-SR-GTH

       Number of orbital shell sets:                                           1
       Number of orbital shells:                                               5
       Number of primitive Cartesian functions:                                5
       Number of Cartesian basis functions:                                   14
       Number of spherical basis functions:                                   13
       Norm type:                                                              2

       Normalised Cartesian orbitals:

                        Set   Shell   Orbital            Exponent    Coefficient

                          1       1    2s               10.389228       0.396646
                                                         3.849621       0.208811
                                                         1.388401      -0.301641
                                                         0.496955      -0.274061
                                                         0.162492      -0.033677

                          1       2    3s               10.389228       0.303673
                                                         3.849621       0.240943
                                                         1.388401      -0.313066
                                                         0.496955      -0.043055
                                                         0.162492       0.213991

                          1       3    3px              10.389228      -1.530415
                                                         3.849621      -1.371928
                                                         1.388401      -0.761951
                                                         0.496955      -0.253695
                                                         0.162492      -0.035541
                          1       3    3py              10.389228      -1.530415
                                                         3.849621      -1.371928
                                                         1.388401      -0.761951
                                                         0.496955      -0.253695
                                                         0.162492      -0.035541
                          1       3    3pz              10.389228      -1.530415
                                                         3.849621      -1.371928
                                                         1.388401      -0.761951
                                                         0.496955      -0.253695
                                                         0.162492      -0.035541

                          1       4    4px              10.389228      -0.565392
                                                         3.849621      -0.038231
                                                         1.388401      -0.382373
                                                         0.496955       0.179070
                                                         0.162492       0.122714
                          1       4    4py              10.389228      -0.565392
                                                         3.849621      -0.038231
                                                         1.388401      -0.382373
                                                         0.496955       0.179070
                                                         0.162492       0.122714
                          1       4    4pz              10.389228      -0.565392
                                                         3.849621      -0.038231
                                                         1.388401      -0.382373
                                                         0.496955       0.179070
                                                         0.162492       0.122714

                          1       5    4dx2             10.389228       1.867377
                                                         3.849621       0.670994
                                                         1.388401       1.353441
                                                         0.496955       0.273538
                                                         0.162492       0.006620
                          1       5    4dxy             10.389228       3.234392
                                                         3.849621       1.162195
                                                         1.388401       2.344229
                                                         0.496955       0.473781
                                                         0.162492       0.011466
                          1       5    4dxz             10.389228       3.234392
                                                         3.849621       1.162195
                                                         1.388401       2.344229
                                                         0.496955       0.473781
                                                         0.162492       0.011466
                          1       5    4dy2             10.389228       1.867377
                                                         3.849621       0.670994
                                                         1.388401       1.353441
                                                         0.496955       0.273538
                                                         0.162492       0.006620
                          1       5    4dyz             10.389228       3.234392
                                                         3.849621       1.162195
                                                         1.388401       2.344229
                                                         0.496955       0.473781
                                                         0.162492       0.011466
                          1       5    4dz2             10.389228       1.867377
                                                         3.849621       0.670994
                                                         1.388401       1.353441
                                                         0.496955       0.273538
                                                         0.162492       0.006620

     GTH Potential information for                                    GTH-PBE-q6

       Description:                       Goedecker-Teter-Hutter pseudopotential
                                           Goedecker et al., PRB 54, 1703 (1996)
                                          Hartwigsen et al., PRB 58, 3641 (1998)
                                                      Krack, TCA 114, 145 (2005)

       Gaussian exponent of the core charge distribution:               8.360253
       Electronic configuration (s p d ...):                               2   4

       Parameters of the local part of the GTH pseudopotential:

                          rloc        C1          C2          C3          C4
                        0.244554  -16.667215    2.487311

       Parameters of the non-local part of the GTH pseudopotential:

                   l      r(l)      h(i,j,l)

                   0    0.220956   18.337458
                   1    0.211332

  3. Atomic kind: H                                     Number of atoms:       2

     Orbital Basis Set                                        DZVP-MOLOPT-SR-GTH

       Number of orbital shell sets:                                           1
       Number of orbital shells:                                               3
       Number of primitive Cartesian functions:                                5
       Number of Cartesian basis functions:                                    5
       Number of spherical basis functions:                                    5
       Norm type:                                                              2

       Normalised Cartesian orbitals:

                        Set   Shell   Orbital            Exponent    Coefficient

                          1       1    2s               10.068468      -0.133023
                                                         2.680223      -0.177618
                                                         0.791502      -0.258419
                                                         0.239116      -0.107525
                                                         0.082193      -0.014019

                          1       2    3s               10.068468       0.344673
                                                         2.680223       1.819821
                                                         0.791502      -0.999069
                                                         0.239116       0.017430
                                                         0.082193       0.082660

                          1       3    3px              10.068468       0.155326
                                                         2.680223       0.367157
                                                         0.791502       0.311480
                                                         0.239116       0.080105
                                                         0.082193       0.033440
                          1       3    3py              10.068468       0.155326
                                                         2.680223       0.367157
                                                         0.791502       0.311480
                                                         0.239116       0.080105
                                                         0.082193       0.033440
                          1       3    3pz              10.068468       0.155326
                                                         2.680223       0.367157
                                                         0.791502       0.311480
                                                         0.239116       0.080105
                                                         0.082193       0.033440

     GTH Potential information for                                    GTH-PBE-q1

       Description:                       Goedecker-Teter-Hutter pseudopotential
                                           Goedecker et al., PRB 54, 1703 (1996)
                                          Hartwigsen et al., PRB 58, 3641 (1998)
                                                      Krack, TCA 114, 145 (2005)

       Gaussian exponent of the core charge distribution:              12.500000
       Electronic configuration (s p d ...):                                   1

       Parameters of the local part of the GTH pseudopotential:

                          rloc        C1          C2          C3          C4
                        0.200000   -4.178900    0.724463


 MOLECULE KIND INFORMATION


 All atoms are their own molecule, skipping detailed information


 TOTAL NUMBERS AND MAXIMUM NUMBERS

  Total number of            - Atomic kinds:                                   3
                             - Atoms:                                         99
                             - Shell sets:                                    99
                             - Shells:                                       587
                             - Primitive Cartesian functions:                495
                             - Cartesian basis functions:                   2232
                             - Spherical basis functions:                   1943

  Maximum angular momentum of- Orbital basis functions:                        2
                             - Local part of the GTH pseudopotential:          2
                             - Non-local part of the GTH pseudopotential:      4


 MODULE QUICKSTEP:  ATOMIC COORDINATES IN angstrom

  Atom  Kind  Element       X           Y           Z          Z(eff)       Mass

       1     1 Pt  78    1.405728    0.811598   15.000000     10.00     195.0840
       2     1 Pt  78    4.217185    0.811598   15.000000     10.00     195.0840
       3     1 Pt  78    7.028641    0.811598   15.000000     10.00     195.0840
       4     1 Pt  78    9.840098    0.811598   15.000000     10.00     195.0840
       5     1 Pt  78    0.000000    3.246390   15.000000     10.00     195.0840
       6     1 Pt  78    2.811457    3.246390   15.000000     10.00     195.0840
       7     1 Pt  78    5.622913    3.246390   15.000000     10.00     195.0840
       8     1 Pt  78    8.434370    3.246390   15.000000     10.00     195.0840
       9     1 Pt  78    1.405728    5.681183   15.000000     10.00     195.0840
      10     1 Pt  78    4.217185    5.681183   15.000000     10.00     195.0840
      11     1 Pt  78    7.028641    5.681183   15.000000     10.00     195.0840
      12     1 Pt  78    9.840098    5.681183   15.000000     10.00     195.0840
      13     1 Pt  78    0.000000    8.115976   15.000000     10.00     195.0840
      14     1 Pt  78    2.811457    8.115976   15.000000     10.00     195.0840
      15     1 Pt  78    5.622913    8.115976   15.000000     10.00     195.0840
      16     1 Pt  78    8.434370    8.115976   15.000000     10.00     195.0840
      17     1 Pt  78    0.000000    1.623195   17.295545     10.00     195.0840
      18     1 Pt  78    2.811457    1.623195   17.295545     10.00     195.0840
      19     1 Pt  78    5.622913    1.623195   17.295545     10.00     195.0840
      20     1 Pt  78    8.434370    1.623195   17.295545     10.00     195.0840
      21     1 Pt  78    1.405728    4.057988   17.295545     10.00     195.0840
      22     1 Pt  78    4.217185    4.057988   17.295545     10.00     195.0840
      23     1 Pt  78    7.028641    4.057988   17.295545     10.00     195.0840
      24     1 Pt  78    9.840098    4.057988   17.295545     10.00     195.0840
      25     1 Pt  78    0.000000    6.492781   17.295545     10.00     195.0840
      26     1 Pt  78    2.811457    6.492781   17.295545     10.00     195.0840
      27     1 Pt  78    5.622913    6.492781   17.295545     10.00     195.0840
      28     1 Pt  78    8.434370    6.492781   17.295545     10.00     195.0840
      29     1 Pt  78    1.405728    8.927574   17.295545     10.00     195.0840
      30     1 Pt  78    4.217185    8.927574   17.295545     10.00     195.0840
      31     1 Pt  78    7.028641    8.927574   17.295545     10.00     195.0840
      32     1 Pt  78    9.840098    8.927574   17.295545     10.00     195.0840
      33     1 Pt  78    0.000000    0.000000   19.591089     10.00     195.0840
      34     1 Pt  78    2.811457    0.000000   19.591089     10.00     195.0840
      35     1 Pt  78    5.622913    0.000000   19.591089     10.00     195.0840
      36     1 Pt  78    8.434370    0.000000   19.591089     10.00     195.0840
      37     1 Pt  78    1.405728    2.434793   19.591089     10.00     195.0840
      38     1 Pt  78    4.217185    2.434793   19.591089     10.00     195.0840
      39     1 Pt  78    7.028641    2.434793   19.591089     10.00     195.0840
      40     1 Pt  78    9.840098    2.434793   19.591089     10.00     195.0840
      41     1 Pt  78    0.000000    4.869586   19.591089     10.00     195.0840
      42     1 Pt  78    2.811457    4.869586   19.591089     10.00     195.0840
      43     1 Pt  78    5.622913    4.869586   19.591089     10.00     195.0840
      44     1 Pt  78    8.434370    4.869586   19.591089     10.00     195.0840
      45     1 Pt  78    1.405728    7.304378   19.591089     10.00     195.0840
      46     1 Pt  78    4.217185    7.304378   19.591089     10.00     195.0840
      47     1 Pt  78    7.028641    7.304378   19.591089     10.00     195.0840
      48     1 Pt  78    9.840098    7.304378   19.591089     10.00     195.0840
      49     1 Pt  78    1.405728    0.811598   21.886634     10.00     195.0840
      50     1 Pt  78    4.217185    0.811598   21.886634     10.00     195.0840
      51     1 Pt  78    7.028641    0.811598   21.886634     10.00     195.0840
      52     1 Pt  78    9.840098    0.811598   21.886634     10.00     195.0840
      53     1 Pt  78    0.000000    3.246390   21.886634     10.00     195.0840
      54     1 Pt  78    2.811457    3.246390   21.886634     10.00     195.0840
      55     1 Pt  78    5.622913    3.246390   21.886634     10.00     195.0840
      56     1 Pt  78    8.434370    3.246390   21.886634     10.00     195.0840
      57     1 Pt  78    1.405728    5.681183   21.886634     10.00     195.0840
      58     1 Pt  78    4.217185    5.681183   21.886634     10.00     195.0840
      59     1 Pt  78    7.028641    5.681183   21.886634     10.00     195.0840
      60     1 Pt  78    9.840098    5.681183   21.886634     10.00     195.0840
      61     1 Pt  78    0.000000    8.115976   21.886634     10.00     195.0840
      62     1 Pt  78    2.811457    8.115976   21.886634     10.00     195.0840
      63     1 Pt  78    5.622913    8.115976   21.886634     10.00     195.0840
      64     1 Pt  78    8.434370    8.115976   21.886634     10.00     195.0840
      65     1 Pt  78    0.000000    1.623195   24.182179     10.00     195.0840
      66     1 Pt  78    2.811457    1.623195   24.182179     10.00     195.0840
      67     1 Pt  78    5.622913    1.623195   24.182179     10.00     195.0840
      68     1 Pt  78    8.434370    1.623195   24.182179     10.00     195.0840
      69     1 Pt  78    1.405728    4.057988   24.182179     10.00     195.0840
      70     1 Pt  78    4.217185    4.057988   24.182179     10.00     195.0840
      71     1 Pt  78    7.028641    4.057988   24.182179     10.00     195.0840
      72     1 Pt  78    9.840098    4.057988   24.182179     10.00     195.0840
      73     1 Pt  78    0.000000    6.492781   24.182179     10.00     195.0840
      74     1 Pt  78    2.811457    6.492781   24.182179     10.00     195.0840
      75     1 Pt  78    5.622913    6.492781   24.182179     10.00     195.0840
      76     1 Pt  78    8.434370    6.492781   24.182179     10.00     195.0840
      77     1 Pt  78    1.405728    8.927574   24.182179     10.00     195.0840
      78     1 Pt  78    4.217185    8.927574   24.182179     10.00     195.0840
      79     1 Pt  78    7.028641    8.927574   24.182179     10.00     195.0840
      80     1 Pt  78    9.840098    8.927574   24.182179     10.00     195.0840
      81     1 Pt  78    0.000000    0.000000   26.477723     10.00     195.0840
      82     1 Pt  78    2.811457    0.000000   26.477723     10.00     195.0840
      83     1 Pt  78    5.622913    0.000000   26.477723     10.00     195.0840
      84     1 Pt  78    8.434370    0.000000   26.477723     10.00     195.0840
      85     1 Pt  78    1.405728    2.434793   26.477723     10.00     195.0840
      86     1 Pt  78    4.217185    2.434793   26.477723     10.00     195.0840
      87     1 Pt  78    7.028641    2.434793   26.477723     10.00     195.0840
      88     1 Pt  78    9.840098    2.434793   26.477723     10.00     195.0840
      89     1 Pt  78    0.000000    4.869586   26.477723     10.00     195.0840
      90     1 Pt  78    2.811457    4.869586   26.477723     10.00     195.0840
      91     1 Pt  78    5.622913    4.869586   26.477723     10.00     195.0840
      92     1 Pt  78    8.434370    4.869586   26.477723     10.00     195.0840
      93     1 Pt  78    1.405728    7.304378   26.477723     10.00     195.0840
      94     1 Pt  78    4.217185    7.304378   26.477723     10.00     195.0840
      95     1 Pt  78    7.028641    7.304378   26.477723     10.00     195.0840
      96     1 Pt  78    9.840098    7.304378   26.477723     10.00     195.0840
      97     2 O    8    5.622913    4.869586   29.177723      6.00      15.9994
      98     3 H    1    5.062566    5.632825   29.381673      1.00       1.0079
      99     3 H    1    5.062566    4.106347   29.381673      1.00       1.0079




 SCF PARAMETERS         Density guess:                                   RESTART
                        --------------------------------------------------------
                        max_scf:                                             500
                        max_scf_history:                                       0
                        max_diis:                                              4
                        --------------------------------------------------------
                        eps_scf:                                        1.00E-06
                        eps_scf_history:                                0.00E+00
                        eps_diis:                                       1.00E-01
                        eps_eigval:                                     1.00E-05
                        --------------------------------------------------------
                        level_shift [a.u.]:                                 0.00
                        added MOs                                       500    0
                        --------------------------------------------------------
                        Mixing method:                            BROYDEN_MIXING
                                                charge density mixing in g-space
                        --------------------------------------------------------
                        Smear method:                                FERMI_DIRAC
                        Electronic temperature [K]:                        300.0
                        Electronic temperature [a.u.]:                  9.50E-04
                        Accuracy threshold:                             1.00E-10
                        --------------------------------------------------------
                        No outer SCF

 PW_GRID| Information for grid number                                          1
 PW_GRID| Grid distributed over                                    32 processors
 PW_GRID| Real space group dimensions                                    32    1
 PW_GRID| the grid is blocked:                                                NO
 PW_GRID| Cutoff [a.u.]                                                    200.0
 PW_GRID| spherical cutoff:                                                   NO
 PW_GRID|   Bounds   1            -67      67                Points:         135
 PW_GRID|   Bounds   2            -60      59                Points:         120
 PW_GRID|   Bounds   3           -250     249                Points:         500
 PW_GRID| Volume element (a.u.^3)  0.3785E-02     Volume (a.u.^3)     30656.6653
 PW_GRID| Grid span                                                    FULLSPACE
 PW_GRID|   Distribution                         Average         Max         Min
 PW_GRID|   G-Vectors                           253125.0      253125      253125
 PW_GRID|   G-Rays                                1875.0        1875        1875
 PW_GRID|   Real Space Points                   253125.0      300000      240000

 PW_GRID| Information for grid number                                          2
 PW_GRID| Number of the reference grid                                         1
 PW_GRID| Grid distributed over                                    32 processors
 PW_GRID| Real space group dimensions                                    32    1
 PW_GRID| the grid is blocked:                                                NO
 PW_GRID| Cutoff [a.u.]                                                     66.7
 PW_GRID| spherical cutoff:                                                   NO
 PW_GRID|   Bounds   1            -40      39                Points:          80
 PW_GRID|   Bounds   2            -36      35                Points:          72
 PW_GRID|   Bounds   3           -150     149                Points:         300
 PW_GRID| Volume element (a.u.^3)  0.1774E-01     Volume (a.u.^3)     30656.6653
 PW_GRID| Grid span                                                    FULLSPACE
 PW_GRID|   Distribution                         Average         Max         Min
 PW_GRID|   G-Vectors                            54000.0       54640       53520
 PW_GRID|   G-Rays                                 675.0         683         669
 PW_GRID|   Real Space Points                    54000.0       64800       43200

 PW_GRID| Information for grid number                                          3
 PW_GRID| Number of the reference grid                                         1
 PW_GRID| Grid distributed over                                    32 processors
 PW_GRID| Real space group dimensions                                    32    1
 PW_GRID| the grid is blocked:                                                NO
 PW_GRID| Cutoff [a.u.]                                                     22.2
 PW_GRID| spherical cutoff:                                                   NO
 PW_GRID|   Bounds   1            -22      22                Points:          45
 PW_GRID|   Bounds   2            -20      19                Points:          40
 PW_GRID|   Bounds   3            -90      89                Points:         180
 PW_GRID| Volume element (a.u.^3)  0.9462E-01     Volume (a.u.^3)     30656.6653
 PW_GRID| Grid span                                                    FULLSPACE
 PW_GRID|   Distribution                         Average         Max         Min
 PW_GRID|   G-Vectors                            10125.0       10260       10035
 PW_GRID|   G-Rays                                 225.0         228         223
 PW_GRID|   Real Space Points                    10125.0       14400        7200

 PW_GRID| Information for grid number                                          4
 PW_GRID| Number of the reference grid                                         1
 PW_GRID| Grid distributed over                                    32 processors
 PW_GRID| Real space group dimensions                                     4    8
 PW_GRID| the grid is blocked:                                                NO
 PW_GRID| Cutoff [a.u.]                                                      7.4
 PW_GRID| spherical cutoff:                                                   NO
 PW_GRID|   Bounds   1            -13      13                Points:          27
 PW_GRID|   Bounds   2            -12      11                Points:          24
 PW_GRID|   Bounds   3            -50      49                Points:         100
 PW_GRID| Volume element (a.u.^3)  0.4731         Volume (a.u.^3)     30656.6653
 PW_GRID| Grid span                                                    FULLSPACE
 PW_GRID|   Distribution                         Average         Max         Min
 PW_GRID|   G-Vectors                             2025.0        2133        1890
 PW_GRID|   G-Rays                                  75.0          79          70
 PW_GRID|   Real Space Points                     2025.0        2100        1800

 POISSON| Solver                                          IMPLICIT (GENERALIZED)
 POISSON| Boundary Condition                                PERIODIC & DIRICHLET
 POISSON| Maximum number of iterations                                        30
 POISSON| Convergence threshold                                         1.00E-08
 POISSON| Dielectric Constant                                              80.00
 POISSON| Relaxation parameter                                          1.00E+00

 RS_GRID| Information for grid number                                          1
 RS_GRID|   Bounds   1            -67      67                Points:         135
 RS_GRID|   Bounds   2            -60      59                Points:         120
 RS_GRID|   Bounds   3           -250     249                Points:         500
 RS_GRID| Real space distribution over                                 32 groups
 RS_GRID| Real space distribution along direction                              3
 RS_GRID| Border size                                                         34
 RS_GRID|   Distribution                         Average         Max         Min
 RS_GRID|   Planes                                  83.6          84          83

 RS_GRID| Information for grid number                                          2
 RS_GRID|   Bounds   1            -40      39                Points:          80
 RS_GRID|   Bounds   2            -36      35                Points:          72
 RS_GRID|   Bounds   3           -150     149                Points:         300
 RS_GRID| Real space distribution over                                 32 groups
 RS_GRID| Real space distribution along direction                              3
 RS_GRID| Border size                                                         24
 RS_GRID|   Distribution                         Average         Max         Min
 RS_GRID|   Planes                                  57.4          58          57

 RS_GRID| Information for grid number                                          3
 RS_GRID|   Bounds   1            -22      22                Points:          45
 RS_GRID|   Bounds   2            -20      19                Points:          40
 RS_GRID|   Bounds   3            -90      89                Points:         180
 RS_GRID| Real space fully replicated
 RS_GRID| Group size                                                           1

 RS_GRID| Information for grid number                                          4
 RS_GRID|   Bounds   1            -13      13                Points:          27
 RS_GRID|   Bounds   2            -12      11                Points:          24
 RS_GRID|   Bounds   3            -50      49                Points:         100
 RS_GRID| Real space fully replicated
 RS_GRID| Group size                                                           1

 Number of electrons:                                                        968
 Number of occupied orbitals:                                                484
 Number of molecular orbitals:                                               984

 Number of orbital functions:                                               1943
 Number of independent orbital functions:                                   1943

 Extrapolation method: initial_guess


 SCF WAVEFUNCTION OPTIMIZATION

  Step     Update method      Time    Convergence         Total energy    Change
  ------------------------------------------------------------------------------

  POISSON| IMPLICIT (GENERALIZED) SOLVER ---------------------------------------
  POISSON| Preparing Dirichlet regions ...
  POISSON| Dirichlet region    1
  POISSON|     type : axis-aligned planar
  POISSON|     applied potential :   0.0000E+00  [Eh/e]
  POISSON| Dirichlet region    2
  POISSON|     type : axis-aligned planar
  POISSON|     applied potential :   0.1837E+00  [Eh/e]
  POISSON| ... Done. 
  ------------------------------------------------------------------------------

  POISSON|   iter        pres error      nabs error        E_hartree    delta E
  POISSON|      1        0.6056E-02      0.5847E-01     901.5123078351  0.90E+03
  POISSON|      2        0.1030E-14      0.6056E-02     901.5574231858  0.45E-01
  POISSON| Poisson solver converged in 2 iterations.
     1 NoMix/Diag. 0.30E+00    2.5     0.12346785     -2538.0621072130 -2.54E+03
  POISSON|   iter        pres error      nabs error        E_hartree    delta E
  POISSON|      1        0.6177E-02      0.5849E-01     901.5550902384 -0.23E-02
  POISSON|      2        0.8550E-15      0.6177E-02     901.6011052790  0.46E-01
  POISSON| Poisson solver converged in 2 iterations.
     2 Broy./Diag. 0.30E+00    2.7     0.13446757     -2538.3020767409 -2.40E-01
  POISSON|   iter        pres error      nabs error        E_hartree    delta E
  POISSON|      1        0.1145E-03      0.3502E-03     901.6014193778  0.31E-03
  POISSON|      2        0.2394E-15      0.1145E-03     901.6005667889 -0.85E-03
  POISSON| Poisson solver converged in 2 iterations.
     3 Broy./Diag. 0.30E+00    2.7     0.13099110     -2538.1763541696  1.26E-01
  POISSON|   iter        pres error      nabs error        E_hartree    delta E
  POISSON|      1        0.2194E-05      0.2013E-04     901.6151548614  0.15E-01
  POISSON|      2        0.5158E-16      0.2194E-05     901.6151385168 -0.16E-04
  POISSON| Poisson solver converged in 2 iterations.
     4 Broy./Diag. 0.30E+00    2.7     0.01392742     -2538.1674030843  8.95E-03
  POISSON|   iter        pres error      nabs error        E_hartree    delta E
  POISSON|      1        0.1092E-05      0.1259E-04     901.6206679746  0.55E-02
  POISSON|      2        0.1051E-16      0.1092E-05     901.6206598389 -0.81E-05
  POISSON| Poisson solver converged in 2 iterations.
     5 Broy./Diag. 0.30E+00    2.7     0.01144383     -2538.1577182688  9.68E-03
  POISSON|   iter        pres error      nabs error        E_hartree    delta E
  POISSON|      1        0.1822E-05      0.2179E-04     901.6185280801 -0.21E-02
  POISSON|      2        0.7304E-16      0.1822E-05     901.6185145096 -0.14E-04
  POISSON| Poisson solver converged in 2 iterations.
     6 Broy./Diag. 0.30E+00    2.7     0.00677206     -2538.0554609807  1.02E-01
  POISSON|   iter        pres error      nabs error        E_hartree    delta E
  POISSON|      1        0.2236E-05      0.8999E-05     901.6212938073  0.28E-02
  POISSON|      2        0.9378E-17      0.2236E-05     901.6212771509 -0.17E-04
  POISSON| Poisson solver converged in 2 iterations.
     7 Broy./Diag. 0.30E+00    2.7     0.00395690     -2538.1735003873 -1.18E-01
  POISSON|   iter        pres error      nabs error        E_hartree    delta E
  POISSON|      1        0.2696E-05      0.1101E-04     901.6193421920 -0.19E-02
  POISSON|      2        0.4061E-16      0.2696E-05     901.6193221091 -0.20E-04
  POISSON| Poisson solver converged in 2 iterations.
     8 Broy./Diag. 0.30E+00    2.7     0.00277521     -2538.0864705534  8.70E-02
  POISSON|   iter        pres error      nabs error        E_hartree    delta E
  POISSON|      1        0.2989E-05      0.1061E-04     901.6178472824 -0.15E-02
  POISSON|      2        0.4846E-16      0.2989E-05     901.6178250180 -0.22E-04
  POISSON| Poisson solver converged in 2 iterations.
     9 Broy./Diag. 0.30E+00    2.7     0.00183112     -2538.1160328809 -2.96E-02
  POISSON|   iter        pres error      nabs error        E_hartree    delta E
  POISSON|      1        0.3957E-05      0.1529E-04     901.6156090589 -0.22E-02
  POISSON|      2        0.6468E-16      0.3957E-05     901.6155795807 -0.29E-04
  POISSON| Poisson solver converged in 2 iterations.
    10 Broy./Diag. 0.30E+00    2.7     0.00133156     -2538.1058756894  1.02E-02
  POISSON|   iter        pres error      nabs error        E_hartree    delta E
  POISSON|      1        0.3461E-05      0.1103E-04     901.6156921880  0.11E-03
  POISSON|      2        0.5198E-16      0.3461E-05     901.6156664032 -0.26E-04
  POISSON| Poisson solver converged in 2 iterations.
    11 Broy./Diag. 0.30E+00    2.7     0.00088620     -2538.1167199049 -1.08E-02
  POISSON|   iter        pres error      nabs error        E_hartree    delta E
  POISSON|      1        0.3036E-05      0.1031E-04     901.6175088273  0.18E-02
  POISSON|      2        0.4222E-16      0.3036E-05     901.6174862096 -0.23E-04
  POISSON| Poisson solver converged in 2 iterations.
    12 Broy./Diag. 0.30E+00    2.7     0.00084203     -2538.1151765266  1.54E-03
  POISSON|   iter        pres error      nabs error        E_hartree    delta E
  POISSON|      1        0.1011E-05      0.3323E-05     901.6175010707  0.15E-04
  POISSON|      2        0.9312E-17      0.1011E-05     901.6175085994  0.75E-05
  POISSON| Poisson solver converged in 2 iterations.
    13 Broy./Diag. 0.30E+00    2.7     0.00179253     -2538.1133031180  1.87E-03
  POISSON|   iter        pres error      nabs error        E_hartree    delta E
  POISSON|      1        0.5456E-05      0.1648E-04     901.6200526414  0.25E-02
  POISSON|      2        0.5705E-16      0.5456E-05     901.6200119967 -0.41E-04
  POISSON| Poisson solver converged in 2 iterations.
    14 Broy./Diag. 0.30E+00    2.7     0.00161277     -2538.1078447378  5.46E-03
  POISSON|   iter        pres error      nabs error        E_hartree    delta E
  POISSON|      1        0.2554E-05      0.8597E-05     901.6209289829  0.92E-03
  POISSON|      2        0.3716E-16      0.2554E-05     901.6209099597 -0.19E-04
  POISSON| Poisson solver converged in 2 iterations.
    15 Broy./Diag. 0.30E+00    2.7     0.00071650     -2538.1062555407  1.59E-03
  POISSON|   iter        pres error      nabs error        E_hartree    delta E
  POISSON|      1        0.1144E-05      0.3580E-05     901.6213843026  0.47E-03
  POISSON|      2        0.2120E-16      0.1144E-05     901.6213757816 -0.85E-05
  POISSON| Poisson solver converged in 2 iterations.
    16 Broy./Diag. 0.30E+00    2.7     0.00055341     -2538.1093498127 -3.09E-03
  POISSON|   iter        pres error      nabs error        E_hartree    delta E
  POISSON|      1        0.1198E-05      0.4579E-05     901.6212086838 -0.17E-03
  POISSON|      2        0.2124E-16      0.1198E-05     901.6211997560 -0.89E-05
  POISSON| Poisson solver converged in 2 iterations.
    17 Broy./Diag. 0.30E+00    2.7     0.00043064     -2538.1024097046  6.94E-03
  POISSON|   iter        pres error      nabs error        E_hartree    delta E
  POISSON|      1        0.1954E-05      0.5978E-05     901.6211957494 -0.40E-05
  POISSON|      2        0.2881E-16      0.1954E-05     901.6211811971 -0.15E-04
  POISSON| Poisson solver converged in 2 iterations.
    18 Broy./Diag. 0.30E+00    2.7     0.00039093     -2538.1105572816 -8.15E-03
  POISSON|   iter        pres error      nabs error        E_hartree    delta E
  POISSON|      1        0.1384E-05      0.4460E-05     901.6208466215 -0.33E-03
  POISSON|      2        0.2121E-16      0.1384E-05     901.6208363093 -0.10E-04
  POISSON| Poisson solver converged in 2 iterations.
    19 Broy./Diag. 0.30E+00    2.7     0.00032253     -2538.1064859395  4.07E-03
  POISSON|   iter        pres error      nabs error        E_hartree    delta E
  POISSON|      1        0.1652E-05      0.5188E-05     901.6203824794 -0.45E-03
  POISSON|      2        0.2561E-16      0.1652E-05     901.6203701705 -0.12E-04
  POISSON| Poisson solver converged in 2 iterations.
    20 Broy./Diag. 0.30E+00    2.7     0.00024306     -2538.1113810975 -4.90E-03
  POISSON|   iter        pres error      nabs error        E_hartree    delta E
  POISSON|      1        0.7975E-06      0.2619E-05     901.6201685308 -0.20E-03
  POISSON|      2        0.1347E-16      0.7975E-06     901.6201625897 -0.59E-05
  POISSON| Poisson solver converged in 2 iterations.
    21 Broy./Diag. 0.30E+00    2.8     0.00014391     -2538.1120733139 -6.92E-04
  POISSON|   iter        pres error      nabs error        E_hartree    delta E
  POISSON|      1        0.8743E-06      0.2597E-05     901.6201736252  0.11E-04
  POISSON|      2        0.7996E-17      0.8743E-06     901.6201671123 -0.65E-05
  POISSON| Poisson solver converged in 2 iterations.
    22 Broy./Diag. 0.30E+00    2.8     0.00011300     -2538.1126080943 -5.35E-04
  POISSON|   iter        pres error      nabs error        E_hartree    delta E
  POISSON|      1        0.2998E-06      0.8393E-06     901.6200633010 -0.10E-03
  POISSON|      2        0.5496E-17      0.2998E-06     901.6200610673 -0.22E-05
  POISSON| Poisson solver converged in 2 iterations.
    23 Broy./Diag. 0.30E+00    2.7     0.00026170     -2538.1127349977 -1.27E-04
  POISSON|   iter        pres error      nabs error        E_hartree    delta E
  POISSON|      1        0.3483E-06      0.1285E-05     901.6202577636  0.20E-03
  POISSON|      2        0.1050E-16      0.3483E-06     901.6202551687 -0.26E-05
  POISSON| Poisson solver converged in 2 iterations.
    24 Broy./Diag. 0.30E+00    2.7     0.00021607     -2538.1129956948 -2.61E-04
  POISSON|   iter        pres error      nabs error        E_hartree    delta E
  POISSON|      1        0.5838E-06      0.1759E-05     901.6205025170  0.25E-03
  POISSON|      2        0.1464E-17      0.5838E-06     901.6204981678 -0.43E-05
  POISSON| Poisson solver converged in 2 iterations.
    25 Broy./Diag. 0.30E+00    2.7     0.00009854     -2538.1122608810  7.35E-04
  POISSON|   iter        pres error      nabs error        E_hartree    delta E
  POISSON|      1        0.2900E-06      0.8944E-06     901.6206442227  0.15E-03
  POISSON|      2        0.7744E-17      0.2900E-06     901.6206420626 -0.22E-05
  POISSON| Poisson solver converged in 2 iterations.
    26 Broy./Diag. 0.30E+00    2.7     0.00012608     -2538.1113958437  8.65E-04
  POISSON|   iter        pres error      nabs error        E_hartree    delta E
  POISSON|      1        0.3481E-06      0.9272E-06     901.6207847483  0.14E-03
  POISSON|      2        0.2151E-17      0.3481E-06     901.6207821551 -0.26E-05
  POISSON| Poisson solver converged in 2 iterations.
    27 Broy./Diag. 0.30E+00    2.7     0.00011429     -2538.1123037961 -9.08E-04
  POISSON|   iter        pres error      nabs error        E_hartree    delta E
  POISSON|      1        0.3975E-06      0.1289E-05     901.6209461738  0.16E-03
  POISSON|      2        0.9108E-18      0.3975E-06     901.6209432128 -0.30E-05
  POISSON| Poisson solver converged in 2 iterations.
    28 Broy./Diag. 0.30E+00    2.7     0.00009184     -2538.1099761782  2.33E-03
  POISSON|   iter        pres error      nabs error        E_hartree    delta E
  POISSON|      1        0.1780E-06      0.5240E-06     901.6209957180  0.53E-04
  POISSON|      2        0.8064E-17      0.1780E-06     901.6209943923 -0.13E-05
  POISSON| Poisson solver converged in 2 iterations.
    29 Broy./Diag. 0.30E+00    2.7     0.00006991     -2538.1111264682 -1.15E-03
  POISSON|   iter        pres error      nabs error        E_hartree    delta E
  POISSON|      1        0.3069E-06      0.9018E-06     901.6210019504  0.76E-05
  POISSON|      2        0.5945E-17      0.3069E-06     901.6209996644 -0.23E-05
  POISSON| Poisson solver converged in 2 iterations.
    30 Broy./Diag. 0.30E+00    2.7     0.00004249     -2538.1103480145  7.78E-04
  POISSON|   iter        pres error      nabs error        E_hartree    delta E
  POISSON|      1        0.2527E-06      0.7166E-06     901.6209594990 -0.40E-04
  POISSON|      2        0.1329E-17      0.2527E-06     901.6209576163 -0.19E-05
  POISSON| Poisson solver converged in 2 iterations.
    31 Broy./Diag. 0.30E+00    2.7     0.00003622     -2538.1106962854 -3.48E-04
  POISSON|   iter        pres error      nabs error        E_hartree    delta E
  POISSON|      1        0.2605E-06      0.7918E-06     901.6208745415 -0.83E-04
  POISSON|      2        0.1235E-17      0.2605E-06     901.6208726007 -0.19E-05
  POISSON| Poisson solver converged in 2 iterations.
    32 Broy./Diag. 0.30E+00    2.7     0.00002908     -2538.1108472763 -1.51E-04
  POISSON|   iter        pres error      nabs error        E_hartree    delta E
  POISSON|      1        0.2959E-06      0.8656E-06     901.6208375683 -0.35E-04
  POISSON|      2        0.2160E-17      0.2959E-06     901.6208353642 -0.22E-05
  POISSON| Poisson solver converged in 2 iterations.
    33 Broy./Diag. 0.30E+00    2.7     0.00004212     -2538.1110840269 -2.37E-04
  POISSON|   iter        pres error      nabs error        E_hartree    delta E
  POISSON|      1        0.5993E-08      0.1031E-06     901.6208067077 -0.29E-04
  POISSON| Poisson solver converged in 1 iteration. 
    34 Broy./Diag. 0.30E+00    2.3     0.00006085     -2538.1111586038 -7.46E-05
  POISSON|   iter        pres error      nabs error        E_hartree    delta E
  POISSON|      1        0.2553E-06      0.7488E-06     901.6207766207 -0.30E-04
  POISSON|      2        0.4299E-17      0.2553E-06     901.6207747188 -0.19E-05
  POISSON| Poisson solver converged in 2 iterations.
    35 Broy./Diag. 0.30E+00    2.7     0.00003812     -2538.1113035105 -1.45E-04
  POISSON|   iter        pres error      nabs error        E_hartree    delta E
  POISSON|      1        0.1911E-06      0.5523E-06     901.6207928165  0.18E-04
  POISSON|      2        0.4672E-17      0.1911E-06     901.6207913926 -0.14E-05
  POISSON| Poisson solver converged in 2 iterations.
    36 Broy./Diag. 0.30E+00    2.7     0.00003836     -2538.1113519767 -4.85E-05
  POISSON|   iter        pres error      nabs error        E_hartree    delta E
  POISSON|      1        0.6698E-07      0.2352E-06     901.6207889435 -0.24E-05
  POISSON|      2        0.5823E-17      0.6698E-07     901.6207884445 -0.50E-06
  POISSON| Poisson solver converged in 2 iterations.
    37 Broy./Diag. 0.30E+00    2.7     0.00003723     -2538.1109542381  3.98E-04
  POISSON|   iter        pres error      nabs error        E_hartree    delta E
  POISSON|      1        0.1928E-06      0.5189E-06     901.6208270293  0.39E-04
  POISSON|      2        0.1504E-17      0.1928E-06     901.6208255928 -0.14E-05
  POISSON| Poisson solver converged in 2 iterations.
    38 Broy./Diag. 0.30E+00    2.7     0.00002927     -2538.1115436946 -5.89E-04
  POISSON|   iter        pres error      nabs error        E_hartree    delta E
  POISSON|      1        0.8282E-07      0.2533E-06     901.6208453298  0.20E-04
  POISSON|      2        0.8116E-17      0.8282E-07     901.6208447129 -0.62E-06
  POISSON| Poisson solver converged in 2 iterations.
    39 Broy./Diag. 0.30E+00    2.7     0.00002380     -2538.1109960838  5.48E-04
  POISSON|   iter        pres error      nabs error        E_hartree    delta E
  POISSON|      1        0.1160E-06      0.3398E-06     901.6208779480  0.33E-04
  POISSON|      2        0.2112E-17      0.1160E-06     901.6208770839 -0.86E-06
  POISSON| Poisson solver converged in 2 iterations.
    40 Broy./Diag. 0.30E+00    2.7     0.00002005     -2538.1112093076 -2.13E-04
  POISSON|   iter        pres error      nabs error        E_hartree    delta E
  POISSON|      1        0.1073E-06      0.3190E-06     901.6209128197  0.36E-04
  POISSON|      2        0.2211E-17      0.1073E-06     901.6209120201 -0.80E-06
  POISSON| Poisson solver converged in 2 iterations.
    41 Broy./Diag. 0.30E+00    2.7     0.00001204     -2538.1109934025  2.16E-04
  POISSON|   iter        pres error      nabs error        E_hartree    delta E
  POISSON|      1        0.6695E-07      0.1870E-06     901.6209335018  0.21E-04
  POISSON|      2        0.5935E-17      0.6695E-07     901.6209330031 -0.50E-06
  POISSON| Poisson solver converged in 2 iterations.
    42 Broy./Diag. 0.30E+00    2.7     0.00001327     -2538.1109688420  2.46E-05
  POISSON|   iter        pres error      nabs error        E_hartree    delta E
  POISSON|      1        0.7027E-07      0.2125E-06     901.6209363176  0.33E-05
  POISSON|      2        0.5203E-17      0.7027E-07     901.6209357941 -0.52E-06
  POISSON| Poisson solver converged in 2 iterations.
    43 Broy./Diag. 0.30E+00    2.7     0.00000955     -2538.1109538086  1.50E-05
  POISSON|   iter        pres error      nabs error        E_hartree    delta E
  POISSON|      1        0.2341E-07      0.8183E-07     901.6209352947 -0.50E-06
  POISSON|      2        0.7058E-18      0.2341E-07     901.6209351203 -0.17E-06
  POISSON| Poisson solver converged in 2 iterations.
    44 Broy./Diag. 0.30E+00    2.7     0.00001345     -2538.1109731036 -1.93E-05
  POISSON|   iter        pres error      nabs error        E_hartree    delta E
  POISSON|      1        0.6175E-07      0.1847E-06     901.6209289708 -0.61E-05
  POISSON|      2        0.8724E-18      0.6175E-07     901.6209285108 -0.46E-06
  POISSON| Poisson solver converged in 2 iterations.
    45 Broy./Diag. 0.30E+00    2.7     0.00001097     -2538.1109745833 -1.48E-06
  POISSON|   iter        pres error      nabs error        E_hartree    delta E
  POISSON|      1        0.6322E-07      0.1899E-06     901.6209152465 -0.13E-04
  POISSON|      2        0.6989E-17      0.6322E-07     901.6209147755 -0.47E-06
  POISSON| Poisson solver converged in 2 iterations.
    46 Broy./Diag. 0.30E+00    2.7     0.00000937     -2538.1110191511 -4.46E-05
  POISSON|   iter        pres error      nabs error        E_hartree    delta E
  POISSON|      1        0.9056E-08      0.3758E-07     901.6209147166 -0.59E-07
  POISSON| Poisson solver converged in 1 iteration. 
    47 Broy./Diag. 0.30E+00    2.3     0.00001373     -2538.1111369455 -1.18E-04
  POISSON|   iter        pres error      nabs error        E_hartree    delta E
  POISSON|      1        0.3878E-07      0.1322E-06     901.6209061535 -0.86E-05
  POISSON|      2        0.1465E-17      0.3878E-07     901.6209058646 -0.29E-06
  POISSON| Poisson solver converged in 2 iterations.
    48 Broy./Diag. 0.30E+00    2.7     0.00001105     -2538.1109262490  2.11E-04
  POISSON|   iter        pres error      nabs error        E_hartree    delta E
  POISSON|      1        0.2194E-07      0.6820E-07     901.6209065007  0.64E-06
  POISSON|      2        0.5077E-17      0.2194E-07     901.6209063373 -0.16E-06
  POISSON| Poisson solver converged in 2 iterations.
    49 Broy./Diag. 0.30E+00    2.7     0.00000761     -2538.1111071126 -1.81E-04
  POISSON|   iter        pres error      nabs error        E_hartree    delta E
  POISSON|      1        0.1758E-07      0.5440E-07     901.6209059624 -0.37E-06
  POISSON|      2        0.6237E-17      0.1758E-07     901.6209058315 -0.13E-06
  POISSON| Poisson solver converged in 2 iterations.
    50 Broy./Diag. 0.30E+00    2.7     0.00000607     -2538.1110197327  8.74E-05
  POISSON|   iter        pres error      nabs error        E_hartree    delta E
  POISSON|      1        0.2415E-07      0.7631E-07     901.6209091253  0.33E-05
  POISSON|      2        0.4279E-17      0.2415E-07     901.6209089454 -0.18E-06
  POISSON| Poisson solver converged in 2 iterations.
    51 Broy./Diag. 0.30E+00    2.7     0.00000367     -2538.1110594301 -3.97E-05
  POISSON|   iter        pres error      nabs error        E_hartree    delta E
  POISSON|      1        0.2050E-07      0.7124E-07     901.6209133863  0.44E-05
  POISSON|      2        0.2767E-17      0.2050E-07     901.6209132336 -0.15E-06
  POISSON| Poisson solver converged in 2 iterations.
    52 Broy./Diag. 0.30E+00    2.7     0.00000421     -2538.1110292637  3.02E-05
  POISSON|   iter        pres error      nabs error        E_hartree    delta E
  POISSON|      1        0.1952E-07      0.6229E-07     901.6209177598  0.45E-05
  POISSON|      2        0.3218E-17      0.1952E-07     901.6209176144 -0.15E-06
  POISSON| Poisson solver converged in 2 iterations.
    53 Broy./Diag. 0.30E+00    2.7     0.00000300     -2538.1110067466  2.25E-05
  POISSON|   iter        pres error      nabs error        E_hartree    delta E
  POISSON|      1        0.1200E-07      0.3881E-07     901.6209199257  0.23E-05
  POISSON|      2        0.2528E-17      0.1200E-07     901.6209198363 -0.89E-07
  POISSON| Poisson solver converged in 2 iterations.
    54 Broy./Diag. 0.30E+00    2.7     0.00000404     -2538.1109931015  1.36E-05
  POISSON|   iter        pres error      nabs error        E_hartree    delta E
  POISSON|      1        0.1302E-07      0.4386E-07     901.6209215689  0.17E-05
  POISSON|      2        0.1269E-17      0.1302E-07     901.6209214720 -0.97E-07
  POISSON| Poisson solver converged in 2 iterations.
    55 Broy./Diag. 0.30E+00    2.7     0.00000361     -2538.1109924024  6.99E-07
  POISSON|   iter        pres error      nabs error        E_hartree    delta E
  POISSON|      1        0.1380E-07      0.4559E-07     901.6209224275  0.96E-06
  POISSON|      2        0.1794E-17      0.1380E-07     901.6209223247 -0.10E-06
  POISSON| Poisson solver converged in 2 iterations.
    56 Broy./Diag. 0.30E+00    2.7     0.00000240     -2538.1109829781  9.42E-06
  POISSON|   iter        pres error      nabs error        E_hartree    delta E
  POISSON|      1        0.9285E-08      0.3429E-07     901.6209207628 -0.16E-05
  POISSON| Poisson solver converged in 1 iteration. 
    57 Broy./Diag. 0.30E+00    2.3     0.00000434     -2538.1109660662  1.69E-05
  POISSON|   iter        pres error      nabs error        E_hartree    delta E
  POISSON|      1        0.1118E-07      0.3032E-07     901.6209216568  0.89E-06
  POISSON|      2        0.4278E-17      0.1118E-07     901.6209215736 -0.83E-07
  POISSON| Poisson solver converged in 2 iterations.
    58 Broy./Diag. 0.30E+00    2.7     0.00000350     -2538.1110263696 -6.03E-05
  POISSON|   iter        pres error      nabs error        E_hartree    delta E
  POISSON|      1        0.1065E-07      0.3703E-07     901.6209192435 -0.23E-05
  POISSON|      2        0.3863E-17      0.1065E-07     901.6209191642 -0.79E-07
  POISSON| Poisson solver converged in 2 iterations.
    59 Broy./Diag. 0.30E+00    2.7     0.00000346     -2538.1109681823  5.82E-05
  POISSON|   iter        pres error      nabs error        E_hartree    delta E
  POISSON|      1        0.5224E-08      0.1626E-07     901.6209192150  0.51E-07
  POISSON| Poisson solver converged in 1 iteration. 
    60 Broy./Diag. 0.30E+00    2.3     0.00000254     -2538.1110109265 -4.27E-05
  POISSON|   iter        pres error      nabs error        E_hartree    delta E
  POISSON|      1        0.1165E-07      0.3888E-07     901.6209177606 -0.15E-05
  POISSON|      2        0.7512E-17      0.1165E-07     901.6209176738 -0.87E-07
  POISSON| Poisson solver converged in 2 iterations.
    61 Broy./Diag. 0.30E+00    2.7     0.00000196     -2538.1109994687  1.15E-05
  POISSON|   iter        pres error      nabs error        E_hartree    delta E
  POISSON|      1        0.6803E-08      0.1913E-07     901.6209177068  0.33E-07
  POISSON| Poisson solver converged in 1 iteration. 
    62 Broy./Diag. 0.30E+00    2.3     0.00000337     -2538.1110136945 -1.42E-05
  POISSON|   iter        pres error      nabs error        E_hartree    delta E
  POISSON|      1        0.5635E-08      0.2152E-07     901.6209180819  0.38E-06
  POISSON| Poisson solver converged in 1 iteration. 
[...]
     90      1      Pt         -0.00098073     0.00133053     0.01215227
     91      1      Pt          0.00003593     0.00123198     0.01863147
     92      1      Pt          0.00114663     0.00130507     0.01152508
     93      1      Pt          0.00039503     0.00114681     0.01346691
     94      1      Pt         -0.00071929     0.00233119     0.01226927
     95      1      Pt          0.00056885     0.00256706     0.01210984
     96      1      Pt         -0.00018927     0.00121033     0.01322510
     97      2      O           0.00473472    -0.00001657     0.00420550
     98      3      H          -0.00233538     0.00444531    -0.00260766
     99      3      H          -0.00234895    -0.00443427    -0.00260259
 SUM OF ATOMIC FORCES           0.00024760     0.00000047     0.00297856     0.00298883

 -------------------------------------------------------------------------------
 -                                                                             -
 -                                DBCSR STATISTICS                             -
 -                                                                             -
 -------------------------------------------------------------------------------
 COUNTER                                    TOTAL       BLAS       SMM       ACC
 flops     5 x    24 x     5                 4800       0.0%    100.0%      0.0%
 flops     5 x    24 x    13                 6240       0.0%    100.0%      0.0%
 flops    13 x    24 x     5                 6240       0.0%    100.0%      0.0%
 flops    13 x    24 x    13                 8112       0.0%    100.0%      0.0%
 flops     5 x    22 x     5                26400       0.0%    100.0%      0.0%
 flops     5 x    22 x    13                34320       0.0%    100.0%      0.0%
 flops    13 x    22 x     5                34320       0.0%    100.0%      0.0%
 flops    13 x    22 x    13                44616       0.0%    100.0%      0.0%
 flops     5 x    32 x     5               691200       0.0%    100.0%      0.0%
 flops     5 x    13 x    96               836160       0.0%    100.0%      0.0%
 flops    13 x     5 x    96               836160       0.0%    100.0%      0.0%
 flops     5 x    24 x    20               840000       0.0%    100.0%      0.0%
 flops    20 x    24 x     5               840000       0.0%    100.0%      0.0%
 flops     5 x    32 x    13               898560       0.0%    100.0%      0.0%
 flops    13 x    32 x     5               898560       0.0%    100.0%      0.0%
 flops    20 x    24 x    13               948480       0.0%    100.0%      0.0%
 flops    13 x    24 x    20               948480       0.0%    100.0%      0.0%
 flops     5 x     5 x    96               964800       0.0%    100.0%      0.0%
 flops     5 x    13 x   120              1045200       0.0%    100.0%      0.0%
 flops    13 x     5 x   120              1045200       0.0%    100.0%      0.0%
 flops    13 x    32 x    13              1168128       0.0%    100.0%      0.0%
 flops     5 x     5 x   120              1206000       0.0%    100.0%      0.0%
 flops    13 x    13 x    96              2174016       0.0%    100.0%      0.0%
 flops    13 x    13 x   120              2717520       0.0%    100.0%      0.0%
 flops     5 x    22 x    20              4620000       0.0%    100.0%      0.0%
 flops    20 x    22 x     5              4620000       0.0%    100.0%      0.0%
 flops    20 x    22 x    13              5216640       0.0%    100.0%      0.0%
 flops    13 x    22 x    20              5216640       0.0%    100.0%      0.0%
 flops     5 x    13 x   128              6689280       0.0%    100.0%      0.0%
 flops    13 x     5 x   128              6689280       0.0%    100.0%      0.0%
 flops     5 x     5 x   128              7718400       0.0%    100.0%      0.0%
 flops    13 x    13 x   128             17392128       0.0%    100.0%      0.0%
 flops    20 x     5 x    96            111916800       0.0%    100.0%      0.0%
 flops     5 x    20 x    96            113203200       0.0%    100.0%      0.0%
 flops    20 x    32 x     5            120960000       0.0%    100.0%      0.0%
 flops     5 x    32 x    20            120960000       0.0%    100.0%      0.0%
 flops    20 x    13 x    96            123751680       0.0%    100.0%      0.0%
 flops    13 x    20 x    96            130440960       0.0%    100.0%      0.0%
 flops    20 x    32 x    13            136581120       0.0%    100.0%      0.0%
 flops    13 x    32 x    20            136581120       0.0%    100.0%      0.0%
 flops    20 x     5 x   120            139896000       0.0%    100.0%      0.0%
 flops     5 x    20 x   120            141504000       0.0%    100.0%      0.0%
 flops    20 x    13 x   120            154689600       0.0%    100.0%      0.0%
 flops    13 x    20 x   120            163051200       0.0%    100.0%      0.0%
 flops    20 x    24 x    20            176947200       0.0%    100.0%      0.0%
 flops    20 x     5 x   128            895334400       0.0%    100.0%      0.0%
 flops     5 x    20 x   128            905625600       0.0%    100.0%      0.0%
 flops    20 x    22 x    20            973209600       0.0%    100.0%      0.0%
 flops    20 x    13 x   128            990013440       0.0%    100.0%      0.0%
 flops    13 x    20 x   128           1043527680       0.0%    100.0%      0.0%
 flops    20 x    20 x    96          23957913600       0.0%    100.0%      0.0%
 flops    20 x    32 x    20          25480396800       0.0%    100.0%      0.0%
 flops    20 x    20 x   120          29947392000       0.0%    100.0%      0.0%
 flops    20 x    20 x   128         191663308800       0.0%    100.0%      0.0%
 flops inhomo. stacks                           0       0.0%      0.0%      0.0%
 flops total                       277.703591E+09       0.0%    100.0%      0.0%
 flops max/rank                      9.338462E+09       0.0%    100.0%      0.0%
 matmuls inhomo. stacks                         0       0.0%      0.0%      0.0%
 matmuls total                            3751973       0.0%    100.0%      0.0%
 number of processed stacks                 44707       0.0%    100.0%      0.0%
 average stack size                                     0.0      83.9       0.0
 marketing flops                   289.319879E+09
 -------------------------------------------------------------------------------
 # multiplications                             74
 max memory usage/rank             406.122496E+06
 # max total images/rank                        2
 # max 3D layers                                1
 # MPI messages exchanged                   30784
 MPI messages size (bytes):
  total size                        11.890768E+09
  min size                          61.440000E+03
  max size                         985.352000E+03
  average size                     386.264562E+03
 MPI breakdown and total messages size (bytes):
             size <=      128                   0                        0
       128 < size <=     8192                   0                        0
      8192 < size <=    32768                   0                        0
     32768 < size <=   131072                1152                122548896
    131072 < size <=  4194304               29632              11768222216
   4194304 < size <= 16777216                   0                        0
  16777216 < size                               0                        0
 -------------------------------------------------------------------------------

 *** WARNING in dbcsr_mm.F:295 :: Using a non-square number of MPI ranks ***
 *** might lead to poor performance. Used ranks: 32 Suggested: 36 64     ***

 -------------------------------------------------------------------------------
 -                                                                             -
 -                      DBCSR MESSAGE PASSING PERFORMANCE                      -
 -                                                                             -
 -------------------------------------------------------------------------------
 ROUTINE             CALLS      AVE VOLUME [Bytes]
 MP_Group               74
 MP_Bcast               55                     12.
 MP_Allreduce          615                     12.
 MP_Alltoall          2011                 265358.
 MP_Wait              4736
 MP_ISend             2368                 169005.
 MP_IRecv             2368                 163441.
 MP_Memory            8270
 -------------------------------------------------------------------------------

 MEMORY| Estimated peak process memory [MiB]                                 389

 -------------------------------------------------------------------------------
 ----                             MULTIGRID INFO                            ----
 -------------------------------------------------------------------------------
 count for grid        1:         253275          cutoff [a.u.]          200.00
 count for grid        2:         270125          cutoff [a.u.]           66.67
 count for grid        3:         158094          cutoff [a.u.]           22.22
 count for grid        4:         114175          cutoff [a.u.]            7.41
 total gridlevel count  :         795669

 -------------------------------------------------------------------------------
 -                                                                             -
 -                         MESSAGE PASSING PERFORMANCE                         -
 -                                                                             -
 -------------------------------------------------------------------------------

 ROUTINE             CALLS      AVE VOLUME [Bytes]
 MP_Group                4
 MP_Bcast             2472                 232524.
 MP_Allreduce         3720                   2862.
 MP_Sync                 5
 MP_Alltoall          3637               13422513.
 MP_SendRecv         63488                 169400.
 MP_ISendRecv         8184                  66000.
 MP_Wait             19440
 MP_ISend            10184                 180204.
 MP_IRecv            10184                 180204.
 MP_Recv               150                 497408.
 MP_Write_All            3                1119280.
 -------------------------------------------------------------------------------


 -------------------------------------------------------------------------------
 -                                                                             -
 -                           R E F E R E N C E S                               -
 -                                                                             -
 -------------------------------------------------------------------------------
 
 CP2K version 7.1, the CP2K developers group (2019).
 CP2K is freely available from https://www.cp2k.org/ .

 Bani-Hashemian, MH; Bruck, S; Luisier, M; VandeVondele, J. 
 JOURNAL OF CHEMICAL PHYSICS, 144 (4), 044113 (2016). 
 A generalized Poisson solver for first-principles device simulations.
 https://dx.doi.org/10.1063/1.4940796

 Schuett, Ole; Messmer, Peter; Hutter, Juerg; VandeVondele, Joost. 
 Electronic Structure Calculations on Graphics Processing Units, John
 Wiley & Sons, Ltd, 173-190 (2016). 
 GPU-Accelerated Sparse Matrix-Matrix Multiplication for
 Linear Scaling Density Functional Theory.
 https://dx.doi.org/10.1002/9781118670712.ch8

 Borstnik, U; VandeVondele, J; Weber, V; Hutter, J. 
 PARALLEL COMPUTING, 40 (5-6), 47-58 (2014). 
 Sparse matrix multiplication: The distributed block-compressed sparse
 row library.
 https://dx.doi.org/10.1016/j.parco.2014.03.012

 Hutter, J; Iannuzzi, M; Schiffmann, F; VandeVondele, J. 
 WIREs Comput Mol Sci., 4 (1), 15-25 (2014). 
 CP2K: atomistic simulations of condensed matter systems.
 https://dx.doi.org/10.1002/wcms.1159

 Marek, A; Blum, V; Johanni, R; Havu, V; Lang, B; Auckenthaler, T;
 Heinecke, A; Bungartz, H; Lederer, H. 
 Journal of Physics: Condensed Matter, 26 (21), (2014). 
 The ELPA library: scalable parallel eigenvalue solutions for
 electronic structure
 theory and computational science.
 https://dx.doi.org/10.1088/0953-8984/26/21/213201

 Grimme, S; Ehrlich, S; Goerigk, L. 
 JOURNAL OF COMPUTATIONAL CHEMISTRY, 32, 1456 (2011). 
 Effect of the damping function in dispersion corrected density functional theory.
 https://dx.doi.org/10.1002/jcc.21759

 Grimme, S; Antony, J; Ehrlich, S; Krieg, H. 
 JOURNAL OF CHEMICAL PHYSICS, 132 (15), 154104 (2010). 
 A consistent and accurate ab initio parametrization of density
 functional dispersion correction (DFT-D) for the 94 elements H-Pu.
 https://dx.doi.org/10.1063/1.3382344

 VandeVondele, J; Hutter, J. 
 JOURNAL OF CHEMICAL PHYSICS, 127 (11), 114105 (2007). 
 Gaussian basis sets for accurate calculations on molecular systems in
 gas and condensed phases.
 https://dx.doi.org/10.1063/1.2770708

 Krack, M. 
 THEORETICAL CHEMISTRY ACCOUNTS, 114 (1-3), 145-152 (2005). 
 Pseudopotentials for H to Kr optimized for gradient-corrected
 exchange-correlation functionals.
 https://dx.doi.org/10.1007/s00214-005-0655-y

 VandeVondele, J; Krack, M; Mohamed, F; Parrinello, M; Chassaing, T;
 Hutter, J. COMPUTER PHYSICS COMMUNICATIONS, 167 (2), 103-128 (2005). 
 QUICKSTEP: Fast and accurate density functional calculations using a
 mixed Gaussian and plane waves approach.
 https://dx.doi.org/10.1016/j.cpc.2004.12.014

 Frigo, M; Johnson, SG. 
 PROCEEDINGS OF THE IEEE, 93 (2), 216-231 (2005). 
 The design and implementation of FFTW3.
 https://dx.doi.org/10.1109/JPROC.2004.840301

 Hartwigsen, C; Goedecker, S; Hutter, J. 
 PHYSICAL REVIEW B, 58 (7), 3641-3662 (1998). 
 Relativistic separable dual-space Gaussian pseudopotentials from H to Rn.
 https://dx.doi.org/10.1103/PhysRevB.58.3641

 Lippert, G; Hutter, J; Parrinello, M. 
 MOLECULAR PHYSICS, 92 (3), 477-487 (1997). 
 A hybrid Gaussian and plane wave density functional scheme.
 https://dx.doi.org/10.1080/002689797170220

 Perdew, JP; Burke, K; Ernzerhof, M. 
 PHYSICAL REVIEW LETTERS, 77 (18), 3865-3868 (1996). 
 Generalized gradient approximation made simple.
 https://dx.doi.org/10.1103/PhysRevLett.77.3865

 Goedecker, S; Teter, M; Hutter, J. 
 PHYSICAL REVIEW B, 54 (3), 1703-1710 (1996). 
 Separable dual-space Gaussian pseudopotentials.
 https://dx.doi.org/10.1103/PhysRevB.54.1703


 -------------------------------------------------------------------------------
 -                                                                             -
 -                                T I M I N G                                  -
 -                                                                             -
 -------------------------------------------------------------------------------
 SUBROUTINE                       CALLS  ASD         SELF TIME        TOTAL TIME
                                MAXIMUM       AVERAGE  MAXIMUM  AVERAGE  MAXIMUM
 CP2K                                 1  1.0    0.020    0.031  241.877  241.881
 qs_forces                            1  2.0    0.000    0.000  241.564  241.568
 qs_energies                          1  3.0    0.000    0.000  237.513  237.517
 scf_env_do_scf                       1  4.0    0.000    0.000  172.958  172.971
 scf_env_do_scf_inner_loop           65  5.0    0.003    0.011  172.956  172.968
 rebuild_ks_matrix                   66  7.0    0.000    0.000  131.484  131.495
 qs_ks_build_kohn_sham_matrix        66  8.0    0.008    0.009  131.484  131.495
 qs_ks_update_qs_env                 65  6.0    0.000    0.000  129.317  129.329
 pw_transfer                       3356 12.0    0.195    0.226   95.542   96.404
 fft_wrap_pw1pw2                   3356 13.0    0.034    0.039   95.347   96.232
 fft_wrap_pw1pw2_200               2960 14.2    7.778    8.411   94.393   95.123
 pw_poisson_solve                    66  9.0    0.002    0.002   81.824   81.877
 implicit_poisson_solver_mixed_      66 10.0    1.810    2.094   77.302   77.425
 fft3d_ps                          3356 15.0   47.392   52.105   70.167   71.238
 scf_post_calculation_gpw             1  4.0    0.000    0.000   63.333   63.334
 get_localization_info                1  5.0    0.000    0.000   62.522   62.529
 qs_loc_driver                        1  6.0    0.000    0.000   62.521   62.529
 optimize_loc_berry                   1  7.0    0.016    0.018   62.514   62.515
 jacobi_rot_para                      1  8.0   49.551   53.246   62.425   62.426
 derive_fft                         380 12.1    0.017    0.019   54.515   55.226
 apply_P_operator                   314 11.2    0.753    0.982   45.843   46.388
 qs_rho_update_rho                   66  6.0    0.000    0.000   25.295   25.329
 calculate_rho_elec                  66  7.0   10.842   17.988   25.295   25.329
 sum_up_and_integrate                66  9.0    0.215    0.247   25.015   25.027
 integrate_v_rspace                  66 10.0   11.470   19.218   24.800   24.819
 qs_vxc_create                       66  9.0    0.002    0.002   22.302   22.451
 xc_vxc_pw_create                    66 10.0    0.253    0.322   22.300   22.450
 mp_alltoall_z22v                  3356 17.0   13.015   16.923   13.015   16.923
 density_rs2pw                       66  8.0    0.003    0.003   13.556   16.824
 rs_pw_transfer                     532 10.5    0.005    0.007   11.448   14.579
 x_to_yz                           2057 16.3    6.736    8.795   13.696   14.493
 apply_poisson_operator_fft          66 11.0    0.001    0.001   14.055   14.146
 xc_rho_set_and_dset_create          66 11.0    0.091    0.105   11.805   12.931
 apply_inv_laplace_operator_fft     192 11.6    0.363    0.442   12.502   12.855
 mp_allgather_d23                 31682  9.0    8.682   12.628    8.682   12.628
 pw_scatter_p                      2123 15.2   11.195   11.979   11.195   11.979
 mp_alltoall_d11v                   995 10.4    8.146   11.527    8.146   11.527
 rs_distribute_matrix               133  9.5    0.112    0.291    8.198   11.460
 rs_pw_transfer_RS2PW_200            68 10.0    0.824    1.133    8.250   11.375
 qs_scf_new_mos                      65  6.0    0.001    0.001   11.105   11.123
 mp_waitany                       10184 12.4    7.850   11.105    7.850   11.105
 yz_to_x                           1167 15.7    2.931    3.398    8.980   10.664
 ps_implicit_compute_veps            66 11.0    0.246    0.356    9.675   10.066
 eigensolver                         65  7.0    0.003    0.004    9.790    9.809
 ps_implicit_compute_error_fft      124 11.0    0.491    0.537    8.894    9.341
 cp_fm_diag_elpa                     66  8.0    0.000    0.001    8.002    8.007
 cp_fm_diag_elpa_base                66  9.0    7.804    7.809    8.002    8.007
 gspace_mixing                       64  6.0    0.075    0.087    7.510    7.510
 pw_gather_p                       1233 14.6    6.102    6.578    6.102    6.578
 pw_derive                         1536 12.7    5.398    5.981    5.398    5.981
 xc_functional_eval                  66 12.0    0.000    0.001    4.261    5.492
 pbe_lda_eval                        66 13.0    4.260    5.491    4.260    5.491
 broyden_mixing                      64  7.0    5.274    5.296    5.344    5.353
 potential_pw2rs                     66 11.0    0.007    0.009    5.333    5.345
 -------------------------------------------------------------------------------

 The number of warnings for this run is : 1
 
 -------------------------------------------------------------------------------
  **** **** ******  **  PROGRAM ENDED AT                 2024-11-01 23:19:51.035
 ***** ** ***  *** **   PROGRAM RAN ON                                   c53-012
 **    ****   ******    PROGRAM RAN BY                                     jxzhu
 ***** **    ** ** **   PROGRAM PROCESS ID                                263622
  **** **  *******  **  PROGRAM STOPPED IN /data/jxzhu/nnp/dp_workdir/d1f764b96e
                                           9a01b62c3e35b0c4f5198f3ba3ed59/calc.0
                                           00/task.001.000006
