 DBCSR| CPU Multiplication driver                                           XSMM
 DBCSR| Multrec recursion limit                                              512
 DBCSR| Multiplication stack size                                           1000
 DBCSR| Maximum elements for images                                    UNLIMITED
 DBCSR| Multiplicative factor virtual images                                   1
 DBCSR| Use multiplication densification                                       T
 DBCSR| Multiplication size stacks                                             3
 DBCSR| Use memory pool for CPU allocation                                     F
 DBCSR| Number of 3D layers                                               SINGLE
 DBCSR| Use MPI memory allocation                                              F
 DBCSR| Use RMA algorithm                                                      F
 DBCSR| Use Communication thread                                               T
 DBCSR| Communication thread load                                             87
 DBCSR| MPI: My node id                                                        0
 DBCSR| MPI: Number of nodes                                                 128
 DBCSR| OMP: Current number of threads                                         1
 DBCSR| OMP: Max number of threads                                             1
 DBCSR| Split modifier for TAS multiplication algorithm                  1.0E+00


  **** **** ******  **  PROGRAM STARTED AT               2023-12-02 06:23:11.774
 ***** ** ***  *** **   PROGRAM STARTED ON                                 cu067
 **    ****   ******    PROGRAM STARTED BY                                 jxzhu
 ***** **    ** ** **   PROGRAM PROCESS ID                                  1738
  **** **  *******  **  PROGRAM STARTED IN /public/home/jxzhu/tmp_calc/f2b4280ef
                                           f65bc5a671f1de0f75a29b7810d65fa/calc/
                                           000900.000/search_lo.000002

 CP2K| version string:                                       CP2K version 2022.1
 CP2K| source code revision number:                                  git:2caeb6f
 CP2K| cp2kflags: omp libint fftw3 libxc elpa parallel mpi3 scalapack cosma xsmm
 CP2K|             plumed2 spglib mkl sirius libvori libbqb
 CP2K| is freely available from                            https://www.cp2k.org/
 CP2K| Program compiled at                           Mon Jul 3 17:37:06 CST 2023
 CP2K| Program compiled on                                                 mu003
 CP2K| Program compiled for                                                local
 CP2K| Data directory path                             /public/home/jxzhu/basis/
 CP2K| Input file name                                                 input.inp
 
 GLOBAL| Force Environment number                                              1
 GLOBAL| Basis set file name                                        BASIS_MOLOPT
 GLOBAL| Potential file name                                      GTH_POTENTIALS
 GLOBAL| MM Potential file name                                     MM_POTENTIAL
 GLOBAL| Coordinate file name                                          coord.xyz
 GLOBAL| Method name                                                        CP2K
 GLOBAL| Project name                                                       cp2k
 GLOBAL| Run type                                                   ENERGY_FORCE
 GLOBAL| FFT library                                                       FFTW3
 GLOBAL| Diagonalization library                                            ELPA
 GLOBAL| Minimum number of eigenvectors for ELPA usage                        16
 GLOBAL| Orthonormality check for eigenvectors                          DISABLED
 GLOBAL| Matrix multiplication library                                     COSMA
 GLOBAL| All-to-all communication in single precision                          F
 GLOBAL| FFTs using library dependent lengths                                  T
 GLOBAL| Grid backend                                                       AUTO
 GLOBAL| Global print level                                               MEDIUM
 GLOBAL| MPI I/O enabled                                                       T
 GLOBAL| Total number of message passing processes                           128
 GLOBAL| Number of threads for this process                                    1
 GLOBAL| This output is from process                                           0
 GLOBAL| Stack size for threads created by OpenMP (OMP_STACKSIZE)        default
 GLOBAL| CPU model name                 Intel(R) Xeon(R) Gold 6338 CPU @ 2.00GHz
 GLOBAL| CPUID                                                              1003

 MEMORY| system memory details [Kb]
 MEMORY|                        rank 0           min           max       average
 MEMORY| MemTotal            263619172     263619168     263619172     263619170
 MEMORY| MemFree             186544392     186543152     197217748     191879780
 MEMORY| Buffers                    36            20            36            28
 MEMORY| Cached                1756940        887172       1756940       1322055
 MEMORY| Slab                  2073588       1714612       2073588       1894100
 MEMORY| SReclaimable           228084        222004        228084        225044
 MEMORY| MemLikelyFree       188529452     188528212     198326944     193426908


 *** Fundamental physical constants (SI units) ***

 *** Literature: B. J. Mohr and B. N. Taylor,
 ***             CODATA recommended values of the fundamental physical
 ***             constants: 2006, Web Version 5.1
 ***             http://physics.nist.gov/constants

 Speed of light in vacuum [m/s]                             2.99792458000000E+08
 Magnetic constant or permeability of vacuum [N/A**2]       1.25663706143592E-06
 Electric constant or permittivity of vacuum [F/m]          8.85418781762039E-12
 Planck constant (h) [J*s]                                  6.62606896000000E-34
 Planck constant (h-bar) [J*s]                              1.05457162825177E-34
 Elementary charge [C]                                      1.60217648700000E-19
 Electron mass [kg]                                         9.10938215000000E-31
 Electron g factor [ ]                                     -2.00231930436220E+00
 Proton mass [kg]                                           1.67262163700000E-27
 Fine-structure constant                                    7.29735253760000E-03
 Rydberg constant [1/m]                                     1.09737315685270E+07
 Avogadro constant [1/mol]                                  6.02214179000000E+23
 Boltzmann constant [J/K]                                   1.38065040000000E-23
 Atomic mass unit [kg]                                      1.66053878200000E-27
 Bohr radius [m]                                            5.29177208590000E-11

 *** Conversion factors ***

 [u] -> [a.u.]                                              1.82288848426455E+03
 [Angstrom] -> [Bohr] = [a.u.]                              1.88972613288564E+00
 [a.u.] = [Bohr] -> [Angstrom]                              5.29177208590000E-01
 [a.u.] -> [s]                                              2.41888432650478E-17
 [a.u.] -> [fs]                                             2.41888432650478E-02
 [a.u.] -> [J]                                              4.35974393937059E-18
 [a.u.] -> [N]                                              8.23872205491840E-08
 [a.u.] -> [K]                                              3.15774647902944E+05
 [a.u.] -> [kJ/mol]                                         2.62549961709828E+03
 [a.u.] -> [kcal/mol]                                       6.27509468713739E+02
 [a.u.] -> [Pa]                                             2.94210107994716E+13
 [a.u.] -> [bar]                                            2.94210107994716E+08
 [a.u.] -> [atm]                                            2.90362800883016E+08
 [a.u.] -> [eV]                                             2.72113838565563E+01
 [a.u.] -> [Hz]                                             6.57968392072181E+15
 [a.u.] -> [1/cm] (wave numbers)                            2.19474631370540E+05
 [a.u./Bohr**2] -> [1/cm]                                   5.14048714338585E+03
 

 CELL_TOP| Volume [angstrom^3]:                                     17614.982639
 CELL_TOP| Vector a [angstrom    16.869     0.000     0.000   |a| =    16.869000
 CELL_TOP| Vector b [angstrom    -8.434    14.609     0.000   |b| =    16.869015
 CELL_TOP| Vector c [angstrom     0.000     0.000    71.478   |c| =    71.478000
 CELL_TOP| Angle (b,c), alpha [degree]:                                90.000000
 CELL_TOP| Angle (a,c), beta  [degree]:                                90.000000
 CELL_TOP| Angle (a,b), gamma [degree]:                               119.999970
 CELL_TOP| Numerically orthorhombic:                                          NO
 
 GENERATE|  Preliminary Number of Bonds generated:                             0
 GENERATE|  Achieved consistency in connectivity generation.

 CELL| Volume [angstrom^3]:                                         17614.982639
 CELL| Vector a [angstrom]:      16.869     0.000     0.000   |a| =    16.869000
 CELL| Vector b [angstrom]:      -8.434    14.609     0.000   |b| =    16.869015
 CELL| Vector c [angstrom]:       0.000     0.000    71.478   |c| =    71.478000
 CELL| Angle (b,c), alpha [degree]:                                    90.000000
 CELL| Angle (a,c), beta  [degree]:                                    90.000000
 CELL| Angle (a,b), gamma [degree]:                                   119.999970
 CELL| Numerically orthorhombic:                                              NO

 CELL_REF| Volume [angstrom^3]:                                     17614.982639
 CELL_REF| Vector a [angstrom    16.869     0.000     0.000   |a| =    16.869000
 CELL_REF| Vector b [angstrom    -8.434    14.609     0.000   |b| =    16.869015
 CELL_REF| Vector c [angstrom     0.000     0.000    71.478   |c| =    71.478000
 CELL_REF| Angle (b,c), alpha [degree]:                                90.000000
 CELL_REF| Angle (a,c), beta  [degree]:                                90.000000
 CELL_REF| Angle (a,b), gamma [degree]:                               119.999970
 CELL_REF| Numerically orthorhombic:                                          NO

 *******************************************************************************
 *******************************************************************************
 **                                                                           **
 **     #####                         ##              ##                      **
 **    ##   ##            ##          ##              ##                      **
 **   ##     ##                       ##            ######                    **
 **   ##     ##  ##   ##  ##   #####  ##  ##   ####   ##    #####    #####    **
 **   ##     ##  ##   ##  ##  ##      ## ##   ##      ##   ##   ##  ##   ##   **
 **   ##  ## ##  ##   ##  ##  ##      ####     ###    ##   ######   ######    **
 **    ##  ###   ##   ##  ##  ##      ## ##      ##   ##   ##       ##        **
 **     #######   #####   ##   #####  ##  ##  ####    ##    #####   ##        **
 **           ##                                                    ##        **
 **                                                                           **
 **                                                ... make the atoms dance   **
 **                                                                           **
 **            Copyright (C) by CP2K developers group (2000-2022)             **
 **                      J. Chem. Phys. 152, 194103 (2020)                    **
 **                                                                           **
 *******************************************************************************

 DFT| Spin restricted Kohn-Sham (RKS) calculation                            RKS
 DFT| Multiplicity                                                             1
 DFT| Number of spin states                                                    1
 DFT| Charge                                                                   0
 DFT| Self-interaction correction (SIC)                                       NO
 DFT| Cutoffs: density                                              1.000000E-10
 DFT|          gradient                                             1.000000E-10
 DFT|          tau                                                  1.000000E-10
 DFT|          cutoff_smoothing_range                               0.000000E+00
 DFT| XC density smoothing                                                  NONE
 DFT| XC derivatives                                                          PW

 FUNCTIONAL| PBE:
 FUNCTIONAL| J.P.Perdew, K.Burke, M.Ernzerhof, Phys. Rev. Letter, vol. 77, n 18,
 FUNCTIONAL|  pp. 3865-3868, (1996){spin unpolarized}                           

 vdW POTENTIAL|                                                   Pair Potential
 vdW POTENTIAL|          DFT-D3 (Version 3.1)
 vdW POTENTIAL|          Potential Form: S. Grimme et al, JCP 132: 154104 (2010)
 vdW POTENTIAL|          Zero Damping
 vdW POTENTIAL|          Cutoff Radius [Bohr]:                             20.00
 vdW POTENTIAL|          s6 Scaling Factor:                               1.0000
 vdW POTENTIAL|          sr6 Scaling Factor:                              1.2170
 vdW POTENTIAL|          s8 Scaling Factor:                               0.7220
 vdW POTENTIAL|          Cutoff for CN calculation:                   0.1000E-05

 QS| Method:                                                                 GPW
 QS| Density plane wave grid type                        NON-SPHERICAL FULLSPACE
 QS| Number of grid levels:                                                    4
 QS| Density cutoff [a.u.]:                                                200.0
 QS| Multi grid cutoff [a.u.]: 1) grid level                               200.0
 QS|                           2) grid level                                66.7
 QS|                           3) grid level                                22.2
 QS|                           4) grid level                                 7.4
 QS| Grid level progression factor:                                          3.0
 QS| Relative density cutoff [a.u.]:                                        20.0
 QS| Interaction thresholds: eps_pgf_orb:                                3.2E-07
 QS|                         eps_filter_matrix:                          0.0E+00
 QS|                         eps_core_charge:                            1.0E-15
 QS|                         eps_rho_gspace:                             1.0E-13
 QS|                         eps_rho_rspace:                             1.0E-13
 QS|                         eps_gvg_rspace:                             3.2E-07
 QS|                         eps_ppl:                                    1.0E-02
 QS|                         eps_ppnl:                                   3.2E-09


 ATOMIC KIND INFORMATION

  1. Atomic kind: O                                     Number of atoms:     100

     Orbital Basis Set                                        DZVP-MOLOPT-SR-GTH

       Number of orbital shell sets:                                           1
       Number of orbital shells:                                               5
       Number of primitive Cartesian functions:                                5
       Number of Cartesian basis functions:                                   14
       Number of spherical basis functions:                                   13
       Norm type:                                                              2

       Normalised Cartesian orbitals:

                        Set   Shell   Orbital            Exponent    Coefficient

                          1       1    2s               10.389228       0.396646
                                                         3.849621       0.208811
                                                         1.388401      -0.301641
                                                         0.496955      -0.274061
                                                         0.162492      -0.033677

                          1       2    3s               10.389228       0.303673
                                                         3.849621       0.240943
                                                         1.388401      -0.313066
                                                         0.496955      -0.043055
                                                         0.162492       0.213991

                          1       3    3px              10.389228      -1.530415
                                                         3.849621      -1.371928
                                                         1.388401      -0.761951
                                                         0.496955      -0.253695
                                                         0.162492      -0.035541
                          1       3    3py              10.389228      -1.530415
                                                         3.849621      -1.371928
                                                         1.388401      -0.761951
                                                         0.496955      -0.253695
                                                         0.162492      -0.035541
                          1       3    3pz              10.389228      -1.530415
                                                         3.849621      -1.371928
                                                         1.388401      -0.761951
                                                         0.496955      -0.253695
                                                         0.162492      -0.035541

                          1       4    4px              10.389228      -0.565392
                                                         3.849621      -0.038231
                                                         1.388401      -0.382373
                                                         0.496955       0.179070
                                                         0.162492       0.122714
                          1       4    4py              10.389228      -0.565392
                                                         3.849621      -0.038231
                                                         1.388401      -0.382373
                                                         0.496955       0.179070
                                                         0.162492       0.122714
                          1       4    4pz              10.389228      -0.565392
                                                         3.849621      -0.038231
                                                         1.388401      -0.382373
                                                         0.496955       0.179070
                                                         0.162492       0.122714

                          1       5    4dx2             10.389228       1.867377
                                                         3.849621       0.670994
                                                         1.388401       1.353441
                                                         0.496955       0.273538
                                                         0.162492       0.006620
                          1       5    4dxy             10.389228       3.234392
                                                         3.849621       1.162195
                                                         1.388401       2.344229
                                                         0.496955       0.473781
                                                         0.162492       0.011466
                          1       5    4dxz             10.389228       3.234392
                                                         3.849621       1.162195
                                                         1.388401       2.344229
                                                         0.496955       0.473781
                                                         0.162492       0.011466
                          1       5    4dy2             10.389228       1.867377
                                                         3.849621       0.670994
                                                         1.388401       1.353441
                                                         0.496955       0.273538
                                                         0.162492       0.006620
                          1       5    4dyz             10.389228       3.234392
                                                         3.849621       1.162195
                                                         1.388401       2.344229
                                                         0.496955       0.473781
                                                         0.162492       0.011466
                          1       5    4dz2             10.389228       1.867377
                                                         3.849621       0.670994
                                                         1.388401       1.353441
                                                         0.496955       0.273538
                                                         0.162492       0.006620

       Atomic covalent radius [Angstrom]:                                  0.730

       Atomic van der Waals radius [Angstrom]:                             1.520

     GTH Potential information for                                    GTH-PBE-q6

       Description:                       Goedecker-Teter-Hutter pseudopotential
                                           Goedecker et al., PRB 54, 1703 (1996)
                                          Hartwigsen et al., PRB 58, 3641 (1998)
                                                      Krack, TCA 114, 145 (2005)

       Gaussian exponent of the core charge distribution:               8.360253
       Electronic configuration (s p d ...):                               2   4

       Parameters of the local part of the GTH pseudopotential:

                          rloc        C1          C2          C3          C4
                        0.244554  -16.667215    2.487311

       Parameters of the non-local part of the GTH pseudopotential:

                   l      r(l)      h(i,j,l)

                   0    0.220956   18.337458
                   1    0.211332

  2. Atomic kind: H                                     Number of atoms:     200

     Orbital Basis Set                                        DZVP-MOLOPT-SR-GTH

       Number of orbital shell sets:                                           1
       Number of orbital shells:                                               3
       Number of primitive Cartesian functions:                                5
       Number of Cartesian basis functions:                                    5
       Number of spherical basis functions:                                    5
       Norm type:                                                              2

       Normalised Cartesian orbitals:

                        Set   Shell   Orbital            Exponent    Coefficient

                          1       1    2s               10.068468      -0.133023
                                                         2.680223      -0.177618
                                                         0.791502      -0.258419
                                                         0.239116      -0.107525
                                                         0.082193      -0.014019

                          1       2    3s               10.068468       0.344673
                                                         2.680223       1.819821
                                                         0.791502      -0.999069
                                                         0.239116       0.017430
                                                         0.082193       0.082660

                          1       3    3px              10.068468       0.155326
                                                         2.680223       0.367157
                                                         0.791502       0.311480
                                                         0.239116       0.080105
                                                         0.082193       0.033440
                          1       3    3py              10.068468       0.155326
                                                         2.680223       0.367157
                                                         0.791502       0.311480
                                                         0.239116       0.080105
                                                         0.082193       0.033440
                          1       3    3pz              10.068468       0.155326
                                                         2.680223       0.367157
                                                         0.791502       0.311480
                                                         0.239116       0.080105
                                                         0.082193       0.033440

       Atomic covalent radius [Angstrom]:                                  0.320

       Atomic van der Waals radius [Angstrom]:                             1.090

     GTH Potential information for                                    GTH-PBE-q1

       Description:                       Goedecker-Teter-Hutter pseudopotential
                                           Goedecker et al., PRB 54, 1703 (1996)
                                          Hartwigsen et al., PRB 58, 3641 (1998)
                                                      Krack, TCA 114, 145 (2005)

       Gaussian exponent of the core charge distribution:              12.500000
       Electronic configuration (s p d ...):                                   1

       Parameters of the local part of the GTH pseudopotential:

                          rloc        C1          C2          C3          C4
                        0.200000   -4.178900    0.724463

  3. Atomic kind: Pt                                    Number of atoms:     216

     Orbital Basis Set                      DZVP-A5-Q10-323-MOL-T1-DERIVED_SET-1

       Number of orbital shell sets:                                           1
       Number of orbital shells:                                               6
       Number of primitive Cartesian functions:                                5
       Number of Cartesian basis functions:                                   23
       Number of spherical basis functions:                                   20
       Norm type:                                                              2

       Normalised Cartesian orbitals:

                        Set   Shell   Orbital            Exponent    Coefficient

                          1       1    2s                2.521825       0.177473
                                                         1.453920      -0.063399
                                                         0.614053      -0.407089
                                                         0.232656       0.262254
                                                         0.074788       0.047371

                          1       2    3s                2.521825      -0.049056
                                                         1.453920       0.044904
                                                         0.614053      -0.009756
                                                         0.232656      -0.144709
                                                         0.074788       0.144085

                          1       3    3px               2.521825      -0.317572
                                                         1.453920       0.534826
                                                         0.614053      -0.489458
                                                         0.232656       0.245631
                                                         0.074788       0.018221
                          1       3    3py               2.521825      -0.317572
                                                         1.453920       0.534826
                                                         0.614053      -0.489458
                                                         0.232656       0.245631
                                                         0.074788       0.018221
                          1       3    3pz               2.521825      -0.317572
                                                         1.453920       0.534826
                                                         0.614053      -0.489458
                                                         0.232656       0.245631
                                                         0.074788       0.018221

                          1       4    4dx2              2.521825       3.008522
                                                         1.453920      -1.224251
                                                         0.614053       0.225691
                                                         0.232656       0.125144
                                                         0.074788      -0.015348
                          1       4    4dxy              2.521825       5.210912
                                                         1.453920      -2.120465
                                                         0.614053       0.390909
                                                         0.232656       0.216756
                                                         0.074788      -0.026584
                          1       4    4dxz              2.521825       5.210912
                                                         1.453920      -2.120465
                                                         0.614053       0.390909
                                                         0.232656       0.216756
                                                         0.074788      -0.026584
                          1       4    4dy2              2.521825       3.008522
                                                         1.453920      -1.224251
                                                         0.614053       0.225691
                                                         0.232656       0.125144
                                                         0.074788      -0.015348
                          1       4    4dyz              2.521825       5.210912
                                                         1.453920      -2.120465
                                                         0.614053       0.390909
                                                         0.232656       0.216756
                                                         0.074788      -0.026584
                          1       4    4dz2              2.521825       3.008522
                                                         1.453920      -1.224251
                                                         0.614053       0.225691
                                                         0.232656       0.125144
                                                         0.074788      -0.015348

                          1       5    5dx2              2.521825       0.698026
                                                         1.453920      -1.511486
                                                         0.614053      -0.335394
                                                         0.232656      -0.025564
                                                         0.074788      -0.002699
                          1       5    5dxy              2.521825       1.209017
                                                         1.453920      -2.617970
                                                         0.614053      -0.580920
                                                         0.232656      -0.044277
                                                         0.074788      -0.004674
                          1       5    5dxz              2.521825       1.209017
                                                         1.453920      -2.617970
                                                         0.614053      -0.580920
                                                         0.232656      -0.044277
                                                         0.074788      -0.004674
                          1       5    5dy2              2.521825       0.698026
                                                         1.453920      -1.511486
                                                         0.614053      -0.335394
                                                         0.232656      -0.025564
                                                         0.074788      -0.002699
                          1       5    5dyz              2.521825       1.209017
                                                         1.453920      -2.617970
                                                         0.614053      -0.580920
                                                         0.232656      -0.044277
                                                         0.074788      -0.004674
                          1       5    5dz2              2.521825       0.698026
                                                         1.453920      -1.511486
                                                         0.614053      -0.335394
                                                         0.232656      -0.025564
                                                         0.074788      -0.002699

                          1       6    6dx2              2.521825       0.831079
                                                         1.453920      -0.709226
                                                         0.614053      -0.137351
                                                         0.232656       0.068642
                                                         0.074788       0.011745
                          1       6    6dxy              2.521825       1.439472
                                                         1.453920      -1.228415
                                                         0.614053      -0.237899
                                                         0.232656       0.118891
                                                         0.074788       0.020343
                          1       6    6dxz              2.521825       1.439472
                                                         1.453920      -1.228415
                                                         0.614053      -0.237899
                                                         0.232656       0.118891
                                                         0.074788       0.020343
                          1       6    6dy2              2.521825       0.831079
                                                         1.453920      -0.709226
                                                         0.614053      -0.137351
                                                         0.232656       0.068642
                                                         0.074788       0.011745
                          1       6    6dyz              2.521825       1.439472
                                                         1.453920      -1.228415
                                                         0.614053      -0.237899
                                                         0.232656       0.118891
                                                         0.074788       0.020343
                          1       6    6dz2              2.521825       0.831079
                                                         1.453920      -0.709226
                                                         0.614053      -0.137351
                                                         0.232656       0.068642
                                                         0.074788       0.011745

       Atomic covalent radius [Angstrom]:                                  1.300

       Atomic van der Waals radius [Angstrom]:                             1.750

     GTH Potential information for                                   GTH-PBE-q10

       Description:                       Goedecker-Teter-Hutter pseudopotential
                                           Goedecker et al., PRB 54, 1703 (1996)
                                          Hartwigsen et al., PRB 58, 3641 (1998)
                                                      Krack, TCA 114, 145 (2005)

       Gaussian exponent of the core charge distribution:               1.317676
       Electronic configuration (s p d ...):                           1   0   9

       Parameters of the local part of the GTH pseudopotential:

                          rloc        C1          C2          C3          C4
                        0.616000   11.313635

       Parameters of the non-local part of the GTH pseudopotential:

                   l      r(l)      h(i,j,l)

                   0    0.550904    4.733491   -1.784594
                                   -1.784594    2.303901
                   1    0.674138    2.534798   -1.778066
                                   -1.778066    2.103836
                   2    0.457392   -7.264011    2.558665
                                    2.558665   -2.901253


 MOLECULE KIND INFORMATION


 All atoms are their own molecule, skipping detailed information


 TOTAL NUMBERS AND MAXIMUM NUMBERS

  Total number of            - Atomic kinds:                                   3
                             - Atoms:                                        516
                             - Shell sets:                                   516
                             - Shells:                                      2396
                             - Primitive Cartesian functions:               2580
                             - Cartesian basis functions:                   7368
                             - Spherical basis functions:                   6620

  Maximum angular momentum of- Orbital basis functions:                        2
                             - Local part of the GTH pseudopotential:          2
                             - Non-local part of the GTH pseudopotential:      4


 MODULE QUICKSTEP:  ATOMIC COORDINATES IN angstrom

 Atom  Kind  Element       X           Y           Z          Z(eff)       Mass
    1   1 O    8       6.660000    3.030000   39.158002       6.0000     15.9994
    2   2 H    1       5.740000    3.210000   39.418002       1.0000      1.0079
    3   2 H    1       6.870000    3.240000   38.208001       1.0000      1.0079
    4   1 O    8      11.810001    2.790000   30.578001       6.0000     15.9994
    5   2 H    1      11.290001    2.000000   30.248001       1.0000      1.0079
    6   2 H    1      11.400002    2.900000   31.548002       1.0000      1.0079
    7   1 O    8      -3.520000    2.170000   37.208001       6.0000     15.9994
    8   2 H    1      -3.060000    2.850000   37.748000       1.0000      1.0079
    9   2 H    1      -3.450000    1.260000   37.608001       1.0000      1.0079
   10   1 O    8      -1.420000   26.410000   29.238001       6.0000     15.9994
   11   2 H    1      -1.810000   25.560001   29.638001       1.0000      1.0079
   12   2 H    1      -0.670000   26.790001   29.858001       1.0000      1.0079
   13   1 O    8       1.210000   20.250000   30.498000       6.0000     15.9994
   14   2 H    1       0.640000   19.510000   30.158001       1.0000      1.0079
   15   2 H    1       9.030001    6.370000   30.118001       1.0000      1.0079
   16   1 O    8       6.240000   10.720000   38.678001       6.0000     15.9994
   17   2 H    1       6.140000    9.750000   38.648002       1.0000      1.0079
   18   2 H    1       6.090000   10.890001   39.688001       1.0000      1.0079
   19   1 O    8      21.170002   19.540001   33.848001       6.0000     15.9994
   20   2 H    1      21.660002   20.280001   33.368001       1.0000      1.0079
   21   2 H    1      21.880001   18.860001   33.918001       1.0000      1.0079
   22   1 O    8      -7.930000   24.950001   32.148000       6.0000     15.9994
   23   2 H    1      -7.820001   24.330002   32.888001       1.0000      1.0079
   24   2 H    1      -8.240001   24.380001   31.388001       1.0000      1.0079
   25   1 O    8       3.950000   12.090001   38.008001       6.0000     15.9994
   26   2 H    1       3.550000   11.620001   37.198001       1.0000      1.0079
   27   2 H    1       4.760000   11.570001   38.218002       1.0000      1.0079
   28   1 O    8      14.550000   -6.310000   34.648000       6.0000     15.9994
   29   2 H    1      14.740001   -5.580000   34.008002       1.0000      1.0079
   30   2 H    1      32.050003   -6.280000   35.408001       1.0000      1.0079
   31   1 O    8      17.500002   -0.140000   29.248000       6.0000     15.9994
   32   2 H    1       8.180000   14.520000   29.788001       1.0000      1.0079
   33   2 H    1      17.850000    0.780000   29.278001       1.0000      1.0079
   34   1 O    8      -8.770000  -20.490000   36.518001       6.0000     15.9994
   35   2 H    1      -8.030001  -20.700001   35.908001       1.0000      1.0079
   36   2 H    1      -8.810000  -19.490002   36.578001       1.0000      1.0079
   37   1 O    8       4.480000    2.080000   29.018001       6.0000     15.9994
   38   2 H    1       4.940000    2.890000   29.278001       1.0000      1.0079
   39   2 H    1       3.460000    2.260000   29.318000       1.0000      1.0079
   40   1 O    8       1.100000   19.260002   36.748000       6.0000     15.9994
   41   2 H    1       0.830000   19.880001   37.498000       1.0000      1.0079
   42   2 H    1       1.730000   19.990002   36.408002       1.0000      1.0079
   43   1 O    8      14.450001   -4.880000   30.478001       6.0000     15.9994
   44   2 H    1      -2.330000   -4.720000   31.448001       1.0000      1.0079
   45   2 H    1      15.130001   -5.610001   30.228001       1.0000      1.0079
   46   1 O    8       7.910000   14.190001   37.448001       6.0000     15.9994
   47   2 H    1       8.530001   14.490002   38.098001       1.0000      1.0079
   48   2 H    1       8.200001   14.580001   36.628002       1.0000      1.0079
   49   1 O    8      -8.060000  -17.440001   33.488001       6.0000     15.9994
   50   2 H    1      -8.080000  -16.570000   33.948001       1.0000      1.0079
   51   2 H    1      -7.240000  -17.950001   33.858001       1.0000      1.0079
   52   1 O    8       3.400000    9.680000   29.358001       6.0000     15.9994
   53   2 H    1       4.300000    9.700001   29.798001       1.0000      1.0079
   54   2 H    1       3.050000    8.800000   29.648001       1.0000      1.0079
   55   1 O    8      22.390001   14.500000   34.678001       6.0000     15.9994
   56   2 H    1      23.350000   14.670001   34.388002       1.0000      1.0079
   57   2 H    1      22.250002   13.470001   34.628001       1.0000      1.0079
   58   1 O    8      12.290001   17.760002   39.838001       6.0000     15.9994
   59   2 H    1      12.030001   18.460001   40.528001       1.0000      1.0079
   60   2 H    1      12.340001   16.940001   40.368001       1.0000      1.0079
   61   1 O    8     -13.310001    8.430000   35.428001       6.0000     15.9994
   62   2 H    1     -13.340001    7.720000   36.128002       1.0000      1.0079
   63   2 H    1     -12.360001    8.540000   35.168001       1.0000      1.0079
   64   1 O    8      13.140000   12.910000   39.558002       6.0000     15.9994
   65   2 H    1      13.820001   13.580000   39.238002       1.0000      1.0079
   66   2 H    1      12.710000   13.290001   40.378002       1.0000      1.0079
   67   1 O    8      18.410000   -6.570000   34.738001       6.0000     15.9994
   68   2 H    1      19.200001   -6.920000   35.298002       1.0000      1.0079
   69   2 H    1      10.280000    8.830000   34.228001       1.0000      1.0079
   70   1 O    8      -4.370000   18.540001   36.868001       6.0000     15.9994
   71   2 H    1      -3.530000   18.090002   37.088001       1.0000      1.0079
   72   2 H    1      -4.430000   18.350000   35.898002       1.0000      1.0079
   73   1 O    8      -5.220000    6.440001   35.988001       6.0000     15.9994
   74   2 H    1      -4.770000    5.980001   35.218001       1.0000      1.0079
   75   2 H    1      -4.420000    6.810000   36.548002       1.0000      1.0079
   76   1 O    8       6.740000   14.870001   30.938001       6.0000     15.9994
   77   2 H    1       6.530001   15.710001   30.478001       1.0000      1.0079
   78   2 H    1       5.940001   14.310001   30.698001       1.0000      1.0079
   79   1 O    8     -11.550001   29.139999   35.598001       6.0000     15.9994
   80   2 H    1       4.950000   29.500000   34.728001       1.0000      1.0079
   81   2 H    1     -10.620001   29.550001   35.558002       1.0000      1.0079
   82   1 O    8       2.240000   17.150000   38.028001       6.0000     15.9994
   83   2 H    1       3.180000   17.040001   37.858001       1.0000      1.0079
   84   2 H    1       2.150000   18.040001   37.548002       1.0000      1.0079
   85   1 O    8       3.220000   -1.590000   29.798001       6.0000     15.9994
   86   2 H    1       2.840000   -1.170000   29.028001       1.0000      1.0079
   87   2 H    1       2.400000   -1.860000   30.328000       1.0000      1.0079
   88   1 O    8      -0.450000   15.240001   35.978001       6.0000     15.9994
   89   2 H    1       0.480000   15.060000   36.368001       1.0000      1.0079
   90   2 H    1      -0.300000   14.960001   34.988001       1.0000      1.0079
   91   1 O    8       6.750000   -4.050000   37.478002       6.0000     15.9994
   92   2 H    1       6.090000   -3.640000   36.898001       1.0000      1.0079
   93   2 H    1       6.180000   -4.390000   38.288001       1.0000      1.0079
   94   1 O    8       5.630000   37.020000   39.248000       6.0000     15.9994
   95   2 H    1       5.390000   36.830002   40.198001       1.0000      1.0079
   96   2 H    1       6.650000   36.799999   39.348001       1.0000      1.0079
   97   1 O    8       5.990000    6.000000   33.408001       6.0000     15.9994
   98   2 H    1       5.990000    6.910000   33.898001       1.0000      1.0079
   99   2 H    1       6.970000    5.800000   33.258001       1.0000      1.0079
  100   1 O    8      10.470000   17.210001   29.788001       6.0000     15.9994
  101   2 H    1      10.080000   18.120001   29.708001       1.0000      1.0079
  102   2 H    1      10.360001   17.050001   30.778001       1.0000      1.0079
  103   1 O    8      22.790001  -11.880001   30.258001       6.0000     15.9994
  104   2 H    1      14.470000    2.880000   29.278001       1.0000      1.0079
  105   2 H    1      21.809999  -12.020000   30.368001       1.0000      1.0079
  106   1 O    8      10.770000   -0.760000   32.758001       6.0000     15.9994
  107   2 H    1      11.020000   -0.110000   33.438001       1.0000      1.0079
  108   2 H    1      11.000000   -0.360000   31.908001       1.0000      1.0079
  109   1 O    8       0.960000   34.380001   29.698001       6.0000     15.9994
  110   2 H    1       0.530000   34.630001   28.898001       1.0000      1.0079
  111   2 H    1      17.080000   34.260002   30.398001       1.0000      1.0079
  112   1 O    8       1.820000    9.290000   38.148000       6.0000     15.9994
  113   2 H    1       1.590000   10.240001   38.208001       1.0000      1.0079
  114   2 H    1       2.570000    9.150001   37.618001       1.0000      1.0079
  115   1 O    8       1.850000   -5.670000   29.648001       6.0000     15.9994
  116   2 H    1       2.190000   -6.410000   29.048002       1.0000      1.0079
  117   2 H    1       2.370000   -5.890000   30.448001       1.0000      1.0079
  118   1 O    8      -3.380000   10.950001   29.818001       6.0000     15.9994
  119   2 H    1      -3.440000   10.280000   29.168001       1.0000      1.0079
  120   2 H    1      -4.160000   11.540001   29.628001       1.0000      1.0079
  121   1 O    8     -15.530001   20.300003   39.498002       6.0000     15.9994
  122   2 H    1     -14.710001   20.510002   40.028001       1.0000      1.0079
  123   2 H    1     -16.170002   19.760000   40.118001       1.0000      1.0079
  124   1 O    8       1.780000   11.820001   29.098001       6.0000     15.9994
  125   2 H    1       2.420000   11.000000   29.168001       1.0000      1.0079
  126   2 H    1       0.930000   11.390000   29.398001       1.0000      1.0079
  127   1 O    8       4.000000   -4.080000   36.408002       6.0000     15.9994
  128   2 H    1       4.520000   -3.520000   35.728001       1.0000      1.0079
  129   2 H    1      12.020000   11.160001   37.038001       1.0000      1.0079
  130   1 O    8       3.770000    6.620001   37.608001       6.0000     15.9994
  131   2 H    1       4.490000    6.980000   38.138002       1.0000      1.0079
  132   2 H    1       3.980000    5.660000   37.318002       1.0000      1.0079
  133   1 O    8      -8.290001   12.620001   39.418002       6.0000     15.9994
  134   2 H    1      -9.030001   12.400000   38.848001       1.0000      1.0079
  135   2 H    1      -8.110001   11.680001   39.838001       1.0000      1.0079
  136   1 O    8       2.420000    4.480000   34.068001       6.0000     15.9994
  137   2 H    1     -14.400001    5.390000   33.678001       1.0000      1.0079
  138   2 H    1       1.600000    4.490000   34.598001       1.0000      1.0079
  139   1 O    8       8.600000    5.400000   33.248000       6.0000     15.9994
  140   2 H    1       9.110001    6.180000   33.488001       1.0000      1.0079
  141   2 H    1       8.920000    5.260000   32.268001       1.0000      1.0079
  142   1 O    8     -14.100000    7.010000   30.538001       6.0000     15.9994
  143   2 H    1     -14.180001    6.830000   31.508001       1.0000      1.0079
  144   2 H    1     -14.680000    6.290000   30.128001       1.0000      1.0079
  145   1 O    8       8.640000   -2.810000   35.208001       6.0000     15.9994
  146   2 H    1       9.150001   -2.530000   34.428001       1.0000      1.0079
  147   2 H    1       7.700000   -2.570000   34.948001       1.0000      1.0079
  148   1 O    8       6.440001   10.420000   33.138002       6.0000     15.9994
  149   2 H    1       5.770000   11.140001   33.218001       1.0000      1.0079
  150   2 H    1       7.300000   10.960001   33.248000       1.0000      1.0079
  151   1 O    8      -2.440000   17.880001   33.868001       6.0000     15.9994
  152   2 H    1      -2.000000   18.000000   34.738001       1.0000      1.0079
  153   2 H    1      -2.690000   18.810001   33.568001       1.0000      1.0079
  154   1 O    8      17.950001   26.310001   30.848001       6.0000     15.9994
  155   2 H    1      17.780001   26.220001   31.788000       1.0000      1.0079
  156   2 H    1      18.090002   25.450001   30.388001       1.0000      1.0079
  157   1 O    8      10.990001   10.350000   34.028001       6.0000     15.9994
  158   2 H    1      11.480000   10.300001   34.918001       1.0000      1.0079
  159   2 H    1      11.690001   10.280000   33.278001       1.0000      1.0079
  160   1 O    8       8.490001   18.590000   37.268001       6.0000     15.9994
  161   2 H    1       8.940001   17.770000   37.538001       1.0000      1.0079
  162   2 H    1       7.660000   18.700001   37.768001       1.0000      1.0079
  163   1 O    8       2.870000   10.970000   35.808001       6.0000     15.9994
  164   2 H    1       3.010000    9.980000   35.718002       1.0000      1.0079
  165   2 H    1       1.900000   11.110001   35.858001       1.0000      1.0079
  166   1 O    8      -0.210000   14.530001   33.278001       6.0000     15.9994
  167   2 H    1       0.790000   14.270000   33.108001       1.0000      1.0079
  168   2 H    1      -0.360000   15.490000   33.138002       1.0000      1.0079
  169   1 O    8      -4.460000    9.500000   32.058001       6.0000     15.9994
  170   2 H    1      -4.090000   10.170001   31.408000       1.0000      1.0079
  171   2 H    1      -3.920000    8.680000   32.258001       1.0000      1.0079
  172   1 O    8       2.350000   17.710001   32.968001       6.0000     15.9994
  173   2 H    1       2.530000   16.930000   33.618001       1.0000      1.0079
  174   2 H    1       2.900000   18.420002   33.438001       1.0000      1.0079
  175   1 O    8      -2.530000    7.210000   30.028001       6.0000     15.9994
  176   2 H    1      -1.690000    7.660000   29.868000       1.0000      1.0079
  177   2 H    1      -3.150000    7.140000   29.308001       1.0000      1.0079
  178   1 O    8      -0.190000   17.900002   29.798001       6.0000     15.9994
  179   2 H    1      -0.150000   17.440001   30.688001       1.0000      1.0079
  180   2 H    1       0.260000   17.410000   29.108001       1.0000      1.0079
  181   1 O    8      29.720001   26.560001   33.858001       6.0000     15.9994
  182   2 H    1      29.160002   26.900002   33.128002       1.0000      1.0079
  183   2 H    1      29.110003   26.100002   34.578000       1.0000      1.0079
  184   1 O    8      18.980001    2.400000   32.308001       6.0000     15.9994
  185   2 H    1      19.030001    3.310000   32.788000       1.0000      1.0079
  186   2 H    1      19.630001    1.800000   32.718001       1.0000      1.0079
  187   1 O    8     -12.150001   13.280001   30.258001       6.0000     15.9994
  188   2 H    1     -11.730001   12.680000   29.598001       1.0000      1.0079
  189   2 H    1     -12.960000   13.650000   29.898001       1.0000      1.0079
  190   1 O    8      26.760002   45.720001   38.808002       6.0000     15.9994
  191   2 H    1      27.400002   46.420002   39.088003       1.0000      1.0079
  192   2 H    1      27.370003   45.250000   38.248000       1.0000      1.0079
  193   1 O    8      22.760000    4.090000   29.348001       6.0000     15.9994
  194   2 H    1      23.720001    3.950000   29.568001       1.0000      1.0079
  195   2 H    1      22.410002    4.750000   30.018001       1.0000      1.0079
  196   1 O    8      -5.680000   12.440001   37.908002       6.0000     15.9994
  197   2 H    1      -5.200000   12.680000   38.678001       1.0000      1.0079
  198   2 H    1      -6.560000   12.260000   38.248000       1.0000      1.0079
  199   1 O    8      -0.360000   26.090002   36.388001       6.0000     15.9994
  200   2 H    1      -0.490000   27.050001   36.698001       1.0000      1.0079
  201   2 H    1       8.340000   11.440001   35.478001       1.0000      1.0079
  202   1 O    8      -7.030000   -8.680000   38.998000       6.0000     15.9994
  203   2 H    1      -6.380000   -8.100000   38.518001       1.0000      1.0079
  204   2 H    1      -7.360001   -9.370001   38.398002       1.0000      1.0079
  205   1 O    8       5.380001   -0.480000   31.168001       6.0000     15.9994
  206   2 H    1       4.680000   -0.950000   30.618001       1.0000      1.0079
  207   2 H    1       5.860000   -1.280000   31.578001       1.0000      1.0079
  208   1 O    8     -17.720001   15.110001   29.888001       6.0000     15.9994
  209   2 H    1     -18.620001   14.940001   30.318001       1.0000      1.0079
  210   2 H    1     -17.920000   15.470000   28.968001       1.0000      1.0079
  211   1 O    8      -3.090000    7.260000   32.868001       6.0000     15.9994
  212   2 H    1      -2.840000    7.090001   31.888002       1.0000      1.0079
  213   2 H    1      14.690001    7.320001   33.318002       1.0000      1.0079
  214   1 O    8       7.440000   -2.530000   29.178001       6.0000     15.9994
  215   2 H    1       7.380000   -1.560000   29.488001       1.0000      1.0079
  216   2 H    1       6.560000   -2.890000   29.508001       1.0000      1.0079
  217   1 O    8      14.300001   11.970000   34.958001       6.0000     15.9994
  218   2 H    1      14.430000   12.020000   33.968001       1.0000      1.0079
  219   2 H    1      14.080001   12.970000   35.158000       1.0000      1.0079
  220   1 O    8      -9.950001   26.740000   32.488001       6.0000     15.9994
  221   2 H    1      -9.210001   26.030003   32.388001       1.0000      1.0079
  222   2 H    1      -9.480001   27.570002   32.568001       1.0000      1.0079
  223   1 O    8      12.870001   15.810001   33.188001       6.0000     15.9994
  224   2 H    1      13.430000   16.570000   33.488001       1.0000      1.0079
  225   2 H    1      13.220000   15.420000   32.398002       1.0000      1.0079
  226   1 O    8      22.050001    6.100000   30.938001       6.0000     15.9994
  227   2 H    1      21.170002    6.460000   30.838001       1.0000      1.0079
  228   2 H    1      22.330000    6.000000   31.898001       1.0000      1.0079
  229   1 O    8      17.920000   12.000000   38.188001       6.0000     15.9994
  230   2 H    1      16.990002   11.760000   37.998000       1.0000      1.0079
  231   2 H    1      17.880001   12.300000   39.128002       1.0000      1.0079
  232   1 O    8      -2.860000    6.250000   39.808002       6.0000     15.9994
  233   2 H    1      -2.030000    6.760001   40.238002       1.0000      1.0079
  234   2 H    1      -3.150000    6.890000   39.128002       1.0000      1.0079
  235   1 O    8      10.340000   -0.140000   36.878002       6.0000     15.9994
  236   2 H    1      10.460000    0.320000   37.728002       1.0000      1.0079
  237   2 H    1       9.960001   -1.070000   37.128002       1.0000      1.0079
  238   1 O    8     -11.760000   22.220001   37.358001       6.0000     15.9994
  239   2 H    1     -10.730000   22.200001   37.088001       1.0000      1.0079
  240   2 H    1     -12.060001   23.170002   37.148002       1.0000      1.0079
  241   1 O    8       8.300000    7.780001   39.098001       6.0000     15.9994
  242   2 H    1       8.390000    7.970000   38.198001       1.0000      1.0079
  243   2 H    1       8.890000    7.040000   39.368001       1.0000      1.0079
  244   1 O    8      14.810000    4.030000   38.928001       6.0000     15.9994
  245   2 H    1      14.840001    3.370000   39.658000       1.0000      1.0079
  246   2 H    1      14.410001    4.930000   39.188001       1.0000      1.0079
  247   1 O    8       0.680000   29.010000   34.798002       6.0000     15.9994
  248   2 H    1       1.620000   29.050003   35.148001       1.0000      1.0079
  249   2 H    1       0.490000   29.690001   34.118001       1.0000      1.0079
  250   1 O    8      24.750002   16.090000   33.018001       6.0000     15.9994
  251   2 H    1      24.280003   15.580001   32.358001       1.0000      1.0079
  252   2 H    1      25.570002   16.550001   32.598001       1.0000      1.0079
  253   1 O    8       6.890000    0.440000   38.768001       6.0000     15.9994
  254   2 H    1       6.760001    1.390000   39.068000       1.0000      1.0079
  255   2 H    1       7.290000    0.520000   37.908002       1.0000      1.0079
  256   1 O    8      -5.270000   30.230003   34.658001       6.0000     15.9994
  257   2 H    1      -5.630000   29.940002   35.568000       1.0000      1.0079
  258   2 H    1      -4.300000   30.100002   34.508001       1.0000      1.0079
  259   1 O    8       8.110001    2.640000   32.368001       6.0000     15.9994
  260   2 H    1       7.340000    3.000000   32.838001       1.0000      1.0079
  261   2 H    1       8.900001    3.030000   32.788000       1.0000      1.0079
  262   1 O    8     -11.610001   14.290000   38.628002       6.0000     15.9994
  263   2 H    1     -10.760001   14.300001   38.128002       1.0000      1.0079
  264   2 H    1     -12.080001   13.460001   38.338001       1.0000      1.0079
  265   1 O    8     -17.250000    4.970000   34.788001       6.0000     15.9994
  266   2 H    1     -17.930000    4.350000   34.418001       1.0000      1.0079
  267   2 H    1     -17.030001    4.500000   35.678001       1.0000      1.0079
  268   1 O    8      -8.900001   22.010002   34.038000       6.0000     15.9994
  269   2 H    1      -8.930000   20.990002   34.328001       1.0000      1.0079
  270   2 H    1      -8.990001   22.440002   34.938001       1.0000      1.0079
  271   1 O    8       2.880000    0.380000   36.728001       6.0000     15.9994
  272   2 H    1       2.910000   -0.490000   37.148002       1.0000      1.0079
  273   2 H    1       3.750000    0.700000   36.458001       1.0000      1.0079
  274   1 O    8      20.200001   19.560001   29.078000       6.0000     15.9994
  275   2 H    1      19.430000   20.050001   29.618001       1.0000      1.0079
  276   2 H    1      20.210001   18.600002   29.508001       1.0000      1.0079
  277   1 O    8      16.260000    7.880001   36.958001       6.0000     15.9994
  278   2 H    1      17.020000    7.580000   37.458001       1.0000      1.0079
  279   2 H    1      16.330002    8.860001   37.038001       1.0000      1.0079
  280   1 O    8       2.400000    7.080000   33.268002       6.0000     15.9994
  281   2 H    1       1.400000    7.190001   33.448000       1.0000      1.0079
  282   2 H    1       2.760000    7.710000   33.888001       1.0000      1.0079
  283   1 O    8      15.550001   34.299999   31.088001       6.0000     15.9994
  284   2 H    1      15.000001   34.930004   30.508001       1.0000      1.0079
  285   2 H    1      15.070001   33.450005   31.098001       1.0000      1.0079
  286   1 O    8      -1.110000   17.840000   36.658001       6.0000     15.9994
  287   2 H    1      16.180000   16.960001   36.378002       1.0000      1.0079
  288   2 H    1      16.410000   18.490002   36.358001       1.0000      1.0079
  289   1 O    8       6.230001   17.660000   34.408001       6.0000     15.9994
  290   2 H    1       6.110000   17.240002   35.268001       1.0000      1.0079
  291   2 H    1       6.810000   17.080000   33.888001       1.0000      1.0079
  292   1 O    8       2.120000   15.280001   30.078001       6.0000     15.9994
  293   2 H    1       1.110000   15.210000   30.198000       1.0000      1.0079
  294   2 H    1       2.320000   15.070001   29.078000       1.0000      1.0079
  295   1 O    8      16.820000    8.600000   30.078001       6.0000     15.9994
  296   2 H    1      16.920000    8.730000   29.058001       1.0000      1.0079
  297   2 H    1      17.670000    8.260000   30.458001       1.0000      1.0079
  298   1 O    8      -9.530001    7.460001   29.978001       6.0000     15.9994
  299   2 H    1     -10.350000    7.020000   30.248001       1.0000      1.0079
  300   2 H    1       7.320001    7.650001   28.958001       1.0000      1.0079
  301   3 Pt  78       1.540000    0.760000   15.190002      10.0000    195.0840
  302   3 Pt  78       4.340000    0.850000   15.260002      10.0000    195.0840
  303   3 Pt  78       7.090001    0.660000   15.170002      10.0000    195.0840
  304   3 Pt  78      10.030001    0.630000   15.380001      10.0000    195.0840
  305   3 Pt  78      12.830001    0.760000   15.270004      10.0000    195.0840
  306   3 Pt  78      15.620001    0.720000   15.000000      10.0000    195.0840
  307   3 Pt  78       3.000000    3.200000   15.220001      10.0000    195.0840
  308   3 Pt  78       5.790000    3.150000   15.260002      10.0000    195.0840
  309   3 Pt  78       8.710001    2.990000   15.340004      10.0000    195.0840
  310   3 Pt  78      11.470001    3.200000   15.350002      10.0000    195.0840
  311   3 Pt  78      14.380001    3.130000   15.180004      10.0000    195.0840
  312   3 Pt  78       0.220000    3.110000   15.020000      10.0000    195.0840
  313   3 Pt  78       4.450000    5.600000   15.220001      10.0000    195.0840
  314   3 Pt  78       7.320001    5.520000   15.170002      10.0000    195.0840
  315   3 Pt  78      10.110001    5.570001   15.090000      10.0000    195.0840
  316   3 Pt  78      12.890000    5.540000   15.210003      10.0000    195.0840
  317   3 Pt  78      -1.070000    5.540000   15.220001      10.0000    195.0840
  318   3 Pt  78       1.710000    5.600000   15.140003      10.0000    195.0840
  319   3 Pt  78       5.950000    8.000000   15.290001      10.0000    195.0840
  320   3 Pt  78       8.750001    7.970000   15.130001      10.0000    195.0840
  321   3 Pt  78      11.550001    8.020000   15.210003      10.0000    195.0840
  322   3 Pt  78      -2.540000    8.050001   15.250004      10.0000    195.0840
  323   3 Pt  78       0.200000    8.030001   15.150002      10.0000    195.0840
  324   3 Pt  78       3.040000    8.060000   15.180004      10.0000    195.0840
  325   3 Pt  78       7.260000   10.400001   15.220001      10.0000    195.0840
  326   3 Pt  78      10.110001   10.450001   15.200001      10.0000    195.0840
  327   3 Pt  78      -3.940000   10.330000   15.180004      10.0000    195.0840
  328   3 Pt  78      -1.170000   10.540000   15.220001      10.0000    195.0840
  329   3 Pt  78       1.660000   10.530001   15.210003      10.0000    195.0840
  330   3 Pt  78       4.460000   10.440001   15.299999      10.0000    195.0840
  331   3 Pt  78       8.490001   12.860001   15.220001      10.0000    195.0840
  332   3 Pt  78      -5.380001   12.940001   15.280003      10.0000    195.0840
  333   3 Pt  78      -2.620000   12.990000   15.150002      10.0000    195.0840
  334   3 Pt  78       0.170000   12.920000   15.290001      10.0000    195.0840
  335   3 Pt  78       3.070000   12.910000   15.130001      10.0000    195.0840
  336   3 Pt  78       5.730000   12.930001   15.110004      10.0000    195.0840
  337   3 Pt  78       0.130000    1.510000   17.390003      10.0000    195.0840
  338   3 Pt  78       2.960000    1.590000   17.550003      10.0000    195.0840
  339   3 Pt  78       5.830000    1.530000   17.560001      10.0000    195.0840
  340   3 Pt  78       8.570001    1.410000   17.700001      10.0000    195.0840
  341   3 Pt  78      11.450001    1.500000   17.670002      10.0000    195.0840
  342   3 Pt  78      14.200001    1.530000   17.510002      10.0000    195.0840
  343   3 Pt  78       1.660000    3.940000   17.640003      10.0000    195.0840
  344   3 Pt  78       4.400000    4.110000   17.480003      10.0000    195.0840
  345   3 Pt  78       7.180000    3.950000   17.540005      10.0000    195.0840
  346   3 Pt  78      10.050000    3.850000   17.670002      10.0000    195.0840
  347   3 Pt  78      12.910000    3.970000   17.560001      10.0000    195.0840
  348   3 Pt  78      -1.190000    3.920000   17.610004      10.0000    195.0840
  349   3 Pt  78       3.010000    6.440001   17.500000      10.0000    195.0840
  350   3 Pt  78       5.950000    6.420000   17.530003      10.0000    195.0840
  351   3 Pt  78       8.700001    6.280000   17.490002      10.0000    195.0840
  352   3 Pt  78      11.480000    6.440001   17.500000      10.0000    195.0840
  353   3 Pt  78      -2.420000    6.430000   17.480003      10.0000    195.0840
  354   3 Pt  78       0.250000    6.440001   17.540005      10.0000    195.0840
  355   3 Pt  78       4.500000    8.850000   17.610004      10.0000    195.0840
  356   3 Pt  78       7.280001    8.870000   17.660000      10.0000    195.0840
  357   3 Pt  78      10.060000    8.830000   17.510002      10.0000    195.0840
  358   3 Pt  78      -3.960000    8.830000   17.560001      10.0000    195.0840
  359   3 Pt  78      -1.170000    8.840000   17.520000      10.0000    195.0840
  360   3 Pt  78       1.660000    8.770000   17.510002      10.0000    195.0840
  361   3 Pt  78       5.830000   11.380000   17.580002      10.0000    195.0840
  362   3 Pt  78       8.560000   11.220001   17.510002      10.0000    195.0840
  363   3 Pt  78      -5.360000   11.200000   17.440002      10.0000    195.0840
  364   3 Pt  78      -2.550000   11.250000   17.480003      10.0000    195.0840
  365   3 Pt  78       0.310000   11.200000   17.560001      10.0000    195.0840
  366   3 Pt  78       3.080000   11.130000   17.460003      10.0000    195.0840
  367   3 Pt  78       7.190001   13.740001   17.610004      10.0000    195.0840
  368   3 Pt  78      -6.830000   13.680000   17.440002      10.0000    195.0840
  369   3 Pt  78      -4.000000   13.690001   17.540005      10.0000    195.0840
  370   3 Pt  78      -1.270000   13.590001   17.460003      10.0000    195.0840
  371   3 Pt  78       1.700000   13.590001   17.570000      10.0000    195.0840
  372   3 Pt  78       4.350000   13.580000   17.540005      10.0000    195.0840
  373   3 Pt  78      -8.290001   14.520000   19.780003      10.0000    195.0840
  374   3 Pt  78      -5.450000   14.470000   19.780003      10.0000    195.0840
  375   3 Pt  78      -2.620000   14.470000   19.840000      10.0000    195.0840
  376   3 Pt  78       0.170000   14.400001   19.850002      10.0000    195.0840
  377   3 Pt  78       3.020000   14.450001   19.900002      10.0000    195.0840
  378   3 Pt  78       5.810000   14.510001   19.930004      10.0000    195.0840
  379   3 Pt  78       1.560000    2.320000   19.800003      10.0000    195.0840
  380   3 Pt  78       4.470000    2.390000   19.870003      10.0000    195.0840
  381   3 Pt  78       7.260000    2.280000   19.950001      10.0000    195.0840
  382   3 Pt  78      10.030001    2.240000   19.980000      10.0000    195.0840
  383   3 Pt  78      12.880001    2.310000   19.980000      10.0000    195.0840
  384   3 Pt  78      -1.200000    2.300000   19.840000      10.0000    195.0840
  385   3 Pt  78       3.080000    4.830000   19.830002      10.0000    195.0840
  386   3 Pt  78       5.850000    4.800000   19.790005      10.0000    195.0840
  387   3 Pt  78       8.750001    4.800000   19.950001      10.0000    195.0840
  388   3 Pt  78      11.360001    4.740000   19.880001      10.0000    195.0840
  389   3 Pt  78      -2.620000    4.760000   19.810001      10.0000    195.0840
  390   3 Pt  78       0.240000    4.800000   19.870003      10.0000    195.0840
  391   3 Pt  78       4.450000    7.310000   19.860004      10.0000    195.0840
  392   3 Pt  78       7.210000    7.220001   19.880001      10.0000    195.0840
  393   3 Pt  78       9.980000    7.260000   19.810001      10.0000    195.0840
  394   3 Pt  78      -4.110000    7.180000   19.840000      10.0000    195.0840
  395   3 Pt  78      -1.170000    7.210000   19.890003      10.0000    195.0840
  396   3 Pt  78       1.630000    7.210000   19.880001      10.0000    195.0840
  397   3 Pt  78       5.800000    9.690001   19.870003      10.0000    195.0840
  398   3 Pt  78       8.570001    9.650001   19.820004      10.0000    195.0840
  399   3 Pt  78      -5.390000    9.710001   19.770000      10.0000    195.0840
  400   3 Pt  78      -2.640000    9.580001   19.770000      10.0000    195.0840
  401   3 Pt  78       0.290000    9.520000   19.850002      10.0000    195.0840
  402   3 Pt  78       3.000000    9.690001   19.940002      10.0000    195.0840
  403   3 Pt  78       7.220001   12.120000   19.900002      10.0000    195.0840
  404   3 Pt  78      -6.850000   12.100000   19.670002      10.0000    195.0840
  405   3 Pt  78      -4.050000   12.030001   19.820004      10.0000    195.0840
  406   3 Pt  78      -1.240000   12.020000   19.880001      10.0000    195.0840
  407   3 Pt  78       1.630000   12.060001   19.950001      10.0000    195.0840
  408   3 Pt  78       4.320000   12.140001   19.910000      10.0000    195.0840
  409   3 Pt  78       1.630000    0.710000   22.028001      10.0000    195.0840
  410   3 Pt  78       4.480000    0.570000   22.058001      10.0000    195.0840
  411   3 Pt  78       7.170000    0.670000   22.138001      10.0000    195.0840
  412   3 Pt  78       9.940001    0.640000   22.268000      10.0000    195.0840
  413   3 Pt  78      12.850000    0.630000   22.278001      10.0000    195.0840
  414   3 Pt  78      15.600000    0.680000   22.188001      10.0000    195.0840
  415   3 Pt  78       3.050000    3.060000   22.108001      10.0000    195.0840
  416   3 Pt  78       5.780000    3.160000   22.208001      10.0000    195.0840
  417   3 Pt  78       8.570001    3.140000   22.178001      10.0000    195.0840
  418   3 Pt  78      11.360001    3.060000   22.218000      10.0000    195.0840
  419   3 Pt  78      14.220000    3.100000   22.228000      10.0000    195.0840
  420   3 Pt  78       0.170000    3.060000   22.208001      10.0000    195.0840
  421   3 Pt  78       4.360000    5.600000   22.118000      10.0000    195.0840
  422   3 Pt  78       7.120000    5.690000   22.138001      10.0000    195.0840
  423   3 Pt  78       9.870001    5.620000   22.268000      10.0000    195.0840
  424   3 Pt  78      12.700001    5.470000   22.118000      10.0000    195.0840
  425   3 Pt  78      -1.190000    5.480001   22.098000      10.0000    195.0840
  426   3 Pt  78       1.650000    5.480001   22.088000      10.0000    195.0840
  427   3 Pt  78       5.780000    8.070001   22.168001      10.0000    195.0840
  428   3 Pt  78       8.590000    8.140000   22.168001      10.0000    195.0840
  429   3 Pt  78      11.410000    8.030001   22.198001      10.0000    195.0840
  430   3 Pt  78      -2.690000    7.880001   22.158001      10.0000    195.0840
  431   3 Pt  78       0.200000    7.890000   22.158001      10.0000    195.0840
  432   3 Pt  78       3.030000    8.030001   22.198001      10.0000    195.0840
  433   3 Pt  78       7.150001   10.550001   22.098000      10.0000    195.0840
  434   3 Pt  78      10.030001   10.460000   21.978000      10.0000    195.0840
  435   3 Pt  78      -4.020000   10.410000   22.098000      10.0000    195.0840
  436   3 Pt  78      -1.240000   10.340000   22.188001      10.0000    195.0840
  437   3 Pt  78       1.450000   10.520000   22.228000      10.0000    195.0840
  438   3 Pt  78       4.380000   10.460000   22.158001      10.0000    195.0840
  439   3 Pt  78       8.530001   12.900001   22.148000      10.0000    195.0840
  440   3 Pt  78      -5.500000   12.820001   21.938001      10.0000    195.0840
  441   3 Pt  78      -2.620000   12.720001   22.188001      10.0000    195.0840
  442   3 Pt  78       0.070000   12.790001   22.228000      10.0000    195.0840
  443   3 Pt  78       2.910000   12.820001   22.338000      10.0000    195.0840
  444   3 Pt  78       5.750000   12.910000   22.318000      10.0000    195.0840
  445   3 Pt  78       0.150000    1.360000   24.518001      10.0000    195.0840
  446   3 Pt  78       3.070000    1.400000   24.358001      10.0000    195.0840
  447   3 Pt  78       5.750000    1.470000   24.558000      10.0000    195.0840
  448   3 Pt  78       8.520000    1.560000   24.448001      10.0000    195.0840
  449   3 Pt  78      11.420001    1.530000   24.608001      10.0000    195.0840
  450   3 Pt  78      14.230001    1.350000   24.518001      10.0000    195.0840
  451   3 Pt  78       1.570000    3.920000   24.458001      10.0000    195.0840
  452   3 Pt  78       4.350000    3.840000   24.488000      10.0000    195.0840
  453   3 Pt  78       7.160000    3.970000   24.488000      10.0000    195.0840
  454   3 Pt  78      10.030001    4.010000   24.628001      10.0000    195.0840
  455   3 Pt  78      12.760000    3.890000   24.498001      10.0000    195.0840
  456   3 Pt  78      -1.250000    3.860000   24.528001      10.0000    195.0840
  457   3 Pt  78       2.840000    6.310000   24.348001      10.0000    195.0840
  458   3 Pt  78       5.660000    6.350000   24.398001      10.0000    195.0840
  459   3 Pt  78       8.510000    6.480000   24.588001      10.0000    195.0840
  460   3 Pt  78      11.310000    6.380000   24.458001      10.0000    195.0840
  461   3 Pt  78      -2.750000    6.360001   24.398001      10.0000    195.0840
  462   3 Pt  78       0.070000    6.340000   24.368001      10.0000    195.0840
  463   3 Pt  78       4.290000    8.710001   24.518001      10.0000    195.0840
  464   3 Pt  78       7.130001    8.870000   24.488000      10.0000    195.0840
  465   3 Pt  78       9.940001    8.890000   24.478001      10.0000    195.0840
  466   3 Pt  78      -4.110000    8.890000   24.448001      10.0000    195.0840
  467   3 Pt  78      -1.440000    8.810000   24.478001      10.0000    195.0840
  468   3 Pt  78       1.460000    8.780001   24.428001      10.0000    195.0840
  469   3 Pt  78       5.710001   11.180000   24.568001      10.0000    195.0840
  470   3 Pt  78       8.550000   11.250000   24.438001      10.0000    195.0840
  471   3 Pt  78      -5.510000   11.240001   24.358001      10.0000    195.0840
  472   3 Pt  78      -2.640000   11.220001   24.568001      10.0000    195.0840
  473   3 Pt  78       0.200000   11.230000   24.588001      10.0000    195.0840
  474   3 Pt  78       2.960000   11.170001   24.638001      10.0000    195.0840
  475   3 Pt  78       7.230001   13.550000   24.608001      10.0000    195.0840
  476   3 Pt  78      -6.820001   13.660001   24.398001      10.0000    195.0840
  477   3 Pt  78      -4.040000   13.650000   24.368001      10.0000    195.0840
  478   3 Pt  78      -1.300000   13.810000   24.478001      10.0000    195.0840
  479   3 Pt  78       1.520000   13.750001   24.538000      10.0000    195.0840
  480   3 Pt  78       4.320000   13.520001   24.628001      10.0000    195.0840
  481   3 Pt  78      -8.330001   14.540001   26.918001      10.0000    195.0840
  482   3 Pt  78      -5.480001   14.390000   26.698001      10.0000    195.0840
  483   3 Pt  78      -2.740000   14.420000   26.898001      10.0000    195.0840
  484   3 Pt  78       0.100000   14.540001   26.818001      10.0000    195.0840
  485   3 Pt  78       2.930000   14.430000   27.028001      10.0000    195.0840
  486   3 Pt  78       5.760000   14.370001   26.948001      10.0000    195.0840
  487   3 Pt  78       1.670000    2.220000   26.668001      10.0000    195.0840
  488   3 Pt  78       4.450000    2.290000   26.838001      10.0000    195.0840
  489   3 Pt  78       7.330000    2.430000   26.858001      10.0000    195.0840
  490   3 Pt  78      10.070001    2.240000   26.988001      10.0000    195.0840
  491   3 Pt  78      12.760000    2.240000   26.918001      10.0000    195.0840
  492   3 Pt  78      -1.290000    2.240000   26.968001      10.0000    195.0840
  493   3 Pt  78       2.940000    4.610000   26.718001      10.0000    195.0840
  494   3 Pt  78       5.780000    4.720000   26.808001      10.0000    195.0840
  495   3 Pt  78       8.480000    4.880000   26.978001      10.0000    195.0840
  496   3 Pt  78      11.260000    4.760000   26.918001      10.0000    195.0840
  497   3 Pt  78      -2.760000    4.640000   26.878001      10.0000    195.0840
  498   3 Pt  78       0.230000    4.560000   26.728000      10.0000    195.0840
  499   3 Pt  78       4.280000    7.040000   26.878001      10.0000    195.0840
  500   3 Pt  78       6.970000    7.260000   26.808001      10.0000    195.0840
  501   3 Pt  78       9.910001    7.190001   26.748001      10.0000    195.0840
  502   3 Pt  78      -4.250000    7.170000   26.868000      10.0000    195.0840
  503   3 Pt  78      -1.300000    7.200000   26.788001      10.0000    195.0840
  504   3 Pt  78       1.470000    7.060000   26.728000      10.0000    195.0840
  505   3 Pt  78       5.630000    9.590000   26.788001      10.0000    195.0840
[...]
 flops    13 x    32 x    13           5853532672       0.0%    100.0%      0.0%
 flops    13 x    13 x   124           6016551424       0.0%    100.0%      0.0%
 flops     5 x     5 x    96           6171648000       0.0%    100.0%      0.0%
 flops    13 x     5 x    96           7822663680       0.0%    100.0%      0.0%
 flops     5 x    13 x    96           7851417600       0.0%    100.0%      0.0%
 flops    13 x    32 x    20           8286786560       0.0%    100.0%      0.0%
 flops    20 x    32 x    13           8286786560       0.0%    100.0%      0.0%
 flops    13 x    20 x   124           8414382080       0.0%    100.0%      0.0%
 flops    20 x    13 x   124           8430888960       0.0%    100.0%      0.0%
 flops     5 x    32 x    20           8895654400       0.0%    100.0%      0.0%
 flops    20 x    32 x     5           8895654400       0.0%    100.0%      0.0%
 flops     5 x    20 x   124           9041484800       0.0%    100.0%      0.0%
 flops    20 x     5 x   124           9041484800       0.0%    100.0%      0.0%
 flops    13 x    13 x    96           9315950592       0.0%    100.0%      0.0%
 flops    13 x    20 x    96          13028720640       0.0%    100.0%      0.0%
 flops    20 x    13 x    96          13054279680       0.0%    100.0%      0.0%
 flops     5 x    20 x    96          13999718400       0.0%    100.0%      0.0%
 flops    20 x     5 x    96          13999718400       0.0%    100.0%      0.0%
 flops     5 x     5 x   128          53487616000       0.0%    100.0%      0.0%
 flops    13 x     5 x   128          67796418560       0.0%    100.0%      0.0%
 flops     5 x    13 x   128          68045619200       0.0%    100.0%      0.0%
 flops    20 x    32 x    20          72858009600       0.0%    100.0%      0.0%
 flops    20 x    20 x   124          74395238400       0.0%    100.0%      0.0%
 flops    13 x    13 x   128          80738238464       0.0%    100.0%      0.0%
 flops    13 x    20 x   128         112915578880       0.0%    100.0%      0.0%
 flops    20 x    13 x   128         113137090560       0.0%    100.0%      0.0%
 flops    20 x    20 x    96         115192627200       0.0%    100.0%      0.0%
 flops     5 x    20 x   128         121330892800       0.0%    100.0%      0.0%
 flops    20 x     5 x   128         121330892800       0.0%    100.0%      0.0%
 flops    20 x    20 x   128         998336102400       0.0%    100.0%      0.0%
 flops inhomo. stacks                           0       0.0%      0.0%      0.0%
 flops total                         2.195763E+12       0.0%    100.0%      0.0%
 flops max/rank                     21.126157E+09       0.0%    100.0%      0.0%
 matmuls inhomo. stacks                         0       0.0%      0.0%      0.0%
 matmuls total                           62668704       0.0%    100.0%      0.0%
 number of processed stacks                608774       0.0%    100.0%      0.0%
 average stack size                                     0.0     102.9       0.0
 marketing flops                     4.494632E+12
 -------------------------------------------------------------------------------
 # multiplications                             33
 max memory usage/rank               1.611969E+09
 # max total images/rank                        2
 # max 3D layers                                1
 # MPI messages exchanged                  122496
 MPI messages size (bytes):
  total size                        78.457815E+09
  min size                         276.480000E+03
  max size                           2.360240E+06
  average size                     640.492875E+03
 MPI breakdown and total messages size (bytes):
             size <=      128                   0                        0
       128 < size <=     8192                   0                        0
      8192 < size <=    32768                   0                        0
     32768 < size <=   131072                   0                        0
    131072 < size <=  4194304              122496              78457812960
   4194304 < size <= 16777216                   0                        0
  16777216 < size                               0                        0
 -------------------------------------------------------------------------------

 *** WARNING in dbcsr_mm.F:290 :: Using a non-square number of MPI ranks ***
 *** might lead to poor performance. Used ranks: 128 Suggested: 121 256  ***

 -------------------------------------------------------------------------------
 -                                                                             -
 -                      DBCSR MESSAGE PASSING PERFORMANCE                      -
 -                                                                             -
 -------------------------------------------------------------------------------
 ROUTINE             CALLS      AVE VOLUME [Bytes]
 MP_Bcast               46                     12.
 MP_Allreduce          334                     14.
 MP_Alltoall           917                 557558.
 MP_ISend             2112                 303059.
 MP_IRecv             2112                 296670.
 -------------------------------------------------------------------------------

 -------------------------------------------------------------------------------
 -                                                                             -
 -                                DBM STATISTICS                               -
 -                                                                             -
 -------------------------------------------------------------------------------
    M  x    N  x    K                                          COUNT     PERCENT
 -------------------------------------------------------------------------------

 -------------------------------------------------------------------------------
 -                                                                             -
 -                                GRID STATISTICS                              -
 -                                                                             -
 -------------------------------------------------------------------------------
 LP    KERNEL             BACKEND                              COUNT     PERCENT
 4     collocate general  REF                               12545235      22.20%
 4     integrate general  REF                               12418884      21.98%
 3     collocate general  REF                                8628354      15.27%
 3     integrate general  REF                                8574060      15.17%
 2     collocate general  REF                                6945240      12.29%
 2     integrate general  REF                                6721200      11.90%
 5     integrate general  REF                                 404685       0.72%
 0     collocate general  REF                                 132096       0.23%
 0     integrate general  REF                                  66048       0.12%
 1     integrate general  REF                                  66048       0.12%
 -------------------------------------------------------------------------------

 MEMORY| Estimated peak process memory [MiB]                                1786

 -------------------------------------------------------------------------------
 ----                             MULTIGRID INFO                            ----
 -------------------------------------------------------------------------------
 count for grid        1:        1095458          cutoff [a.u.]          200.00
 count for grid        2:        1090308          cutoff [a.u.]           66.67
 count for grid        3:         714128          cutoff [a.u.]           22.22
 count for grid        4:         552527          cutoff [a.u.]            7.41
 total gridlevel count  :        3452421

 -------------------------------------------------------------------------------
 -                                                                             -
 -                         MESSAGE PASSING PERFORMANCE                         -
 -                                                                             -
 -------------------------------------------------------------------------------

 ROUTINE             CALLS      AVE VOLUME [Bytes]
 MP_Group                4
 MP_Bcast             2185                 308992.
 MP_Allreduce         3224                  33645.
 MP_Sync                68
 MP_Alltoall          1882               17709874.
 MP_SendRecv           508                   6132.
 MP_ISendRecv        15748                  61740.
 MP_Wait             28030
 MP_comm_split          32
 MP_ISend            11580                 256255.
 MP_IRecv            11580                 256255.
 MP_Recv               122                1694720.
 MP_Write_All            3                1797408.
 -------------------------------------------------------------------------------


 -------------------------------------------------------------------------------
 -                                                                             -
 -                           R E F E R E N C E S                               -
 -                                                                             -
 -------------------------------------------------------------------------------
 
 CP2K version 2022.1, the CP2K developers group (2022).
 CP2K is freely available from https://www.cp2k.org/ .

 Kuehne,Thomas D.; Iannuzzi,Marcella; Del Ben,Mauro;
 Rybkin,Vladimir V.; Seewald,Patrick; Stein,Frederick; Laino,Teodoro;
 Khaliullin,Rustam Z.; Schuett,Ole; Schiffmann,Florian; Golze,Dorothea;
 Wilhelm,Jan; Chulkov,Sergey; Bani-Hashemian,Mohammad Hossein;
 Weber,Valery; Borstnik,Urban; Taillefumier,Mathieu;
 Jakobovits,Alice Shoshana; Lazzaro,Alfio; Pabst,Hans; Mueller,Tiziano;
 Schade,Robert; Guidon,Manuel; Andermatt,Samuel; Holmberg,Nico;
 Schenter,Gregory K.; Hehn,Anna; Bussy,Augustin; Belleflamme,Fabian;
 Tabacchi,Gloria; Gloess,Andreas; Lass,Michael; Bethune,Iain;
 Mundy,Christopher J.; Plessl,Christian; Watkins,Matt;
 VandeVondele,Joost; Krack,Matthias; Hutter,Juerg. 
 The Journal of Chemical Physics, 152 (19), (2020). 
 CP2K: An electronic structure and molecular dynamics software package -
 Quickstep: Efficient and accurate electronic structure calculations.
 https://doi.org/10.1063/5.0007045

 Goerigk, Lars; Hansen, Andreas; Bauer, Christoph; Ehrlich, Stephan;
 Najibi, Asim; Grimme, Stefan. , 19 (48), (2017). 
 A look at the density functional theory zoo with the advanced GMTKN55 database
 for general main group thermochemistry, kinetics and noncovalent interactions.
 https://doi.org/10.1039/C7CP04913G

 Bani-Hashemian, MH; Bruck, S; Luisier, M; VandeVondele, J. 
 JOURNAL OF CHEMICAL PHYSICS, 144 (4), 044113 (2016). 
 A generalized Poisson solver for first-principles device simulations.
 https://doi.org/10.1063/1.4940796

 Schuett, Ole; Messmer, Peter; Hutter, Juerg; VandeVondele, Joost. 
 Electronic Structure Calculations on Graphics Processing Units, John
 Wiley & Sons, Ltd, 173-190 (2016). 
 GPU-Accelerated Sparse Matrix-Matrix Multiplication for
 Linear Scaling Density Functional Theory.
 https://doi.org/10.1002/9781118670712.ch8

 Heinecke, A; Henry, G; Hutchinson, M; Pabst, H. 
 Proceedings of Intl. Supercomputing Conference, 981-991 (2016). 
 LIBXSMM: Accelerating Small Matrix Multiplications
 by Runtime Code Generation.
 https://doi.org/10.1109/SC.2016.83

 Borstnik, U; VandeVondele, J; Weber, V; Hutter, J. 
 PARALLEL COMPUTING, 40 (5-6), 47-58 (2014). 
 Sparse matrix multiplication: The distributed block-compressed sparse
 row library.
 https://doi.org/10.1016/j.parco.2014.03.012

 Hutter, J; Iannuzzi, M; Schiffmann, F; VandeVondele, J. 
 WIREs Comput Mol Sci., 4 (1), 15-25 (2014). 
 CP2K: atomistic simulations of condensed matter systems.
 https://doi.org/10.1002/wcms.1159

 Marek, A; Blum, V; Johanni, R; Havu, V; Lang, B; Auckenthaler, T;
 Heinecke, A; Bungartz, H; Lederer, H. 
 Journal of Physics: Condensed Matter, 26 (21), (2014). 
 The ELPA library: scalable parallel eigenvalue solutions for
 electronic structure
 theory and computational science.
 https://doi.org/10.1088/0953-8984/26/21/213201

 Grimme, S; Ehrlich, S; Goerigk, L. 
 JOURNAL OF COMPUTATIONAL CHEMISTRY, 32, 1456 (2011). 
 Effect of the damping function in dispersion corrected density functional theory.
 https://doi.org/10.1002/jcc.21759

 Grimme, S; Antony, J; Ehrlich, S; Krieg, H. 
 JOURNAL OF CHEMICAL PHYSICS, 132 (15), 154104 (2010). 
 A consistent and accurate ab initio parametrization of density
 functional dispersion correction (DFT-D) for the 94 elements H-Pu.
 https://doi.org/10.1063/1.3382344

 VandeVondele, J; Hutter, J. 
 JOURNAL OF CHEMICAL PHYSICS, 127 (11), 114105 (2007). 
 Gaussian basis sets for accurate calculations on molecular systems in
 gas and condensed phases.
 https://doi.org/10.1063/1.2770708

 Krack, M. 
 THEORETICAL CHEMISTRY ACCOUNTS, 114 (1-3), 145-152 (2005). 
 Pseudopotentials for H to Kr optimized for gradient-corrected
 exchange-correlation functionals.
 https://doi.org/10.1007/s00214-005-0655-y

 VandeVondele, J; Krack, M; Mohamed, F; Parrinello, M; Chassaing, T;
 Hutter, J. COMPUTER PHYSICS COMMUNICATIONS, 167 (2), 103-128 (2005). 
 QUICKSTEP: Fast and accurate density functional calculations using a
 mixed Gaussian and plane waves approach.
 https://doi.org/10.1016/j.cpc.2004.12.014

 Frigo, M; Johnson, SG. 
 PROCEEDINGS OF THE IEEE, 93 (2), 216-231 (2005). 
 The design and implementation of FFTW3.
 https://doi.org/10.1109/JPROC.2004.840301

 Hartwigsen, C; Goedecker, S; Hutter, J. 
 PHYSICAL REVIEW B, 58 (7), 3641-3662 (1998). 
 Relativistic separable dual-space Gaussian pseudopotentials from H to Rn.
 https://doi.org/10.1103/PhysRevB.58.3641

 Lippert, G; Hutter, J; Parrinello, M. 
 MOLECULAR PHYSICS, 92 (3), 477-487 (1997). 
 A hybrid Gaussian and plane wave density functional scheme.
 https://doi.org/10.1080/002689797170220

 Perdew, JP; Burke, K; Ernzerhof, M. 
 PHYSICAL REVIEW LETTERS, 77 (18), 3865-3868 (1996). 
 Generalized gradient approximation made simple.
 https://doi.org/10.1103/PhysRevLett.77.3865

 Goedecker, S; Teter, M; Hutter, J. 
 PHYSICAL REVIEW B, 54 (3), 1703-1710 (1996). 
 Separable dual-space Gaussian pseudopotentials.
 https://doi.org/10.1103/PhysRevB.54.1703


 -------------------------------------------------------------------------------
 -                                                                             -
 -                                T I M I N G                                  -
 -                                                                             -
 -------------------------------------------------------------------------------
 SUBROUTINE                       CALLS  ASD         SELF TIME        TOTAL TIME
                                MAXIMUM       AVERAGE  MAXIMUM  AVERAGE  MAXIMUM
 CP2K                                 1  1.0    0.653    0.667  222.871  222.873
 qs_forces                            1  2.0    0.002    0.002  221.848  221.849
 qs_energies                          1  3.0    0.000    0.001  215.689  215.694
 scf_env_do_scf                       1  4.0    0.000    0.000  206.587  206.726
 scf_env_do_scf_inner_loop           30  5.0    0.002    0.005  206.584  206.722
 rebuild_ks_matrix                   31  6.9    0.000    0.000  112.271  112.304
 qs_ks_build_kohn_sham_matrix        31  7.9    0.005    0.006  112.271  112.304
 qs_ks_update_qs_env                 30  6.0    0.000    0.000  108.231  108.265
 pw_transfer                       1616 12.2    0.118    0.148   70.300   71.657
 fft_wrap_pw1pw2                   1616 13.2    0.015    0.019   70.182   71.527
 fft_wrap_pw1pw2_200               1430 14.4    4.760    5.601   69.281   70.598
 pw_poisson_solve                    31  8.9    0.003    0.007   60.230   60.253
 qs_scf_new_mos                      30  6.0    0.002    0.004   58.881   59.011
 fft3d_ps                          1616 15.2   20.360   22.678   56.405   58.489
 implicit_poisson_solver_mixed_      31  9.9    1.279    1.562   56.923   56.975
 eigensolver                         30  7.0    0.002    0.004   55.544   55.700
 derive_fft                         186 12.1    0.011    0.013   39.903   40.020
 cp_fm_diag_elpa                     32  8.1    0.000    0.001   39.528   39.634
 cp_fm_redistribute_end              32  9.1    5.250   39.158    5.313   39.194
 cp_fm_diag_elpa_base                32  9.0   33.367   38.300   33.691   38.642
 mp_alltoall_z22v                  1616 17.2   30.142   37.153   30.142   37.153
 qs_rho_update_rho_low               31  6.0    0.000    0.000   35.536   35.545
 calculate_rho_elec                  31  7.0    0.060    0.077   35.536   35.545
 sum_up_and_integrate                31  8.9    0.168    0.206   34.901   34.944
 integrate_v_rspace                  31  9.9    0.001    0.002   34.733   34.813
 apply_P_operator                   155 11.1    0.828    0.952   34.102   34.205
 grid_collocate_task_list            31  8.0   22.398   28.079   22.398   28.079
 grid_integrate_task_list            31 10.9   20.857   25.480   20.857   25.480
 x_to_yz                            931 16.4    3.972    5.070   22.883   23.663
 rs_pw_transfer                     252 10.4    0.003    0.003   16.381   19.148
 cp_fm_triangular_multiply           90  8.0   17.550   17.773   17.550   17.773
 yz_to_x                            499 16.4    1.369    1.571   12.483   16.992
 qs_vxc_create                       31  8.9    0.001    0.001   15.300   15.487
 xc_vxc_pw_create                    31  9.9    0.266    0.328   15.299   15.486
 density_rs2pw                       31  8.0    0.002    0.006   12.386   15.330
 xc_pw_derive                       186 11.9    0.003    0.003   10.782   11.942
 rs_pw_transfer_RS2PW_200            33  9.9    2.146    2.417    7.818   10.579
 mp_waitany                       11580 12.3    7.690   10.450    7.690   10.450
 apply_poisson_operator_fft          31 10.9    0.000    0.000    9.996   10.161
 apply_inv_laplace_operator_fft      95 11.6    0.241    0.272    9.224    9.566
 potential_pw2rs                     31 10.9    0.009    0.010    8.836    8.903
 mp_alltoall_d11v                   456 10.3    6.005    8.699    6.005    8.699
 xc_pw_divergence                    31 10.9    0.001    0.002    7.298    8.175
 xc_rho_set_and_dset_create          31 10.9    0.155    0.187    7.453    7.898
 rs_gather_matrices                  31 10.9    0.036    0.047    5.027    7.745
 ps_implicit_compute_error_fft       62 10.9    0.391    0.478    6.703    7.174
 ps_implicit_compute_veps            31 10.9    0.180    0.214    6.811    6.924
 pw_scatter_p                      1024 15.3    5.736    6.604    5.736    6.604
 scf_post_calculation_gpw             1  4.0    0.000    0.001    5.716    5.722
 write_available_results              1  5.0    0.000    0.000    5.716    5.721
 rs_pw_transfer_PW2RS_200            33 12.6    2.503    2.649    5.207    5.325
 pw_derive                          744 13.0    4.734    5.002    4.734    5.002
 gspace_mixing                       29  6.0    0.056    0.071    4.872    4.876
 -------------------------------------------------------------------------------

 The number of warnings for this run is : 1
 
 -------------------------------------------------------------------------------
  **** **** ******  **  PROGRAM ENDED AT                 2023-12-02 06:26:58.253
 ***** ** ***  *** **   PROGRAM RAN ON                                     cu067
 **    ****   ******    PROGRAM RAN BY                                     jxzhu
 ***** **    ** ** **   PROGRAM PROCESS ID                                  1738
  **** **  *******  **  PROGRAM STOPPED IN /public/home/jxzhu/tmp_calc/f2b4280ef
                                           f65bc5a671f1de0f75a29b7810d65fa/calc/
                                           000900.000/search_lo.000002
