 DBCSR| CPU Multiplication driver                                           XSMM
 DBCSR| Multrec recursion limit                                              512
 DBCSR| Multiplication stack size                                           1000
 DBCSR| Maximum elements for images                                    UNLIMITED
 DBCSR| Multiplicative factor virtual images                                   1
 DBCSR| Use multiplication densification                                       T
 DBCSR| Multiplication size stacks                                             3
 DBCSR| Use memory pool for CPU allocation                                     F
 DBCSR| Number of 3D layers                                               SINGLE
 DBCSR| Use MPI memory allocation                                              F
 DBCSR| Use RMA algorithm                                                      F
 DBCSR| Use Communication thread                                               T
 DBCSR| Communication thread load                                             87
 DBCSR| MPI: My node id                                                        0
 DBCSR| MPI: Number of nodes                                                  64
 DBCSR| OMP: Current number of threads                                         1
 DBCSR| OMP: Max number of threads                                             1
 DBCSR| Split modifier for TAS multiplication algorithm                  1.0E+00


  **** **** ******  **  PROGRAM STARTED AT               2023-11-26 20:45:27.401
 ***** ** ***  *** **   PROGRAM STARTED ON                                 cu054
 **    ****   ******    PROGRAM STARTED BY                                 jxzhu
 ***** **    ** ** **   PROGRAM PROCESS ID                                 14926
  **** **  *******  **  PROGRAM STARTED IN /public/home/jxzhu/tmp_calc/af2075565
                                           805657d94fa4669dad6f4b174b0a4fb/calc/
                                           002300.000/pbc

 CP2K| version string:                                       CP2K version 2022.1
 CP2K| source code revision number:                                  git:2caeb6f
 CP2K| cp2kflags: omp libint fftw3 libxc elpa parallel mpi3 scalapack cosma xsmm
 CP2K|             plumed2 spglib mkl sirius libvori libbqb
 CP2K| is freely available from                            https://www.cp2k.org/
 CP2K| Program compiled at                           Mon Jul 3 17:37:06 CST 2023
 CP2K| Program compiled on                                                 mu003
 CP2K| Program compiled for                                                local
 CP2K| Data directory path                             /public/home/jxzhu/basis/
 CP2K| Input file name                                                 input.inp
 
 GLOBAL| Force Environment number                                              1
 GLOBAL| Basis set file name                                        BASIS_MOLOPT
 GLOBAL| Potential file name                                      GTH_POTENTIALS
 GLOBAL| MM Potential file name                                     MM_POTENTIAL
 GLOBAL| Coordinate file name                                          coord.xyz
 GLOBAL| Method name                                                        CP2K
 GLOBAL| Project name                                                       cp2k
 GLOBAL| Run type                                                   ENERGY_FORCE
 GLOBAL| FFT library                                                       FFTW3
 GLOBAL| Diagonalization library                                            ELPA
 GLOBAL| Minimum number of eigenvectors for ELPA usage                        16
 GLOBAL| Orthonormality check for eigenvectors                          DISABLED
 GLOBAL| Matrix multiplication library                                     COSMA
 GLOBAL| All-to-all communication in single precision                          F
 GLOBAL| FFTs using library dependent lengths                                  F
 GLOBAL| Grid backend                                                       AUTO
 GLOBAL| Global print level                                               MEDIUM
 GLOBAL| MPI I/O enabled                                                       T
 GLOBAL| Total number of message passing processes                            64
 GLOBAL| Number of threads for this process                                    1
 GLOBAL| This output is from process                                           0
 GLOBAL| Stack size for threads created by OpenMP (OMP_STACKSIZE)        default
 GLOBAL| CPU model name                 Intel(R) Xeon(R) Gold 6338 CPU @ 2.00GHz
 GLOBAL| CPUID                                                              1003

 MEMORY| system memory details [Kb]
 MEMORY|                        rank 0           min           max       average
 MEMORY| MemTotal            263619172     263619172     263619172     263619172
 MEMORY| MemFree             211772532     211772532     211772532     211772532
 MEMORY| Buffers                  3320          3320          3320          3320
 MEMORY| Cached                3083988       3083988       3083988       3083988
 MEMORY| Slab                  1659520       1659520       1659520       1659520
 MEMORY| SReclaimable           238044        238044        238044        238044
 MEMORY| MemLikelyFree       215097884     215097884     215097884     215097884


 *** Fundamental physical constants (SI units) ***

 *** Literature: B. J. Mohr and B. N. Taylor,
 ***             CODATA recommended values of the fundamental physical
 ***             constants: 2006, Web Version 5.1
 ***             http://physics.nist.gov/constants

 Speed of light in vacuum [m/s]                             2.99792458000000E+08
 Magnetic constant or permeability of vacuum [N/A**2]       1.25663706143592E-06
 Electric constant or permittivity of vacuum [F/m]          8.85418781762039E-12
 Planck constant (h) [J*s]                                  6.62606896000000E-34
 Planck constant (h-bar) [J*s]                              1.05457162825177E-34
 Elementary charge [C]                                      1.60217648700000E-19
 Electron mass [kg]                                         9.10938215000000E-31
 Electron g factor [ ]                                     -2.00231930436220E+00
 Proton mass [kg]                                           1.67262163700000E-27
 Fine-structure constant                                    7.29735253760000E-03
 Rydberg constant [1/m]                                     1.09737315685270E+07
 Avogadro constant [1/mol]                                  6.02214179000000E+23
 Boltzmann constant [J/K]                                   1.38065040000000E-23
 Atomic mass unit [kg]                                      1.66053878200000E-27
 Bohr radius [m]                                            5.29177208590000E-11

 *** Conversion factors ***

 [u] -> [a.u.]                                              1.82288848426455E+03
 [Angstrom] -> [Bohr] = [a.u.]                              1.88972613288564E+00
 [a.u.] = [Bohr] -> [Angstrom]                              5.29177208590000E-01
 [a.u.] -> [s]                                              2.41888432650478E-17
 [a.u.] -> [fs]                                             2.41888432650478E-02
 [a.u.] -> [J]                                              4.35974393937059E-18
 [a.u.] -> [N]                                              8.23872205491840E-08
 [a.u.] -> [K]                                              3.15774647902944E+05
 [a.u.] -> [kJ/mol]                                         2.62549961709828E+03
 [a.u.] -> [kcal/mol]                                       6.27509468713739E+02
 [a.u.] -> [Pa]                                             2.94210107994716E+13
 [a.u.] -> [bar]                                            2.94210107994716E+08
 [a.u.] -> [atm]                                            2.90362800883016E+08
 [a.u.] -> [eV]                                             2.72113838565563E+01
 [a.u.] -> [Hz]                                             6.57968392072181E+15
 [a.u.] -> [1/cm] (wave numbers)                            2.19474631370540E+05
 [a.u./Bohr**2] -> [1/cm]                                   5.14048714338585E+03
 

 CELL_TOP| Volume [angstrom^3]:                                     10221.806009
 CELL_TOP| Vector a [angstrom    16.869     0.000     0.000   |a| =    16.869000
 CELL_TOP| Vector b [angstrom    -8.434    14.609     0.000   |b| =    16.869015
 CELL_TOP| Vector c [angstrom     0.000     0.000    41.478   |c| =    41.478000
 CELL_TOP| Angle (b,c), alpha [degree]:                                90.000000
 CELL_TOP| Angle (a,c), beta  [degree]:                                90.000000
 CELL_TOP| Angle (a,b), gamma [degree]:                               119.999970
 CELL_TOP| Numerically orthorhombic:                                          NO
 
 GENERATE|  Preliminary Number of Bonds generated:                             0
 GENERATE|  Achieved consistency in connectivity generation.

 CELL| Volume [angstrom^3]:                                         10221.806009
 CELL| Vector a [angstrom]:      16.869     0.000     0.000   |a| =    16.869000
 CELL| Vector b [angstrom]:      -8.434    14.609     0.000   |b| =    16.869015
 CELL| Vector c [angstrom]:       0.000     0.000    41.478   |c| =    41.478000
 CELL| Angle (b,c), alpha [degree]:                                    90.000000
 CELL| Angle (a,c), beta  [degree]:                                    90.000000
 CELL| Angle (a,b), gamma [degree]:                                   119.999970
 CELL| Numerically orthorhombic:                                              NO

 CELL_REF| Volume [angstrom^3]:                                     10221.806009
 CELL_REF| Vector a [angstrom    16.869     0.000     0.000   |a| =    16.869000
 CELL_REF| Vector b [angstrom    -8.434    14.609     0.000   |b| =    16.869015
 CELL_REF| Vector c [angstrom     0.000     0.000    41.478   |c| =    41.478000
 CELL_REF| Angle (b,c), alpha [degree]:                                90.000000
 CELL_REF| Angle (a,c), beta  [degree]:                                90.000000
 CELL_REF| Angle (a,b), gamma [degree]:                               119.999970
 CELL_REF| Numerically orthorhombic:                                          NO

 *******************************************************************************
 *******************************************************************************
 **                                                                           **
 **     #####                         ##              ##                      **
 **    ##   ##            ##          ##              ##                      **
 **   ##     ##                       ##            ######                    **
 **   ##     ##  ##   ##  ##   #####  ##  ##   ####   ##    #####    #####    **
 **   ##     ##  ##   ##  ##  ##      ## ##   ##      ##   ##   ##  ##   ##   **
 **   ##  ## ##  ##   ##  ##  ##      ####     ###    ##   ######   ######    **
 **    ##  ###   ##   ##  ##  ##      ## ##      ##   ##   ##       ##        **
 **     #######   #####   ##   #####  ##  ##  ####    ##    #####   ##        **
 **           ##                                                    ##        **
 **                                                                           **
 **                                                ... make the atoms dance   **
 **                                                                           **
 **            Copyright (C) by CP2K developers group (2000-2022)             **
 **                      J. Chem. Phys. 152, 194103 (2020)                    **
 **                                                                           **
 *******************************************************************************

 DFT| Spin restricted Kohn-Sham (RKS) calculation                            RKS
 DFT| Multiplicity                                                             1
 DFT| Number of spin states                                                    1
 DFT| Charge                                                                   0
 DFT| Self-interaction correction (SIC)                                       NO
 DFT| Cutoffs: density                                              1.000000E-10
 DFT|          gradient                                             1.000000E-10
 DFT|          tau                                                  1.000000E-10
 DFT|          cutoff_smoothing_range                               0.000000E+00
 DFT| XC density smoothing                                                  NONE
 DFT| XC derivatives                                                          PW

 FUNCTIONAL| PBE:
 FUNCTIONAL| J.P.Perdew, K.Burke, M.Ernzerhof, Phys. Rev. Letter, vol. 77, n 18,
 FUNCTIONAL|  pp. 3865-3868, (1996){spin unpolarized}                           

 vdW POTENTIAL|                                                   Pair Potential
 vdW POTENTIAL|          DFT-D3 (Version 3.1)
 vdW POTENTIAL|          Potential Form: S. Grimme et al, JCP 132: 154104 (2010)
 vdW POTENTIAL|          Zero Damping
 vdW POTENTIAL|          Cutoff Radius [Bohr]:                             20.00
 vdW POTENTIAL|          s6 Scaling Factor:                               1.0000
 vdW POTENTIAL|          sr6 Scaling Factor:                              1.2170
 vdW POTENTIAL|          s8 Scaling Factor:                               0.7220
 vdW POTENTIAL|          Cutoff for CN calculation:                   0.1000E-05

 QS| Method:                                                                 GPW
 QS| Density plane wave grid type                        NON-SPHERICAL FULLSPACE
 QS| Number of grid levels:                                                    4
 QS| Density cutoff [a.u.]:                                                200.0
 QS| Multi grid cutoff [a.u.]: 1) grid level                               200.0
 QS|                           2) grid level                                66.7
 QS|                           3) grid level                                22.2
 QS|                           4) grid level                                 7.4
 QS| Grid level progression factor:                                          3.0
 QS| Relative density cutoff [a.u.]:                                        20.0
 QS| Interaction thresholds: eps_pgf_orb:                                3.2E-07
 QS|                         eps_filter_matrix:                          0.0E+00
 QS|                         eps_core_charge:                            1.0E-15
 QS|                         eps_rho_gspace:                             1.0E-13
 QS|                         eps_rho_rspace:                             1.0E-13
 QS|                         eps_gvg_rspace:                             3.2E-07
 QS|                         eps_ppl:                                    1.0E-02
 QS|                         eps_ppnl:                                   3.2E-09


 ATOMIC KIND INFORMATION

  1. Atomic kind: O                                     Number of atoms:     230

     Orbital Basis Set                                        DZVP-MOLOPT-SR-GTH

       Number of orbital shell sets:                                           1
       Number of orbital shells:                                               5
       Number of primitive Cartesian functions:                                5
       Number of Cartesian basis functions:                                   14
       Number of spherical basis functions:                                   13
       Norm type:                                                              2

       Normalised Cartesian orbitals:

                        Set   Shell   Orbital            Exponent    Coefficient

                          1       1    2s               10.389228       0.396646
                                                         3.849621       0.208811
                                                         1.388401      -0.301641
                                                         0.496955      -0.274061
                                                         0.162492      -0.033677

                          1       2    3s               10.389228       0.303673
                                                         3.849621       0.240943
                                                         1.388401      -0.313066
                                                         0.496955      -0.043055
                                                         0.162492       0.213991

                          1       3    3px              10.389228      -1.530415
                                                         3.849621      -1.371928
                                                         1.388401      -0.761951
                                                         0.496955      -0.253695
                                                         0.162492      -0.035541
                          1       3    3py              10.389228      -1.530415
                                                         3.849621      -1.371928
                                                         1.388401      -0.761951
                                                         0.496955      -0.253695
                                                         0.162492      -0.035541
                          1       3    3pz              10.389228      -1.530415
                                                         3.849621      -1.371928
                                                         1.388401      -0.761951
                                                         0.496955      -0.253695
                                                         0.162492      -0.035541

                          1       4    4px              10.389228      -0.565392
                                                         3.849621      -0.038231
                                                         1.388401      -0.382373
                                                         0.496955       0.179070
                                                         0.162492       0.122714
                          1       4    4py              10.389228      -0.565392
                                                         3.849621      -0.038231
                                                         1.388401      -0.382373
                                                         0.496955       0.179070
                                                         0.162492       0.122714
                          1       4    4pz              10.389228      -0.565392
                                                         3.849621      -0.038231
                                                         1.388401      -0.382373
                                                         0.496955       0.179070
                                                         0.162492       0.122714

                          1       5    4dx2             10.389228       1.867377
                                                         3.849621       0.670994
                                                         1.388401       1.353441
                                                         0.496955       0.273538
                                                         0.162492       0.006620
                          1       5    4dxy             10.389228       3.234392
                                                         3.849621       1.162195
                                                         1.388401       2.344229
                                                         0.496955       0.473781
                                                         0.162492       0.011466
                          1       5    4dxz             10.389228       3.234392
                                                         3.849621       1.162195
                                                         1.388401       2.344229
                                                         0.496955       0.473781
                                                         0.162492       0.011466
                          1       5    4dy2             10.389228       1.867377
                                                         3.849621       0.670994
                                                         1.388401       1.353441
                                                         0.496955       0.273538
                                                         0.162492       0.006620
                          1       5    4dyz             10.389228       3.234392
                                                         3.849621       1.162195
                                                         1.388401       2.344229
                                                         0.496955       0.473781
                                                         0.162492       0.011466
                          1       5    4dz2             10.389228       1.867377
                                                         3.849621       0.670994
                                                         1.388401       1.353441
                                                         0.496955       0.273538
                                                         0.162492       0.006620

       Atomic covalent radius [Angstrom]:                                  0.730

       Atomic van der Waals radius [Angstrom]:                             1.520

     GTH Potential information for                                    GTH-PBE-q6

       Description:                       Goedecker-Teter-Hutter pseudopotential
                                           Goedecker et al., PRB 54, 1703 (1996)
                                          Hartwigsen et al., PRB 58, 3641 (1998)
                                                      Krack, TCA 114, 145 (2005)

       Gaussian exponent of the core charge distribution:               8.360253
       Electronic configuration (s p d ...):                               2   4

       Parameters of the local part of the GTH pseudopotential:

                          rloc        C1          C2          C3          C4
                        0.244554  -16.667215    2.487311

       Parameters of the non-local part of the GTH pseudopotential:

                   l      r(l)      h(i,j,l)

                   0    0.220956   18.337458
                   1    0.211332

  2. Atomic kind: H                                     Number of atoms:     460

     Orbital Basis Set                                        DZVP-MOLOPT-SR-GTH

       Number of orbital shell sets:                                           1
       Number of orbital shells:                                               3
       Number of primitive Cartesian functions:                                5
       Number of Cartesian basis functions:                                    5
       Number of spherical basis functions:                                    5
       Norm type:                                                              2

       Normalised Cartesian orbitals:

                        Set   Shell   Orbital            Exponent    Coefficient

                          1       1    2s               10.068468      -0.133023
                                                         2.680223      -0.177618
                                                         0.791502      -0.258419
                                                         0.239116      -0.107525
                                                         0.082193      -0.014019

                          1       2    3s               10.068468       0.344673
                                                         2.680223       1.819821
                                                         0.791502      -0.999069
                                                         0.239116       0.017430
                                                         0.082193       0.082660

                          1       3    3px              10.068468       0.155326
                                                         2.680223       0.367157
                                                         0.791502       0.311480
                                                         0.239116       0.080105
                                                         0.082193       0.033440
                          1       3    3py              10.068468       0.155326
                                                         2.680223       0.367157
                                                         0.791502       0.311480
                                                         0.239116       0.080105
                                                         0.082193       0.033440
                          1       3    3pz              10.068468       0.155326
                                                         2.680223       0.367157
                                                         0.791502       0.311480
                                                         0.239116       0.080105
                                                         0.082193       0.033440

       Atomic covalent radius [Angstrom]:                                  0.320

       Atomic van der Waals radius [Angstrom]:                             1.090

     GTH Potential information for                                    GTH-PBE-q1

       Description:                       Goedecker-Teter-Hutter pseudopotential
                                           Goedecker et al., PRB 54, 1703 (1996)
                                          Hartwigsen et al., PRB 58, 3641 (1998)
                                                      Krack, TCA 114, 145 (2005)

       Gaussian exponent of the core charge distribution:              12.500000
       Electronic configuration (s p d ...):                                   1

       Parameters of the local part of the GTH pseudopotential:

                          rloc        C1          C2          C3          C4
                        0.200000   -4.178900    0.724463

  3. Atomic kind: Pt                                    Number of atoms:     216

     Orbital Basis Set                      DZVP-A5-Q10-323-MOL-T1-DERIVED_SET-1

       Number of orbital shell sets:                                           1
       Number of orbital shells:                                               6
       Number of primitive Cartesian functions:                                5
       Number of Cartesian basis functions:                                   23
       Number of spherical basis functions:                                   20
       Norm type:                                                              2

       Normalised Cartesian orbitals:

                        Set   Shell   Orbital            Exponent    Coefficient

                          1       1    2s                2.521825       0.177473
                                                         1.453920      -0.063399
                                                         0.614053      -0.407089
                                                         0.232656       0.262254
                                                         0.074788       0.047371

                          1       2    3s                2.521825      -0.049056
                                                         1.453920       0.044904
                                                         0.614053      -0.009756
                                                         0.232656      -0.144709
                                                         0.074788       0.144085

                          1       3    3px               2.521825      -0.317572
                                                         1.453920       0.534826
                                                         0.614053      -0.489458
                                                         0.232656       0.245631
                                                         0.074788       0.018221
                          1       3    3py               2.521825      -0.317572
                                                         1.453920       0.534826
                                                         0.614053      -0.489458
                                                         0.232656       0.245631
                                                         0.074788       0.018221
                          1       3    3pz               2.521825      -0.317572
                                                         1.453920       0.534826
                                                         0.614053      -0.489458
                                                         0.232656       0.245631
                                                         0.074788       0.018221

                          1       4    4dx2              2.521825       3.008522
                                                         1.453920      -1.224251
                                                         0.614053       0.225691
                                                         0.232656       0.125144
                                                         0.074788      -0.015348
                          1       4    4dxy              2.521825       5.210912
                                                         1.453920      -2.120465
                                                         0.614053       0.390909
                                                         0.232656       0.216756
                                                         0.074788      -0.026584
                          1       4    4dxz              2.521825       5.210912
                                                         1.453920      -2.120465
                                                         0.614053       0.390909
                                                         0.232656       0.216756
                                                         0.074788      -0.026584
                          1       4    4dy2              2.521825       3.008522
                                                         1.453920      -1.224251
                                                         0.614053       0.225691
                                                         0.232656       0.125144
                                                         0.074788      -0.015348
                          1       4    4dyz              2.521825       5.210912
                                                         1.453920      -2.120465
                                                         0.614053       0.390909
                                                         0.232656       0.216756
                                                         0.074788      -0.026584
                          1       4    4dz2              2.521825       3.008522
                                                         1.453920      -1.224251
                                                         0.614053       0.225691
                                                         0.232656       0.125144
                                                         0.074788      -0.015348

                          1       5    5dx2              2.521825       0.698026
                                                         1.453920      -1.511486
                                                         0.614053      -0.335394
                                                         0.232656      -0.025564
                                                         0.074788      -0.002699
                          1       5    5dxy              2.521825       1.209017
                                                         1.453920      -2.617970
                                                         0.614053      -0.580920
                                                         0.232656      -0.044277
                                                         0.074788      -0.004674
                          1       5    5dxz              2.521825       1.209017
                                                         1.453920      -2.617970
                                                         0.614053      -0.580920
                                                         0.232656      -0.044277
                                                         0.074788      -0.004674
                          1       5    5dy2              2.521825       0.698026
                                                         1.453920      -1.511486
                                                         0.614053      -0.335394
                                                         0.232656      -0.025564
                                                         0.074788      -0.002699
                          1       5    5dyz              2.521825       1.209017
                                                         1.453920      -2.617970
                                                         0.614053      -0.580920
                                                         0.232656      -0.044277
                                                         0.074788      -0.004674
                          1       5    5dz2              2.521825       0.698026
                                                         1.453920      -1.511486
                                                         0.614053      -0.335394
                                                         0.232656      -0.025564
                                                         0.074788      -0.002699

                          1       6    6dx2              2.521825       0.831079
                                                         1.453920      -0.709226
                                                         0.614053      -0.137351
                                                         0.232656       0.068642
                                                         0.074788       0.011745
                          1       6    6dxy              2.521825       1.439472
                                                         1.453920      -1.228415
                                                         0.614053      -0.237899
                                                         0.232656       0.118891
                                                         0.074788       0.020343
                          1       6    6dxz              2.521825       1.439472
                                                         1.453920      -1.228415
                                                         0.614053      -0.237899
                                                         0.232656       0.118891
                                                         0.074788       0.020343
                          1       6    6dy2              2.521825       0.831079
                                                         1.453920      -0.709226
                                                         0.614053      -0.137351
                                                         0.232656       0.068642
                                                         0.074788       0.011745
                          1       6    6dyz              2.521825       1.439472
                                                         1.453920      -1.228415
                                                         0.614053      -0.237899
                                                         0.232656       0.118891
                                                         0.074788       0.020343
                          1       6    6dz2              2.521825       0.831079
                                                         1.453920      -0.709226
                                                         0.614053      -0.137351
                                                         0.232656       0.068642
                                                         0.074788       0.011745

       Atomic covalent radius [Angstrom]:                                  1.300

       Atomic van der Waals radius [Angstrom]:                             1.750

     GTH Potential information for                                   GTH-PBE-q10

       Description:                       Goedecker-Teter-Hutter pseudopotential
                                           Goedecker et al., PRB 54, 1703 (1996)
                                          Hartwigsen et al., PRB 58, 3641 (1998)
                                                      Krack, TCA 114, 145 (2005)

       Gaussian exponent of the core charge distribution:               1.317676
       Electronic configuration (s p d ...):                           1   0   9

       Parameters of the local part of the GTH pseudopotential:

                          rloc        C1          C2          C3          C4
                        0.616000   11.313635

       Parameters of the non-local part of the GTH pseudopotential:

                   l      r(l)      h(i,j,l)

                   0    0.550904    4.733491   -1.784594
                                   -1.784594    2.303901
                   1    0.674138    2.534798   -1.778066
                                   -1.778066    2.103836
                   2    0.457392   -7.264011    2.558665
                                    2.558665   -2.901253


 MOLECULE KIND INFORMATION


 All atoms are their own molecule, skipping detailed information


 TOTAL NUMBERS AND MAXIMUM NUMBERS

  Total number of            - Atomic kinds:                                   3
                             - Atoms:                                        906
                             - Shell sets:                                   906
                             - Shells:                                      3826
                             - Primitive Cartesian functions:               4530
                             - Cartesian basis functions:                  10488
                             - Spherical basis functions:                   9610

  Maximum angular momentum of- Orbital basis functions:                        2
                             - Local part of the GTH pseudopotential:          2
                             - Non-local part of the GTH pseudopotential:      4


 MODULE QUICKSTEP:  ATOMIC COORDINATES IN angstrom

 Atom  Kind  Element       X           Y           Z          Z(eff)       Mass
    1   1 O    8       2.890000   -6.480000    9.150001       6.0000     15.9994
    2   2 H    1       3.180000   -6.740000    8.200001       1.0000      1.0079
    3   2 H    1       2.360000   -7.210000    9.440001       1.0000      1.0079
    4   1 O    8      13.400001    2.950000   16.760002       6.0000     15.9994
    5   2 H    1      13.150001    2.660000   15.840001       1.0000      1.0079
    6   2 H    1      12.910000    2.330000   17.370001       1.0000      1.0079
    7   1 O    8      -7.290000  -26.830002   14.790001       6.0000     15.9994
    8   2 H    1      -7.760000  -27.310001   14.070001       1.0000      1.0079
    9   2 H    1      -7.970000  -26.980001   15.460001       1.0000      1.0079
   10   1 O    8      15.340000    7.310000    8.930000       6.0000     15.9994
   11   2 H    1      16.270000    6.980000    8.630000       1.0000      1.0079
   12   2 H    1      14.650001    6.630001    8.600000       1.0000      1.0079
   13   1 O    8      14.770001  -31.990002   24.730000       6.0000     15.9994
   14   2 H    1      14.970001  -31.090002   24.360001       1.0000      1.0079
   15   2 H    1      13.820001  -32.010002   24.950001       1.0000      1.0079
   16   1 O    8      15.930000   22.630001   20.030001       6.0000     15.9994
   17   2 H    1      15.800000   22.420002   19.050001       1.0000      1.0079
   18   2 H    1      15.580001   23.580000   20.000000       1.0000      1.0079
   19   1 O    8     -15.110001   14.260001   30.190001       6.0000     15.9994
   20   2 H    1     -16.000000   14.080001   29.810001       1.0000      1.0079
   21   2 H    1     -15.240001   14.400001   31.140001       1.0000      1.0079
   22   1 O    8       9.820001   26.570000    8.200001       6.0000     15.9994
   23   2 H    1       8.860001   26.390001    8.570001       1.0000      1.0079
   24   2 H    1      18.760000   11.130000    8.330001       1.0000      1.0079
   25   1 O    8     -27.800003  -30.280001   17.070002       6.0000     15.9994
   26   2 H    1     -26.810001  -30.360003   17.100000       1.0000      1.0079
   27   2 H    1     -28.080002  -30.170002   16.190001       1.0000      1.0079
   28   1 O    8      22.940002   18.590000   24.780003       6.0000     15.9994
   29   2 H    1      22.860001   17.850000   25.410002       1.0000      1.0079
   30   2 H    1      22.030001   18.800001   24.480001       1.0000      1.0079
   31   1 O    8      18.570002   -6.870000   20.190001       6.0000     15.9994
   32   2 H    1      17.610001   -6.640000   20.220001       1.0000      1.0079
   33   2 H    1      18.960001   -6.620001   19.330002       1.0000      1.0079
   34   1 O    8     -13.220000  -37.920002   12.120000       6.0000     15.9994
   35   2 H    1     -13.920001  -38.330002   12.740001       1.0000      1.0079
   36   2 H    1     -12.350000  -38.290001   12.470001       1.0000      1.0079
   37   1 O    8     -25.860003  -18.770000   30.490002       6.0000     15.9994
   38   2 H    1     -25.510002  -19.670002   30.300003       1.0000      1.0079
   39   2 H    1     -25.200003  -18.070000   30.490002       1.0000      1.0079
   40   1 O    8      30.990002   18.590000   13.800001       6.0000     15.9994
   41   2 H    1      30.600002   19.300001   14.370001       1.0000      1.0079
   42   2 H    1      30.960003   17.830002   14.420000       1.0000      1.0079
   43   1 O    8      -5.570001  -10.980000   26.390001       6.0000     15.9994
   44   2 H    1      -6.540000  -11.110001   26.260002       1.0000      1.0079
   45   2 H    1      -5.190001  -10.620001   25.570002       1.0000      1.0079
   46   1 O    8      -0.280000   20.730001   28.310001       6.0000     15.9994
   47   2 H    1      -1.140000   20.950001   28.820002       1.0000      1.0079
   48   2 H    1       0.420000   21.280001   28.830002       1.0000      1.0079
   49   1 O    8     -15.550001   22.780001   29.620001       6.0000     15.9994
   50   2 H    1     -14.720001   23.310001   29.350002       1.0000      1.0079
   51   2 H    1     -15.590000   22.650002   30.580002       1.0000      1.0079
   52   1 O    8     -11.880001   11.540001   11.200000       6.0000     15.9994
   53   2 H    1     -12.230001   11.320001   12.120000       1.0000      1.0079
   54   2 H    1     -10.860001   11.670000   11.390000       1.0000      1.0079
   55   1 O    8       9.450001   -9.390000   29.500000       6.0000     15.9994
   56   2 H    1       9.470000  -10.310000   29.800003       1.0000      1.0079
   57   2 H    1       8.570001   -8.900001   29.610003       1.0000      1.0079
   58   1 O    8      20.680000    0.870000   11.630001       6.0000     15.9994
   59   2 H    1      21.400002    0.270000   11.930000       1.0000      1.0079
   60   2 H    1      20.870001    1.090000   10.700001       1.0000      1.0079
   61   1 O    8     -19.670002   42.860001   24.370001       6.0000     15.9994
   62   2 H    1     -19.660000   43.840004   24.160002       1.0000      1.0079
   63   2 H    1      -3.420000   42.850002   25.160000       1.0000      1.0079
   64   1 O    8      29.440002  -28.410000   12.250000       6.0000     15.9994
   65   2 H    1      28.920002  -29.100000   11.820001       1.0000      1.0079
   66   2 H    1      47.270004  -28.490002   11.910001       1.0000      1.0079
   67   1 O    8      -5.640000   -7.600000   25.389999       6.0000     15.9994
   68   2 H    1     -13.530001    7.810000   25.360001       1.0000      1.0079
   69   2 H    1      -5.240001   -8.200001   24.760000       1.0000      1.0079
   70   1 O    8      -2.440000   17.080000   29.080002       6.0000     15.9994
   71   2 H    1      -1.500000   17.480000   29.150002       1.0000      1.0079
   72   2 H    1      -3.140000   17.840000   29.020002       1.0000      1.0079
   73   1 O    8     -27.150002   -2.070000   32.540001       6.0000     15.9994
   74   2 H    1     -27.299999   -2.840000   33.170002       1.0000      1.0079
   75   2 H    1     -27.870003   -1.390000   32.730003       1.0000      1.0079
   76   1 O    8     -11.050000   -3.970000   18.110001       6.0000     15.9994
   77   2 H    1     -11.330000   -3.070000   17.770000       1.0000      1.0079
   78   2 H    1     -11.730001   -4.630000   17.780001       1.0000      1.0079
   79   1 O    8      -3.420000  -41.779999   15.730000       6.0000     15.9994
   80   2 H    1      -3.630000  -42.560001   15.130001       1.0000      1.0079
   81   2 H    1      -4.330000  -41.680000   16.200001       1.0000      1.0079
   82   1 O    8      16.970001  -16.360001   16.950001       6.0000     15.9994
   83   2 H    1      17.240002  -16.410000   16.030001       1.0000      1.0079
   84   2 H    1      17.250000  -17.200001   17.370001       1.0000      1.0079
   85   1 O    8      -1.160000   18.490002    9.470000       6.0000     15.9994
   86   2 H    1      -0.310000   18.850000    9.190001       1.0000      1.0079
   87   2 H    1      -1.120000   18.850000   10.440001       1.0000      1.0079
   88   1 O    8      12.390001   -3.510000   13.590001       6.0000     15.9994
   89   2 H    1      -5.490000   -3.800000   13.720001       1.0000      1.0079
   90   2 H    1      12.560000   -2.740000   14.240000       1.0000      1.0079
   91   1 O    8      -0.560000   -0.600000    9.600000       6.0000     15.9994
   92   2 H    1      -0.220000    0.290000    9.180000       1.0000      1.0079
   93   2 H    1       0.280000   -1.130000    9.550000       1.0000      1.0079
   94   1 O    8      17.700001   48.970001   19.690001       6.0000     15.9994
   95   2 H    1      17.210001   48.920002   18.880001       1.0000      1.0079
   96   2 H    1      18.010002   49.920002   19.840000       1.0000      1.0079
   97   1 O    8     -24.530001  -13.020000    8.760000       6.0000     15.9994
   98   2 H    1     -24.590000  -12.970000    7.770000       1.0000      1.0079
   99   2 H    1     -23.549999  -12.750001    8.880001       1.0000      1.0079
  100   1 O    8       2.390000    9.490001    8.990001       6.0000     15.9994
  101   2 H    1       3.360000    9.720000    8.780001       1.0000      1.0079
  102   2 H    1       2.030000    9.130000    8.140000       1.0000      1.0079
  103   1 O    8      30.940001    0.570000    8.270000       6.0000     15.9994
  104   2 H    1      30.320000   -0.100000    8.550000       1.0000      1.0079
  105   2 H    1      13.390001    1.270000    8.200001       1.0000      1.0079
  106   1 O    8      -2.210000   13.350000    9.600000       6.0000     15.9994
  107   2 H    1      -1.730000   14.250001    9.540001       1.0000      1.0079
  108   2 H    1      -3.080000   13.480000    9.180000       1.0000      1.0079
  109   1 O    8      25.840000   13.590001   13.670001       6.0000     15.9994
  110   2 H    1      26.200001   14.440001   14.170000       1.0000      1.0079
  111   2 H    1      26.630001   13.220000   13.270000       1.0000      1.0079
  112   1 O    8     -38.740002    1.340000   18.650002       6.0000     15.9994
  113   2 H    1     -38.770000    1.990000   19.440001       1.0000      1.0079
  114   2 H    1     -39.590000    0.970000   18.380001       1.0000      1.0079
  115   1 O    8      15.930000   19.530001   12.180000       6.0000     15.9994
  116   2 H    1      15.310000   19.030001   12.840000       1.0000      1.0079
  117   2 H    1      15.490000   20.420000   12.090001       1.0000      1.0079
  118   1 O    8     -20.200001   15.720000   18.690001       6.0000     15.9994
  119   2 H    1     -19.320000   16.200001   18.940001       1.0000      1.0079
  120   2 H    1     -19.900002   15.000001   18.120001       1.0000      1.0079
  121   1 O    8       3.630000   -9.040001   21.560001       6.0000     15.9994
  122   2 H    1       3.670000   -8.840000   22.510002       1.0000      1.0079
  123   2 H    1       3.250000   -8.150001   21.170002       1.0000      1.0079
  124   1 O    8     -26.280001   14.320001   32.630001       6.0000     15.9994
  125   2 H    1     -35.130001   29.040001   33.510002       1.0000      1.0079
  126   2 H    1     -25.400002   13.810000   32.700001       1.0000      1.0079
  127   1 O    8      -9.590000  -15.480001   17.950001       6.0000     15.9994
  128   2 H    1      -8.800000  -15.520000   18.480000       1.0000      1.0079
  129   2 H    1     -17.990002    0.100000   17.610001       1.0000      1.0079
  130   1 O    8     -11.780001    1.720000   23.760002       6.0000     15.9994
  131   2 H    1     -11.590000    2.100000   24.650002       1.0000      1.0079
  132   2 H    1     -11.220001    2.240000   23.130001       1.0000      1.0079
  133   1 O    8      -3.430000   24.480001    9.140000       6.0000     15.9994
  134   2 H    1      -3.020000   24.940002    8.430000       1.0000      1.0079
  135   2 H    1      -3.430000   25.130001    9.870001       1.0000      1.0079
  136   1 O    8     -34.070000   13.690001   28.740002       6.0000     15.9994
  137   2 H    1     -34.900002   14.070001   29.150002       1.0000      1.0079
  138   2 H    1     -34.030003   14.190001   27.900002       1.0000      1.0079
  139   1 O    8     -13.810000    0.540000   28.750002       6.0000     15.9994
  140   2 H    1     -12.940001    0.830000   29.040001       1.0000      1.0079
  141   2 H    1     -13.850001    0.700000   27.770002       1.0000      1.0079
  142   1 O    8      -1.030000   14.910001   20.580002       6.0000     15.9994
  143   2 H    1      -0.450000   14.480001   21.260002       1.0000      1.0079
  144   2 H    1      -1.700000   14.210001   20.559999       1.0000      1.0079
  145   1 O    8      -9.410001   24.560001   11.400002       6.0000     15.9994
  146   2 H    1       7.200000   23.630001   11.620001       1.0000      1.0079
  147   2 H    1      -9.710001   25.050001   12.190001       1.0000      1.0079
  148   1 O    8     -33.610001   17.730001   29.520000       6.0000     15.9994
  149   2 H    1     -33.330002   18.560001   29.160002       1.0000      1.0079
  150   2 H    1     -33.350002   17.840000   30.530003       1.0000      1.0079
  151   1 O    8      -8.290001   -3.460000   23.140001       6.0000     15.9994
  152   2 H    1      -8.460000   -2.880000   23.930000       1.0000      1.0079
  153   2 H    1      -7.300000   -3.570000   23.120001       1.0000      1.0079
  154   1 O    8     -31.990002  -23.540001   14.610001       6.0000     15.9994
  155   2 H    1     -32.710003  -23.350000   15.230001       1.0000      1.0079
  156   2 H    1     -32.330002  -24.330002   14.160000       1.0000      1.0079
  157   1 O    8      18.450001  -15.300001   11.400002       6.0000     15.9994
  158   2 H    1      18.330000  -16.320002   11.330000       1.0000      1.0079
  159   2 H    1      18.230001  -14.900002   10.559999       1.0000      1.0079
  160   1 O    8      -1.810000   -6.970000   12.280001       6.0000     15.9994
  161   2 H    1      -2.390000   -6.550000   13.010001       1.0000      1.0079
  162   2 H    1      -1.070000   -6.370000   12.100000       1.0000      1.0079
  163   1 O    8      37.180000   -4.990000   28.570002       6.0000     15.9994
  164   2 H    1      37.660004   -4.400000   29.240000       1.0000      1.0079
  165   2 H    1      36.950001   -4.390000   27.850000       1.0000      1.0079
  166   1 O    8       3.810000   -7.710000   26.410000       6.0000     15.9994
  167   2 H    1       3.110000   -6.990001   26.270000       1.0000      1.0079
  168   2 H    1       4.600000   -7.090001   26.420002       1.0000      1.0079
  169   1 O    8     -50.590000    0.350000   25.570002       6.0000     15.9994
  170   2 H    1     -33.960003   -0.390000   26.180000       1.0000      1.0079
  171   2 H    1     -33.780003   -0.090000   24.680002       1.0000      1.0079
  172   1 O    8       8.960000  -19.730000   11.710000       6.0000     15.9994
  173   2 H    1       9.040001  -19.500000   10.710001       1.0000      1.0079
  174   2 H    1       9.790000  -20.210001   11.820001       1.0000      1.0079
  175   1 O    8       6.350000  -19.020000   28.090000       6.0000     15.9994
  176   2 H    1       5.620000  -19.660000   28.080002       1.0000      1.0079
  177   2 H    1       6.450000  -18.840000   29.000000       1.0000      1.0079
  178   1 O    8      -7.260000   24.750002   32.370003       6.0000     15.9994
  179   2 H    1      -8.200001   24.560001   32.280003       1.0000      1.0079
  180   2 H    1      -6.800000   24.860001   31.510002       1.0000      1.0079
  181   1 O    8      15.830001   15.710001    9.000000       6.0000     15.9994
  182   2 H    1      15.520000   16.630001    9.260000       1.0000      1.0079
  183   2 H    1      15.880001   15.790001    7.970000       1.0000      1.0079
  184   1 O    8       8.400001  -20.370003   17.440001       6.0000     15.9994
  185   2 H    1       7.600000  -20.130001   16.980001       1.0000      1.0079
  186   2 H    1       8.890000  -21.030003   16.900002       1.0000      1.0079
  187   1 O    8     -24.540003   49.720001    8.640000       6.0000     15.9994
  188   2 H    1     -23.750000   49.570004    9.150001       1.0000      1.0079
  189   2 H    1     -24.440001   49.520000    7.670000       1.0000      1.0079
  190   1 O    8       9.250001   16.030001   14.880000       6.0000     15.9994
  191   2 H    1       8.500000   16.310001   15.420000       1.0000      1.0079
  192   2 H    1       9.360001   16.780001   14.210001       1.0000      1.0079
  193   1 O    8       6.200000   -6.380000   26.670000       6.0000     15.9994
  194   2 H    1       6.430000   -5.820000   25.890003       1.0000      1.0079
  195   2 H    1       6.620001   -7.260000   26.620003       1.0000      1.0079
  196   1 O    8     -34.590000   -9.670001   17.420002       6.0000     15.9994
  197   2 H    1     -34.660000  -10.650001   17.320002       1.0000      1.0079
  198   2 H    1     -35.480000   -9.280001   17.590000       1.0000      1.0079
  199   1 O    8     -19.270000   14.630001   29.880001       6.0000     15.9994
  200   2 H    1     -19.240002   14.630001   30.870001       1.0000      1.0079
  201   2 H    1     -19.340002   15.650001   29.670002       1.0000      1.0079
  202   1 O    8      10.190001   12.940001    8.850000       6.0000     15.9994
  203   2 H    1      10.660001   12.120000    9.230001       1.0000      1.0079
  204   2 H    1       9.870001   12.670001    7.920001       1.0000      1.0079
  205   1 O    8      17.820000    3.430000   13.330001       6.0000     15.9994
  206   2 H    1       8.600000   17.990002   12.670001       1.0000      1.0079
  207   2 H    1      18.630001    3.480000   12.850000       1.0000      1.0079
  208   1 O    8     -22.170000  -11.480000    9.330000       6.0000     15.9994
  209   2 H    1     -21.600000  -10.880001    8.870000       1.0000      1.0079
  210   2 H    1     -22.420002  -10.890001   10.070001       1.0000      1.0079
  211   1 O    8      -4.280000   -3.200000   17.450001       6.0000     15.9994
  212   2 H    1      -4.070000   -2.470000   16.830002       1.0000      1.0079
  213   2 H    1      -4.160000   -2.910000   18.450001       1.0000      1.0079
  214   1 O    8      23.860001    6.900001   32.380001       6.0000     15.9994
  215   2 H    1      23.290001    7.580000   32.860001       1.0000      1.0079
  216   2 H    1      23.730001    6.030001   32.810001       1.0000      1.0079
  217   1 O    8     -42.340004   12.150001   15.870001       6.0000     15.9994
  218   2 H    1     -42.790001   12.720001   16.550001       1.0000      1.0079
  219   2 H    1     -42.360001   12.760000   15.100001       1.0000      1.0079
  220   1 O    8      36.430000   10.080000   30.190001       6.0000     15.9994
  221   2 H    1      35.730003    9.860001   29.580002       1.0000      1.0079
  222   2 H    1      36.770004   11.000000   29.980001       1.0000      1.0079
  223   1 O    8      12.070000    2.300000   10.210000       6.0000     15.9994
  224   2 H    1      29.150002    1.880000   11.060000       1.0000      1.0079
  225   2 H    1      11.170001    2.030000    9.970000       1.0000      1.0079
  226   1 O    8       8.110001   35.680000   23.800001       6.0000     15.9994
  227   2 H    1       8.410000   35.020000   23.120001       1.0000      1.0079
  228   2 H    1      25.520000   36.470001   23.590002       1.0000      1.0079
  229   1 O    8     -13.340001   33.250000   32.000000       6.0000     15.9994
  230   2 H    1     -13.260001   33.460003   31.030003       1.0000      1.0079
  231   2 H    1     -13.990001   33.860001   32.510002       1.0000      1.0079
  232   1 O    8       1.310000   -1.440000   32.660004       6.0000     15.9994
  233   2 H    1       1.900000   -1.220000   31.930000       1.0000      1.0079
  234   2 H    1       1.710000   -1.050000   33.490002       1.0000      1.0079
  235   1 O    8      -2.160000   33.850002   19.880001       6.0000     15.9994
  236   2 H    1      -2.310000   33.370003   20.760002       1.0000      1.0079
  237   2 H    1      -2.980000   33.650002   19.430000       1.0000      1.0079
  238   1 O    8      -1.370000    6.480000   29.790001       6.0000     15.9994
  239   2 H    1      -9.960001   22.000000   29.510002       1.0000      1.0079
  240   2 H    1      -1.680000    6.430000   30.680000       1.0000      1.0079
  241   1 O    8      18.580000   -4.250000   33.070000       6.0000     15.9994
  242   2 H    1      19.570002   -4.460000   32.860001       1.0000      1.0079
  243   2 H    1      18.630001   -3.250000   32.870003       1.0000      1.0079
  244   1 O    8       3.600000   -9.280001   24.410002       6.0000     15.9994
  245   2 H    1       2.810000   -9.840000   24.490002       1.0000      1.0079
  246   2 H    1       3.710000   -8.610001   25.170002       1.0000      1.0079
  247   1 O    8      17.150000    3.180000   26.680002       6.0000     15.9994
  248   2 H    1      17.270000    3.050000   27.660000       1.0000      1.0079
  249   2 H    1      16.910002    4.180000   26.610001       1.0000      1.0079
  250   1 O    8      29.670002   -8.520000   15.140000       6.0000     15.9994
  251   2 H    1      28.630001   -8.530001   15.060000       1.0000      1.0079
  252   2 H    1      30.000002   -7.610001   14.950001       1.0000      1.0079
  253   1 O    8      -8.860001   -1.760000   25.270002       6.0000     15.9994
  254   2 H    1      -9.790000   -1.780000   24.890001       1.0000      1.0079
  255   2 H    1      -8.850000   -0.800000   25.680000       1.0000      1.0079
  256   1 O    8       2.920000  -18.670002   22.840002       6.0000     15.9994
  257   2 H    1       3.300000  -19.200001   23.630001       1.0000      1.0079
  258   2 H    1       2.860000  -19.450001   22.170000       1.0000      1.0079
  259   1 O    8     -24.700001   26.630001   20.160000       6.0000     15.9994
  260   2 H    1     -24.960001   25.810001   19.660000       1.0000      1.0079
  261   2 H    1     -24.810001   26.440001   21.140001       1.0000      1.0079
  262   1 O    8      -2.930000   -7.960001   21.540001       6.0000     15.9994
  263   2 H    1      -2.480000   -7.690001   22.380001       1.0000      1.0079
  264   2 H    1      -2.350000   -7.640000   20.840000       1.0000      1.0079
  265   1 O    8      29.270000  -14.470000    8.770000       6.0000     15.9994
  266   2 H    1      29.470001  -13.900002    8.050001       1.0000      1.0079
  267   2 H    1      36.840004   -0.240000    8.600000       1.0000      1.0079
  268   1 O    8       5.600000  -10.520000   29.310001       6.0000     15.9994
  269   2 H    1       4.800000   -9.940001   29.180002       1.0000      1.0079
  270   2 H    1       6.380000   -9.870001   29.480001       1.0000      1.0079
  271   1 O    8       1.960000   -4.020000   18.100000       6.0000     15.9994
  272   2 H    1       1.240000   -4.500000   17.650002       1.0000      1.0079
  273   2 H    1       2.600000   -4.780000   18.180000       1.0000      1.0079
  274   1 O    8     -10.400001  -13.200001   28.810001       6.0000     15.9994
  275   2 H    1     -10.810001  -12.310000   29.080002       1.0000      1.0079
  276   2 H    1      -9.470000  -13.080001   29.010000       1.0000      1.0079
  277   1 O    8      12.090001   10.800000    9.230001       6.0000     15.9994
  278   2 H    1      -3.970000   10.300001    8.940001       1.0000      1.0079
  279   2 H    1      11.630001    9.970000    9.600000       1.0000      1.0079
  280   1 O    8      33.660004   -1.740000   27.990000       6.0000     15.9994
  281   2 H    1      33.890003   -2.530000   27.480001       1.0000      1.0079
  282   2 H    1      32.830002   -1.950000   28.470001       1.0000      1.0079
  283   1 O    8      18.300001  -19.150002   14.220000       6.0000     15.9994
  284   2 H    1       9.930000   -5.310000   13.630000       1.0000      1.0079
  285   2 H    1      18.590000  -19.380001   15.170001       1.0000      1.0079
  286   1 O    8     -31.620003   23.420000   26.100002       6.0000     15.9994
  287   2 H    1     -15.590000   23.310001   26.620003       1.0000      1.0079
  288   2 H    1     -31.870001   23.400002   25.170002       1.0000      1.0079
  289   1 O    8      -4.400000    7.540000   15.860001       6.0000     15.9994
  290   2 H    1      -5.210000    6.990001   15.990001       1.0000      1.0079
  291   2 H    1      -3.600000    6.980000   16.080000       1.0000      1.0079
  292   1 O    8      22.590000   -7.220001   19.950001       6.0000     15.9994
  293   2 H    1      23.600002   -7.110000   19.620001       1.0000      1.0079
  294   2 H    1      22.570002   -8.170000   20.070002       1.0000      1.0079
  295   1 O    8       6.700000   10.870000   32.810001       6.0000     15.9994
  296   2 H    1       6.130000   11.650001   32.600002       1.0000      1.0079
  297   2 H    1       7.350000   10.790000   32.050003       1.0000      1.0079
  298   1 O    8      -0.470000   23.130001   26.610001       6.0000     15.9994
  299   2 H    1      -0.430000   22.320002   27.240002       1.0000      1.0079
  300   2 H    1      -1.000000   23.770000   27.170002       1.0000      1.0079
  301   1 O    8     -14.010000    5.920000   10.660001       6.0000     15.9994
  302   2 H    1     -13.210001    6.480000   10.400001       1.0000      1.0079
  303   2 H    1     -13.690001    5.270000   11.300000       1.0000      1.0079
  304   1 O    8       0.470000   -2.510000   21.639999       6.0000     15.9994
  305   2 H    1       0.690000   -2.200000   20.610001       1.0000      1.0079
  306   2 H    1      -0.170000   -3.220000   21.630001       1.0000      1.0079
  307   1 O    8     -28.480000   13.990001   19.930002       6.0000     15.9994
  308   2 H    1     -27.980001   13.630000   19.150002       1.0000      1.0079
  309   2 H    1     -29.120003   14.660001   19.530001       1.0000      1.0079
  310   1 O    8     -20.490000   14.920001   32.459999       6.0000     15.9994
  311   2 H    1     -21.320002   15.440001   32.130001       1.0000      1.0079
  312   2 H    1     -20.480001   15.190001   33.420002       1.0000      1.0079
  313   1 O    8      -4.030000   10.050000   14.650001       6.0000     15.9994
  314   2 H    1      -4.370000    9.200000   15.060000       1.0000      1.0079
  315   2 H    1      -4.740000   10.710001   14.680000       1.0000      1.0079
  316   1 O    8       1.890000   -9.070001   33.430000       6.0000     15.9994
  317   2 H    1       1.330000   -9.760000   32.920002       1.0000      1.0079
  318   2 H    1       1.520000   -8.220000   33.070000       1.0000      1.0079
  319   1 O    8      -5.820000  -17.240002   15.770000       6.0000     15.9994
  320   2 H    1      -6.780000  -17.280001   15.830001       1.0000      1.0079
  321   2 H    1      -5.660000  -17.680000   16.680000       1.0000      1.0079
  322   1 O    8      27.650002  -16.370001   23.610001       6.0000     15.9994
  323   2 H    1      28.400002  -16.930000   23.160002       1.0000      1.0079
  324   2 H    1      26.920002  -16.570000   22.970001       1.0000      1.0079
  325   1 O    8      -9.280001    2.290000   16.890001       6.0000     15.9994
  326   2 H    1     -10.070001    1.960000   16.410000       1.0000      1.0079
  327   2 H    1      -8.860001    1.610000   17.530001       1.0000      1.0079
  328   1 O    8      -8.560000   -6.790000   19.470001       6.0000     15.9994
  329   2 H    1      -8.490001   -7.510000   18.770000       1.0000      1.0079
  330   2 H    1      -8.140000   -7.240000   20.330000       1.0000      1.0079
  331   1 O    8     -18.880001   47.910004   32.760002       6.0000     15.9994
  332   2 H    1     -19.830000   47.880001   32.510002       1.0000      1.0079
  333   2 H    1     -18.960001   47.550003   33.610001       1.0000      1.0079
  334   1 O    8     -13.690001  -15.820000   22.780001       6.0000     15.9994
  335   2 H    1     -13.180000  -15.660001   23.630001       1.0000      1.0079
  336   2 H    1     -13.670001  -16.790001   22.740002       1.0000      1.0079
  337   1 O    8      12.710000   29.780003   32.430004       6.0000     15.9994
  338   2 H    1      21.620003   16.020000   32.180000       1.0000      1.0079
  339   2 H    1      -3.910000   29.590000   33.380001       1.0000      1.0079
  340   1 O    8      22.830000   19.610001   13.000001       6.0000     15.9994
  341   2 H    1      23.340000   20.270002   12.520000       1.0000      1.0079
  342   2 H    1      23.040001   18.710001   12.550001       1.0000      1.0079
  343   1 O    8       2.930000    0.630000   20.150002       6.0000     15.9994
  344   2 H    1       3.010000    0.460000   21.200001       1.0000      1.0079
  345   2 H    1       3.810000    0.780000   19.740002       1.0000      1.0079
  346   1 O    8      -3.970000   -6.370000   29.070000       6.0000     15.9994
  347   2 H    1      -4.610000   -5.810000   29.590000       1.0000      1.0079
  348   2 H    1      -4.620000   -6.870000   28.530003       1.0000      1.0079
  349   1 O    8       6.500000   -3.290000   27.840002       6.0000     15.9994
  350   2 H    1       6.840000   -2.380000   28.080002       1.0000      1.0079
  351   2 H    1       5.600000   -3.190000   27.560001       1.0000      1.0079
  352   1 O    8      -5.980001   21.360001   28.030003       6.0000     15.9994
  353   2 H    1      -6.690001   20.810001   28.490002       1.0000      1.0079
  354   2 H    1      -5.900001   21.170002   27.060001       1.0000      1.0079
  355   1 O    8       4.520000   -0.410000   14.630001       6.0000     15.9994
  356   2 H    1       5.120000   -0.720000   14.030001       1.0000      1.0079
  357   2 H    1       3.790000   -1.130000   14.710001       1.0000      1.0079
  358   1 O    8       8.960000   16.500000   19.570002       6.0000     15.9994
  359   2 H    1       8.400001   16.150002   20.320000       1.0000      1.0079
  360   2 H    1       9.850000   16.140001   19.770000       1.0000      1.0079
  361   1 O    8     -34.190002    2.370000   32.260002       6.0000     15.9994
  362   2 H    1     -34.250000    1.440000   32.530003       1.0000      1.0079
  363   2 H    1     -33.740002    2.570000   33.170002       1.0000      1.0079
  364   1 O    8      -1.310000   32.099998   11.700001       6.0000     15.9994
  365   2 H    1      -1.250000   32.389999   10.770000       1.0000      1.0079
  366   2 H    1      -1.330000   31.070002   11.730001       1.0000      1.0079
  367   1 O    8      17.080000   24.720001    9.020000       6.0000     15.9994
  368   2 H    1      17.870001   24.460001    8.450001       1.0000      1.0079
  369   2 H    1      16.660002   23.850002    9.160001       1.0000      1.0079
  370   1 O    8     -14.530001  -13.130001   26.780003       6.0000     15.9994
  371   2 H    1     -13.760000  -13.640001   26.340000       1.0000      1.0079
  372   2 H    1     -14.260001  -12.930001   27.700003       1.0000      1.0079
  373   1 O    8      -3.350000   -5.940001   32.720001       6.0000     15.9994
  374   2 H    1      -3.820000   -5.800000   33.560001       1.0000      1.0079
  375   2 H    1      -2.860000   -5.090000   32.680000       1.0000      1.0079
  376   1 O    8     -10.760001   10.120001   16.280001       6.0000     15.9994
  377   2 H    1     -10.180000   10.800000   15.880001       1.0000      1.0079
  378   2 H    1     -11.500001   10.570001   16.770000       1.0000      1.0079
  379   1 O    8      -3.360000  -20.450001   22.690001       6.0000     15.9994
  380   2 H    1      -3.070000  -20.760002   21.800001       1.0000      1.0079
  381   2 H    1      -2.550000  -20.440002   23.230001       1.0000      1.0079
  382   1 O    8       1.220000   -7.980001   16.250002       6.0000     15.9994
  383   2 H    1       0.670000   -8.760000   16.600000       1.0000      1.0079
  384   2 H    1       1.100000   -8.200001   15.280001       1.0000      1.0079
  385   1 O    8      -6.970000   34.230000   13.580000       6.0000     15.9994
  386   2 H    1      -7.060000   33.310001   14.020000       1.0000      1.0079
  387   2 H    1      -7.750000   34.190002   12.980001       1.0000      1.0079
  388   1 O    8      -1.230000    7.030000   11.700001       6.0000     15.9994
  389   2 H    1      -1.350000    7.050000   10.690001       1.0000      1.0079
  390   2 H    1      -0.250000    7.060000   11.860001       1.0000      1.0079
  391   1 O    8      -2.350000   17.520000   21.630001       6.0000     15.9994
  392   2 H    1      -1.840000   18.380001   21.760002       1.0000      1.0079
  393   2 H    1      -1.730000   16.950001   21.119999       1.0000      1.0079
  394   1 O    8      -0.720000   22.240002    9.160001       6.0000     15.9994
  395   2 H    1       7.350000    7.390000    8.280001       1.0000      1.0079
  396   2 H    1      -0.120000   21.560001    9.440001       1.0000      1.0079
  397   1 O    8      14.130001    5.060000    8.100000       6.0000     15.9994
  398   2 H    1      13.370000    4.850000    8.680000       1.0000      1.0079
  399   2 H    1      14.980001    4.410000    8.290001       1.0000      1.0079
  400   1 O    8      16.390001   19.580000   25.860003       6.0000     15.9994
  401   2 H    1      16.570000   19.970001   26.730001       1.0000      1.0079
  402   2 H    1      16.270000   20.330000   25.180000       1.0000      1.0079
  403   1 O    8      21.270000   49.080006   33.360001       6.0000     15.9994
  404   2 H    1      20.310001   49.130001   33.340000       1.0000      1.0079
  405   2 H    1      21.490002   48.160004   33.100002       1.0000      1.0079
  406   1 O    8      12.400000   -2.600000   26.510000       6.0000     15.9994
  407   2 H    1      12.490001   -2.270000   27.440002       1.0000      1.0079
  408   2 H    1      11.450001   -2.790000   26.510000       1.0000      1.0079
  409   1 O    8      15.190001    0.360000   11.730001       6.0000     15.9994
  410   2 H    1      15.560001   -0.060000   10.930000       1.0000      1.0079
  411   2 H    1      15.890001   -0.080000   12.280001       1.0000      1.0079
  412   1 O    8     -27.470001  -18.840000   21.080000       6.0000     15.9994
  413   2 H    1     -27.590000  -19.280001   21.930000       1.0000      1.0079
  414   2 H    1     -28.340000  -18.530001   20.830002       1.0000      1.0079
  415   1 O    8     -16.600000    6.720000   24.139999       6.0000     15.9994
  416   2 H    1     -15.720000    6.920000   24.490002       1.0000      1.0079
  417   2 H    1     -16.570000    6.320000   23.220001       1.0000      1.0079
  418   1 O    8      17.320002   15.170001   18.540001       6.0000     15.9994
  419   2 H    1      17.200001   14.360001   18.080002       1.0000      1.0079
  420   2 H    1      16.710001   14.870001   19.290001       1.0000      1.0079
  421   1 O    8      16.160000    3.760000    9.090000       6.0000     15.9994
  422   2 H    1      16.570000    2.890000    8.930000       1.0000      1.0079
  423   2 H    1      16.810001    4.490000    9.220000       1.0000      1.0079
  424   1 O    8     -18.170000    0.860000   21.450003       6.0000     15.9994
  425   2 H    1     -18.520000    1.810000   21.709999       1.0000      1.0079
  426   2 H    1     -10.380001  -14.270000   21.000002       1.0000      1.0079
  427   1 O    8      -8.650001    0.830000   26.200001       6.0000     15.9994
  428   2 H    1      -9.300001    1.570000   26.090002       1.0000      1.0079
  429   2 H    1      -7.790000    1.240000   26.450003       1.0000      1.0079
  430   1 O    8     -18.130001    6.230001   32.540001       6.0000     15.9994
  431   2 H    1     -18.930000    6.050000   33.120003       1.0000      1.0079
  432   2 H    1     -18.150002    7.200000   32.470001       1.0000      1.0079
  433   1 O    8      -8.740000  -24.680002   21.960001       6.0000     15.9994
  434   2 H    1      -8.100000  -25.459999   22.250002       1.0000      1.0079
  435   2 H    1      -8.320000  -24.360001   21.090002       1.0000      1.0079
  436   1 O    8      14.440001   20.960003   29.930000       6.0000     15.9994
  437   2 H    1      13.800001   21.770000   29.790001       1.0000      1.0079
  438   2 H    1      23.170002    6.450000   30.840000       1.0000      1.0079
  439   1 O    8       1.290000    4.540000   19.670002       6.0000     15.9994
  440   2 H    1       2.220000    4.430000   19.700001       1.0000      1.0079
  441   2 H    1       1.020000    3.590000   19.940001       1.0000      1.0079
  442   1 O    8       0.630000   18.050001   32.380001       6.0000     15.9994
  443   2 H    1      -0.240000   18.100000   32.770000       1.0000      1.0079
  444   2 H    1       0.990000   17.150000   32.550003       1.0000      1.0079
  445   1 O    8     -12.330000   12.530001   32.580002       6.0000     15.9994
  446   2 H    1     -13.250000   12.120000   32.389999       1.0000      1.0079
  447   2 H    1     -12.260000   13.530001   32.250000       1.0000      1.0079
  448   1 O    8       3.920000  -16.030001    9.330000       6.0000     15.9994
  449   2 H    1       2.980000  -15.810001    9.440001       1.0000      1.0079
  450   2 H    1      21.110001  -16.530001   10.100000       1.0000      1.0079
  451   1 O    8      23.020000   13.680000   30.070002       6.0000     15.9994
  452   2 H    1      23.100002   13.870001   31.020002       1.0000      1.0079
  453   2 H    1      22.900002   14.500000   29.590000       1.0000      1.0079
  454   1 O    8      -3.760000    7.570000   31.140001       6.0000     15.9994
  455   2 H    1      -4.410000    7.330000   30.430002       1.0000      1.0079
  456   2 H    1      -3.980000    6.850000   31.750002       1.0000      1.0079
  457   1 O    8      14.450001  -15.750000   12.470001       6.0000     15.9994
  458   2 H    1      14.210001  -15.860001   11.490001       1.0000      1.0079
  459   2 H    1      14.530001  -16.590000   12.880001       1.0000      1.0079
  460   1 O    8      26.610001    2.240000   22.490002       6.0000     15.9994
  461   2 H    1      26.690002    2.660000   23.370001       1.0000      1.0079
  462   2 H    1       9.270000    1.430000   22.580002       1.0000      1.0079
  463   1 O    8     -11.670000  -24.300001    8.290001       6.0000     15.9994
  464   2 H    1     -11.710000  -23.400002    8.720000       1.0000      1.0079
  465   2 H    1     -10.760001  -24.630001    8.610001       1.0000      1.0079
  466   1 O    8      12.680000  -16.420000   26.480003       6.0000     15.9994
  467   2 H    1      12.280001  -15.610001   26.770000       1.0000      1.0079
  468   2 H    1      11.850000  -17.020000   26.310001       1.0000      1.0079
  469   1 O    8     -13.090000  -16.820000   29.270000       6.0000     15.9994
  470   2 H    1     -12.310000  -16.230000   29.640003       1.0000      1.0079
  471   2 H    1     -13.830000  -16.150002   29.420002       1.0000      1.0079
  472   1 O    8     -12.890000   -5.970000   18.240002       6.0000     15.9994
  473   2 H    1     -12.760000   -6.480000   17.410000       1.0000      1.0079
  474   2 H    1     -12.320002   -6.410000   18.890001       1.0000      1.0079
  475   1 O    8      19.700001    0.710000   22.780001       6.0000     15.9994
  476   2 H    1      20.360001    1.160000   23.400002       1.0000      1.0079
  477   2 H    1      19.580000   -0.190000   23.160002       1.0000      1.0079
  478   1 O    8     -24.920002   28.910000   22.690001       6.0000     15.9994
  479   2 H    1     -23.960001   28.690002   22.710001       1.0000      1.0079
  480   2 H    1     -25.270002   28.670002   23.570002       1.0000      1.0079
  481   1 O    8       6.040000   16.020000   26.170002       6.0000     15.9994
  482   2 H    1       6.940000   15.820000   25.790003       1.0000      1.0079
  483   2 H    1       6.250000   16.080000   27.180002       1.0000      1.0079
  484   1 O    8       2.990000   37.320000   21.360001       6.0000     15.9994
  485   2 H    1       3.900000   37.000004   21.520002       1.0000      1.0079
  486   2 H    1       2.960000   37.570004   20.400002       1.0000      1.0079
  487   1 O    8       7.730001   43.050003   23.260002       6.0000     15.9994
  488   2 H    1       7.430000   43.690002   22.580002       1.0000      1.0079
  489   2 H    1       8.150001   42.380005   22.710001       1.0000      1.0079
  490   1 O    8      15.880001   26.370001   12.440001       6.0000     15.9994
  491   2 H    1      16.560001   27.030001   12.610001       1.0000      1.0079
  492   2 H    1      16.360001   25.500002   12.440001       1.0000      1.0079
  493   1 O    8       4.460000   -3.000000   30.170002       6.0000     15.9994
  494   2 H    1      -4.880000   12.020000   29.980001       1.0000      1.0079
  495   2 H    1       5.100000   -2.220000   30.180000       1.0000      1.0079
  496   1 O    8      17.760002    9.410001   28.340000       6.0000     15.9994
  497   2 H    1       8.330001   23.940001   28.450001       1.0000      1.0079
  498   2 H    1       9.570000   23.280001   27.750000       1.0000      1.0079
  499   1 O    8      15.660001    9.010000   24.230001       6.0000     15.9994
  500   2 H    1      16.110001    9.840000   24.080002       1.0000      1.0079
  501   2 H    1      16.330002    8.280001   24.310001       1.0000      1.0079
  502   1 O    8      -4.360000   -0.070000   25.190001       6.0000     15.9994
  503   2 H    1      -4.330000   -0.940000   25.700001       1.0000      1.0079
  504   2 H    1      -3.560000    0.440000   25.530003       1.0000      1.0079
  505   1 O    8      20.940001    3.840000   19.460001       6.0000     15.9994
[...]
    899      3      Pt         -0.01747392     0.01117750    -0.00143174
    900      3      Pt          0.01628931     0.00146017     0.01293697
    901      3      Pt          0.00519493     0.01268092     0.00763581
    902      3      Pt         -0.01539088     0.00074782    -0.00579441
    903      3      Pt          0.01354034     0.00449157    -0.00118695
    904      3      Pt          0.00189779    -0.01754232     0.00577979
    905      3      Pt          0.01411915     0.00073792    -0.00290133
    906      3      Pt         -0.00310948    -0.00596032     0.00954717
 SUM OF ATOMIC FORCES           0.01034561    -0.00277856    -0.01414059     0.01774002

 STRESS| Analytical stress tensor [GPa]
 STRESS|                        x                   y                   z
 STRESS|      x       -2.14604183773E+00  -2.25923405578E-01   6.93963071631E-02
 STRESS|      y       -2.25923405578E-01  -2.53256214936E+00  -1.26899441837E-01
 STRESS|      z        6.93963071631E-02  -1.26899441837E-01   9.83324691326E-02
 STRESS| 1/3 Trace                                            -1.52675717265E+00
 STRESS| Determinant                                           5.80150675462E-01

 STRESS| Eigenvectors and eigenvalues of the analytical stress tensor [GPa]
 STRESS|                        1                   2                   3
 STRESS| Eigenvalues  -2.63934690998E+00  -2.04824034421E+00   1.07315736228E-01
 STRESS|      x           0.412483821978      0.910259049910      0.035854688154
 STRESS|      y           0.910411660879     -0.410542336083     -0.051045058704
 STRESS|      z           0.031744359205     -0.053697787100      0.998052525331

 -------------------------------------------------------------------------------
 -                                                                             -
 -                                DBCSR STATISTICS                             -
 -                                                                             -
 -------------------------------------------------------------------------------
 COUNTER                                    TOTAL       BLAS       SMM       ACC
 flops     5 x     5 x   288          86719104000       0.0%    100.0%      0.0%
 flops     5 x     5 x   292          87923536000       0.0%    100.0%      0.0%
 flops     5 x    13 x   288          98014924800       0.0%    100.0%      0.0%
 flops    13 x     5 x   288          98155699200       0.0%    100.0%      0.0%
 flops    20 x    13 x   288          98637926400       0.0%    100.0%      0.0%
 flops    13 x    20 x   288          98757734400       0.0%    100.0%      0.0%
 flops     5 x    13 x   292          99376243200       0.0%    100.0%      0.0%
 flops    13 x     5 x   292          99518972800       0.0%    100.0%      0.0%
 flops    20 x    13 x   292         100007897600       0.0%    100.0%      0.0%
 flops    13 x    20 x   292         100129369600       0.0%    100.0%      0.0%
 flops    13 x    13 x   288         104578606080       0.0%    100.0%      0.0%
 flops    13 x    13 x   292         106031086720       0.0%    100.0%      0.0%
 flops    20 x     5 x   288         108264960000       0.0%    100.0%      0.0%
 flops     5 x    20 x   288         108435456000       0.0%    100.0%      0.0%
 flops    20 x     5 x   292         109768640000       0.0%    100.0%      0.0%
 flops     5 x    20 x   292         109941504000       0.0%    100.0%      0.0%
 flops    20 x    20 x   288         431972352000       0.0%    100.0%      0.0%
 flops    20 x    20 x   292         437971968000       0.0%    100.0%      0.0%
 flops     5 x     5 x   320         578127360000       0.0%    100.0%      0.0%
 flops     5 x    13 x   320         653432832000       0.0%    100.0%      0.0%
 flops    13 x     5 x   320         654371328000       0.0%    100.0%      0.0%
 flops    20 x    13 x   320         657586176000       0.0%    100.0%      0.0%
 flops    13 x    20 x   320         658384896000       0.0%    100.0%      0.0%
 flops    13 x    13 x   320         697190707200       0.0%    100.0%      0.0%
 flops    20 x     5 x   320         721766400000       0.0%    100.0%      0.0%
 flops     5 x    20 x   320         722903040000       0.0%    100.0%      0.0%
 flops    20 x    20 x   320        2879815680000       0.0%    100.0%      0.0%
 flops inhomo. stacks                           0       0.0%      0.0%      0.0%
 flops total                        10.707784E+12       0.0%    100.0%      0.0%
 flops max/rank                    173.458800E+09       0.0%    100.0%      0.0%
 matmuls inhomo. stacks                         0       0.0%      0.0%      0.0%
 matmuls total                          154329600       0.0%    100.0%      0.0%
 number of processed stacks                409600       0.0%    100.0%      0.0%
 average stack size                                     0.0     376.8       0.0
 marketing flops                    30.449955E+12
 -------------------------------------------------------------------------------
 # multiplications                             80
 max memory usage/rank               1.866625E+09
 # max total images/rank                        1
 # max 3D layers                                1
 # MPI messages exchanged                   71680
 MPI messages size (bytes):
  total size                       215.263904E+09
  min size                           2.762496E+06
  max size                           3.077120E+06
  average size                       3.003124E+06
 MPI breakdown and total messages size (bytes):
             size <=      128                   0                        0
       128 < size <=     8192                   0                        0
      8192 < size <=    32768                   0                        0
     32768 < size <=   131072                   0                        0
    131072 < size <=  4194304               71680             215264000000
   4194304 < size <= 16777216                   0                        0
  16777216 < size                               0                        0
 -------------------------------------------------------------------------------
 -                                                                             -
 -                      DBCSR MESSAGE PASSING PERFORMANCE                      -
 -                                                                             -
 -------------------------------------------------------------------------------
 ROUTINE             CALLS      AVE VOLUME [Bytes]
 MP_Bcast               28                     12.
 MP_Allreduce          634                     10.
 MP_Alltoall          2240                1962131.
 MP_ISend             2560                1329597.
 MP_IRecv             2560                1310413.
 -------------------------------------------------------------------------------

 -------------------------------------------------------------------------------
 -                                                                             -
 -                                DBM STATISTICS                               -
 -                                                                             -
 -------------------------------------------------------------------------------
    M  x    N  x    K                                          COUNT     PERCENT
 -------------------------------------------------------------------------------

 -------------------------------------------------------------------------------
 -                                                                             -
 -                                GRID STATISTICS                              -
 -                                                                             -
 -------------------------------------------------------------------------------
 LP    KERNEL             BACKEND                              COUNT     PERCENT
 3     collocate general  REF                               55617600      18.90%
 3     integrate general  REF                               54980364      18.69%
 2     collocate general  REF                               52278000      17.77%
 2     integrate general  REF                               51624525      17.54%
 4     collocate general  REF                               39112160      13.29%
 4     integrate general  REF                               38623258      13.13%
 6     integrate general  REF                                 695220       0.24%
 5     integrate general  REF                                 653475       0.22%
 7     integrate general  REF                                 488902       0.17%
 0     collocate general  REF                                 115968       0.04%
 0     integrate general  REF                                  57984       0.02%
 -------------------------------------------------------------------------------

 MEMORY| Estimated peak process memory [MiB]                                2105

 -------------------------------------------------------------------------------
 ----                             MULTIGRID INFO                            ----
 -------------------------------------------------------------------------------
 count for grid        1:         730983          cutoff [a.u.]          200.00
 count for grid        2:         807126          cutoff [a.u.]           66.67
 count for grid        3:         741598          cutoff [a.u.]           22.22
 count for grid        4:         830990          cutoff [a.u.]            7.41
 total gridlevel count  :        3110697

 -------------------------------------------------------------------------------
 -                                                                             -
 -                         MESSAGE PASSING PERFORMANCE                         -
 -                                                                             -
 -------------------------------------------------------------------------------

 ROUTINE             CALLS      AVE VOLUME [Bytes]
 MP_Group                4
 MP_Bcast              260                2270636.
 MP_Allreduce         1354                   1850.
 MP_Sync                83
 MP_Alltoall          1776               13669833.
 MP_SendRecv           252                  14190.
 MP_ISendRecv        20160                 113680.
 MP_Wait             45108
 MP_ISend            23328                 340076.
 MP_IRecv            23328                 340076.
 MP_Recv               308                2460160.
 MP_Write_All            3                1540656.
 -------------------------------------------------------------------------------


 -------------------------------------------------------------------------------
 -                                                                             -
 -                           R E F E R E N C E S                               -
 -                                                                             -
 -------------------------------------------------------------------------------
 
 CP2K version 2022.1, the CP2K developers group (2022).
 CP2K is freely available from https://www.cp2k.org/ .

 Kuehne,Thomas D.; Iannuzzi,Marcella; Del Ben,Mauro;
 Rybkin,Vladimir V.; Seewald,Patrick; Stein,Frederick; Laino,Teodoro;
 Khaliullin,Rustam Z.; Schuett,Ole; Schiffmann,Florian; Golze,Dorothea;
 Wilhelm,Jan; Chulkov,Sergey; Bani-Hashemian,Mohammad Hossein;
 Weber,Valery; Borstnik,Urban; Taillefumier,Mathieu;
 Jakobovits,Alice Shoshana; Lazzaro,Alfio; Pabst,Hans; Mueller,Tiziano;
 Schade,Robert; Guidon,Manuel; Andermatt,Samuel; Holmberg,Nico;
 Schenter,Gregory K.; Hehn,Anna; Bussy,Augustin; Belleflamme,Fabian;
 Tabacchi,Gloria; Gloess,Andreas; Lass,Michael; Bethune,Iain;
 Mundy,Christopher J.; Plessl,Christian; Watkins,Matt;
 VandeVondele,Joost; Krack,Matthias; Hutter,Juerg. 
 The Journal of Chemical Physics, 152 (19), (2020). 
 CP2K: An electronic structure and molecular dynamics software package -
 Quickstep: Efficient and accurate electronic structure calculations.
 https://doi.org/10.1063/5.0007045

 Goerigk, Lars; Hansen, Andreas; Bauer, Christoph; Ehrlich, Stephan;
 Najibi, Asim; Grimme, Stefan. , 19 (48), (2017). 
 A look at the density functional theory zoo with the advanced GMTKN55 database
 for general main group thermochemistry, kinetics and noncovalent interactions.
 https://doi.org/10.1039/C7CP04913G

 Schuett, Ole; Messmer, Peter; Hutter, Juerg; VandeVondele, Joost. 
 Electronic Structure Calculations on Graphics Processing Units, John
 Wiley & Sons, Ltd, 173-190 (2016). 
 GPU-Accelerated Sparse Matrix-Matrix Multiplication for
 Linear Scaling Density Functional Theory.
 https://doi.org/10.1002/9781118670712.ch8

 Heinecke, A; Henry, G; Hutchinson, M; Pabst, H. 
 Proceedings of Intl. Supercomputing Conference, 981-991 (2016). 
 LIBXSMM: Accelerating Small Matrix Multiplications
 by Runtime Code Generation.
 https://doi.org/10.1109/SC.2016.83

 Borstnik, U; VandeVondele, J; Weber, V; Hutter, J. 
 PARALLEL COMPUTING, 40 (5-6), 47-58 (2014). 
 Sparse matrix multiplication: The distributed block-compressed sparse
 row library.
 https://doi.org/10.1016/j.parco.2014.03.012

 Hutter, J; Iannuzzi, M; Schiffmann, F; VandeVondele, J. 
 WIREs Comput Mol Sci., 4 (1), 15-25 (2014). 
 CP2K: atomistic simulations of condensed matter systems.
 https://doi.org/10.1002/wcms.1159

 Marek, A; Blum, V; Johanni, R; Havu, V; Lang, B; Auckenthaler, T;
 Heinecke, A; Bungartz, H; Lederer, H. 
 Journal of Physics: Condensed Matter, 26 (21), (2014). 
 The ELPA library: scalable parallel eigenvalue solutions for
 electronic structure
 theory and computational science.
 https://doi.org/10.1088/0953-8984/26/21/213201

 Grimme, S; Ehrlich, S; Goerigk, L. 
 JOURNAL OF COMPUTATIONAL CHEMISTRY, 32, 1456 (2011). 
 Effect of the damping function in dispersion corrected density functional theory.
 https://doi.org/10.1002/jcc.21759

 Grimme, S; Antony, J; Ehrlich, S; Krieg, H. 
 JOURNAL OF CHEMICAL PHYSICS, 132 (15), 154104 (2010). 
 A consistent and accurate ab initio parametrization of density
 functional dispersion correction (DFT-D) for the 94 elements H-Pu.
 https://doi.org/10.1063/1.3382344

 VandeVondele, J; Hutter, J. 
 JOURNAL OF CHEMICAL PHYSICS, 127 (11), 114105 (2007). 
 Gaussian basis sets for accurate calculations on molecular systems in
 gas and condensed phases.
 https://doi.org/10.1063/1.2770708

 Krack, M. 
 THEORETICAL CHEMISTRY ACCOUNTS, 114 (1-3), 145-152 (2005). 
 Pseudopotentials for H to Kr optimized for gradient-corrected
 exchange-correlation functionals.
 https://doi.org/10.1007/s00214-005-0655-y

 VandeVondele, J; Krack, M; Mohamed, F; Parrinello, M; Chassaing, T;
 Hutter, J. COMPUTER PHYSICS COMMUNICATIONS, 167 (2), 103-128 (2005). 
 QUICKSTEP: Fast and accurate density functional calculations using a
 mixed Gaussian and plane waves approach.
 https://doi.org/10.1016/j.cpc.2004.12.014

 Frigo, M; Johnson, SG. 
 PROCEEDINGS OF THE IEEE, 93 (2), 216-231 (2005). 
 The design and implementation of FFTW3.
 https://doi.org/10.1109/JPROC.2004.840301

 Hartwigsen, C; Goedecker, S; Hutter, J. 
 PHYSICAL REVIEW B, 58 (7), 3641-3662 (1998). 
 Relativistic separable dual-space Gaussian pseudopotentials from H to Rn.
 https://doi.org/10.1103/PhysRevB.58.3641

 Lippert, G; Hutter, J; Parrinello, M. 
 MOLECULAR PHYSICS, 92 (3), 477-487 (1997). 
 A hybrid Gaussian and plane wave density functional scheme.
 https://doi.org/10.1080/002689797170220

 Perdew, JP; Burke, K; Ernzerhof, M. 
 PHYSICAL REVIEW LETTERS, 77 (18), 3865-3868 (1996). 
 Generalized gradient approximation made simple.
 https://doi.org/10.1103/PhysRevLett.77.3865

 Goedecker, S; Teter, M; Hutter, J. 
 PHYSICAL REVIEW B, 54 (3), 1703-1710 (1996). 
 Separable dual-space Gaussian pseudopotentials.
 https://doi.org/10.1103/PhysRevB.54.1703


 -------------------------------------------------------------------------------
 -                                                                             -
 -                                T I M I N G                                  -
 -                                                                             -
 -------------------------------------------------------------------------------
 SUBROUTINE                       CALLS  ASD         SELF TIME        TOTAL TIME
                                MAXIMUM       AVERAGE  MAXIMUM  AVERAGE  MAXIMUM
 CP2K                                 1  1.0    0.026    0.038  945.521  945.523
 qs_forces                            1  2.0    0.002    0.003  945.131  945.133
 qs_energies                          1  3.0    0.000    0.000  932.636  932.647
 scf_env_do_scf                       1  4.0    0.000    0.000  924.346  924.597
 scf_env_do_scf_inner_loop           79  5.0    0.004    0.013  924.346  924.596
 qs_scf_new_mos                      79  6.0    0.006    0.012  376.561  377.181
 eigensolver                         79  7.0    0.007    0.011  350.006  350.467
 rebuild_ks_matrix                   80  7.0    0.000    0.000  292.068  292.111
 qs_ks_build_kohn_sham_matrix        80  8.0    0.012    0.014  292.068  292.111
 qs_ks_update_qs_env                 79  6.0    0.001    0.001  284.086  284.129
 qs_rho_update_rho_low               80  6.0    0.001    0.001  249.478  249.505
 calculate_rho_elec                  80  7.0    0.188    0.219  249.477  249.504
 sum_up_and_integrate                80  9.0    0.336    0.439  245.226  245.275
 integrate_v_rspace                  80 10.0    0.003    0.003  244.890  244.988
 grid_collocate_task_list            80  8.0  219.459  225.469  219.459  225.469
 grid_integrate_task_list            80 11.0  213.895  219.420  213.895  219.420
 cp_fm_diag_elpa                     79  8.0    0.001    0.001  205.294  205.798
 cp_fm_diag_elpa_base                79  9.0  202.137  202.967  204.962  205.048
 cp_fm_triangular_multiply          237  8.0  141.806  143.740  141.806  143.740
 pw_transfer                       1600 10.9    0.113    0.144   43.990   44.751
 fft_wrap_pw1pw2                   1440 12.0    0.014    0.017   43.487   44.253
 rs_pw_transfer                     644 10.5    0.007    0.008   38.800   43.279
 fft_wrap_pw1pw2_200                960 13.3    3.948    4.326   41.852   42.653
 qs_vxc_create                       80  9.0    0.003    0.003   41.316   41.549
 xc_vxc_pw_create                    80 10.0    0.734    0.776   41.314   41.546
 fft3d_ps                          1440 14.0   15.871   17.893   32.038   33.034
 density_rs2pw                       80  8.0    0.005    0.006   27.475   31.876
 xc_pw_derive                       480 12.0    0.008    0.009   26.290   27.529
 xc_rho_set_and_dset_create          80 11.0    0.391    0.418   22.198   23.718
 potential_pw2rs                     80 11.0    0.030    0.035   23.258   23.348
 mp_waitany                       23328 12.4   16.681   21.340   16.681   21.340
 calculate_dm_sparse                 79  7.0    0.025    0.032   19.287   19.923
 cp_dbcsr_plus_fm_fm_t_native        80  8.0    0.004    0.008   19.220   19.909
 rs_pw_transfer_RS2PW_200            82 10.0    5.207    5.666   15.323   19.674
 -------------------------------------------------------------------------------

 The number of warnings for this run is : 1
 
 -------------------------------------------------------------------------------
  **** **** ******  **  PROGRAM ENDED AT                 2023-11-26 21:01:16.028
 ***** ** ***  *** **   PROGRAM RAN ON                                     cu054
 **    ****   ******    PROGRAM RAN BY                                     jxzhu
 ***** **    ** ** **   PROGRAM PROCESS ID                                 14926
  **** **  *******  **  PROGRAM STOPPED IN /public/home/jxzhu/tmp_calc/af2075565
                                           805657d94fa4669dad6f4b174b0a4fb/calc/
                                           002300.000/pbc
