 DBCSR| CPU Multiplication driver                                           XSMM
 DBCSR| Multrec recursion limit                                              512
 DBCSR| Multiplication stack size                                           1000
 DBCSR| Maximum elements for images                                    UNLIMITED
 DBCSR| Multiplicative factor virtual images                                   1
 DBCSR| Use multiplication densification                                       T
 DBCSR| Multiplication size stacks                                             3
 DBCSR| Use memory pool for CPU allocation                                     F
 DBCSR| Number of 3D layers                                               SINGLE
 DBCSR| Use MPI memory allocation                                              F
 DBCSR| Use RMA algorithm                                                      F
 DBCSR| Use Communication thread                                               T
 DBCSR| Communication thread load                                             87
 DBCSR| MPI: My node id                                                        0
 DBCSR| MPI: Number of nodes                                                 128
 DBCSR| OMP: Current number of threads                                         1
 DBCSR| OMP: Max number of threads                                             1
 DBCSR| Split modifier for TAS multiplication algorithm                  1.0E+00


  **** **** ******  **  PROGRAM STARTED AT               2023-12-02 08:32:46.812
 ***** ** ***  *** **   PROGRAM STARTED ON                                 cu001
 **    ****   ******    PROGRAM STARTED BY                                 jxzhu
 ***** **    ** ** **   PROGRAM PROCESS ID                                 24944
  **** **  *******  **  PROGRAM STARTED IN /public/home/jxzhu/tmp_calc/fea250621
                                           b2bd1e3c4170791f90379685be767b0/calc/
                                           001100.000/search_lo.000000

 CP2K| version string:                                       CP2K version 2022.1
 CP2K| source code revision number:                                  git:2caeb6f
 CP2K| cp2kflags: omp libint fftw3 libxc elpa parallel mpi3 scalapack cosma xsmm
 CP2K|             plumed2 spglib mkl sirius libvori libbqb
 CP2K| is freely available from                            https://www.cp2k.org/
 CP2K| Program compiled at                           Mon Jul 3 17:37:06 CST 2023
 CP2K| Program compiled on                                                 mu003
 CP2K| Program compiled for                                                local
 CP2K| Data directory path                             /public/home/jxzhu/basis/
 CP2K| Input file name                                                 input.inp
 
 GLOBAL| Force Environment number                                              1
 GLOBAL| Basis set file name                                        BASIS_MOLOPT
 GLOBAL| Potential file name                                      GTH_POTENTIALS
 GLOBAL| MM Potential file name                                     MM_POTENTIAL
 GLOBAL| Coordinate file name                                          coord.xyz
 GLOBAL| Method name                                                        CP2K
 GLOBAL| Project name                                                       cp2k
 GLOBAL| Run type                                                   ENERGY_FORCE
 GLOBAL| FFT library                                                       FFTW3
 GLOBAL| Diagonalization library                                            ELPA
 GLOBAL| Minimum number of eigenvectors for ELPA usage                        16
 GLOBAL| Orthonormality check for eigenvectors                          DISABLED
 GLOBAL| Matrix multiplication library                                     COSMA
 GLOBAL| All-to-all communication in single precision                          F
 GLOBAL| FFTs using library dependent lengths                                  T
 GLOBAL| Grid backend                                                       AUTO
 GLOBAL| Global print level                                               MEDIUM
 GLOBAL| MPI I/O enabled                                                       T
 GLOBAL| Total number of message passing processes                           128
 GLOBAL| Number of threads for this process                                    1
 GLOBAL| This output is from process                                           0
 GLOBAL| Stack size for threads created by OpenMP (OMP_STACKSIZE)        default
 GLOBAL| CPU model name                 Intel(R) Xeon(R) Gold 6338 CPU @ 2.00GHz
 GLOBAL| CPUID                                                              1003

 MEMORY| system memory details [Kb]
 MEMORY|                        rank 0           min           max       average
 MEMORY| MemTotal            263619172     263619172     263619172     263619172
 MEMORY| MemFree             219484284     216306816     219486144     217895677
 MEMORY| Buffers                    20            20            36            28
 MEMORY| Cached                1352392        706468       1352392       1029436
 MEMORY| Slab                  1342148       1342148       1419844       1380996
 MEMORY| SReclaimable           244608        230708        244608        237658
 MEMORY| MemLikelyFree       221081304     217244044     221083164     219162800


 *** Fundamental physical constants (SI units) ***

 *** Literature: B. J. Mohr and B. N. Taylor,
 ***             CODATA recommended values of the fundamental physical
 ***             constants: 2006, Web Version 5.1
 ***             http://physics.nist.gov/constants

 Speed of light in vacuum [m/s]                             2.99792458000000E+08
 Magnetic constant or permeability of vacuum [N/A**2]       1.25663706143592E-06
 Electric constant or permittivity of vacuum [F/m]          8.85418781762039E-12
 Planck constant (h) [J*s]                                  6.62606896000000E-34
 Planck constant (h-bar) [J*s]                              1.05457162825177E-34
 Elementary charge [C]                                      1.60217648700000E-19
 Electron mass [kg]                                         9.10938215000000E-31
 Electron g factor [ ]                                     -2.00231930436220E+00
 Proton mass [kg]                                           1.67262163700000E-27
 Fine-structure constant                                    7.29735253760000E-03
 Rydberg constant [1/m]                                     1.09737315685270E+07
 Avogadro constant [1/mol]                                  6.02214179000000E+23
 Boltzmann constant [J/K]                                   1.38065040000000E-23
 Atomic mass unit [kg]                                      1.66053878200000E-27
 Bohr radius [m]                                            5.29177208590000E-11

 *** Conversion factors ***

 [u] -> [a.u.]                                              1.82288848426455E+03
 [Angstrom] -> [Bohr] = [a.u.]                              1.88972613288564E+00
 [a.u.] = [Bohr] -> [Angstrom]                              5.29177208590000E-01
 [a.u.] -> [s]                                              2.41888432650478E-17
 [a.u.] -> [fs]                                             2.41888432650478E-02
 [a.u.] -> [J]                                              4.35974393937059E-18
 [a.u.] -> [N]                                              8.23872205491840E-08
 [a.u.] -> [K]                                              3.15774647902944E+05
 [a.u.] -> [kJ/mol]                                         2.62549961709828E+03
 [a.u.] -> [kcal/mol]                                       6.27509468713739E+02
 [a.u.] -> [Pa]                                             2.94210107994716E+13
 [a.u.] -> [bar]                                            2.94210107994716E+08
 [a.u.] -> [atm]                                            2.90362800883016E+08
 [a.u.] -> [eV]                                             2.72113838565563E+01
 [a.u.] -> [Hz]                                             6.57968392072181E+15
 [a.u.] -> [1/cm] (wave numbers)                            2.19474631370540E+05
 [a.u./Bohr**2] -> [1/cm]                                   5.14048714338585E+03
 

 CELL_TOP| Volume [angstrom^3]:                                     17614.982639
 CELL_TOP| Vector a [angstrom    16.869     0.000     0.000   |a| =    16.869000
 CELL_TOP| Vector b [angstrom    -8.434    14.609     0.000   |b| =    16.869015
 CELL_TOP| Vector c [angstrom     0.000     0.000    71.478   |c| =    71.478000
 CELL_TOP| Angle (b,c), alpha [degree]:                                90.000000
 CELL_TOP| Angle (a,c), beta  [degree]:                                90.000000
 CELL_TOP| Angle (a,b), gamma [degree]:                               119.999970
 CELL_TOP| Numerically orthorhombic:                                          NO
 
 GENERATE|  Preliminary Number of Bonds generated:                             0
 GENERATE|  Achieved consistency in connectivity generation.

 CELL| Volume [angstrom^3]:                                         17614.982639
 CELL| Vector a [angstrom]:      16.869     0.000     0.000   |a| =    16.869000
 CELL| Vector b [angstrom]:      -8.434    14.609     0.000   |b| =    16.869015
 CELL| Vector c [angstrom]:       0.000     0.000    71.478   |c| =    71.478000
 CELL| Angle (b,c), alpha [degree]:                                    90.000000
 CELL| Angle (a,c), beta  [degree]:                                    90.000000
 CELL| Angle (a,b), gamma [degree]:                                   119.999970
 CELL| Numerically orthorhombic:                                              NO

 CELL_REF| Volume [angstrom^3]:                                     17614.982639
 CELL_REF| Vector a [angstrom    16.869     0.000     0.000   |a| =    16.869000
 CELL_REF| Vector b [angstrom    -8.434    14.609     0.000   |b| =    16.869015
 CELL_REF| Vector c [angstrom     0.000     0.000    71.478   |c| =    71.478000
 CELL_REF| Angle (b,c), alpha [degree]:                                90.000000
 CELL_REF| Angle (a,c), beta  [degree]:                                90.000000
 CELL_REF| Angle (a,b), gamma [degree]:                               119.999970
 CELL_REF| Numerically orthorhombic:                                          NO

 *******************************************************************************
 *******************************************************************************
 **                                                                           **
 **     #####                         ##              ##                      **
 **    ##   ##            ##          ##              ##                      **
 **   ##     ##                       ##            ######                    **
 **   ##     ##  ##   ##  ##   #####  ##  ##   ####   ##    #####    #####    **
 **   ##     ##  ##   ##  ##  ##      ## ##   ##      ##   ##   ##  ##   ##   **
 **   ##  ## ##  ##   ##  ##  ##      ####     ###    ##   ######   ######    **
 **    ##  ###   ##   ##  ##  ##      ## ##      ##   ##   ##       ##        **
 **     #######   #####   ##   #####  ##  ##  ####    ##    #####   ##        **
 **           ##                                                    ##        **
 **                                                                           **
 **                                                ... make the atoms dance   **
 **                                                                           **
 **            Copyright (C) by CP2K developers group (2000-2022)             **
 **                      J. Chem. Phys. 152, 194103 (2020)                    **
 **                                                                           **
 *******************************************************************************

 DFT| Spin restricted Kohn-Sham (RKS) calculation                            RKS
 DFT| Multiplicity                                                             1
 DFT| Number of spin states                                                    1
 DFT| Charge                                                                   0
 DFT| Self-interaction correction (SIC)                                       NO
 DFT| Cutoffs: density                                              1.000000E-10
 DFT|          gradient                                             1.000000E-10
 DFT|          tau                                                  1.000000E-10
 DFT|          cutoff_smoothing_range                               0.000000E+00
 DFT| XC density smoothing                                                  NONE
 DFT| XC derivatives                                                          PW

 FUNCTIONAL| PBE:
 FUNCTIONAL| J.P.Perdew, K.Burke, M.Ernzerhof, Phys. Rev. Letter, vol. 77, n 18,
 FUNCTIONAL|  pp. 3865-3868, (1996){spin unpolarized}                           

 vdW POTENTIAL|                                                   Pair Potential
 vdW POTENTIAL|          DFT-D3 (Version 3.1)
 vdW POTENTIAL|          Potential Form: S. Grimme et al, JCP 132: 154104 (2010)
 vdW POTENTIAL|          Zero Damping
 vdW POTENTIAL|          Cutoff Radius [Bohr]:                             20.00
 vdW POTENTIAL|          s6 Scaling Factor:                               1.0000
 vdW POTENTIAL|          sr6 Scaling Factor:                              1.2170
 vdW POTENTIAL|          s8 Scaling Factor:                               0.7220
 vdW POTENTIAL|          Cutoff for CN calculation:                   0.1000E-05

 QS| Method:                                                                 GPW
 QS| Density plane wave grid type                        NON-SPHERICAL FULLSPACE
 QS| Number of grid levels:                                                    4
 QS| Density cutoff [a.u.]:                                                200.0
 QS| Multi grid cutoff [a.u.]: 1) grid level                               200.0
 QS|                           2) grid level                                66.7
 QS|                           3) grid level                                22.2
 QS|                           4) grid level                                 7.4
 QS| Grid level progression factor:                                          3.0
 QS| Relative density cutoff [a.u.]:                                        20.0
 QS| Interaction thresholds: eps_pgf_orb:                                3.2E-07
 QS|                         eps_filter_matrix:                          0.0E+00
 QS|                         eps_core_charge:                            1.0E-15
 QS|                         eps_rho_gspace:                             1.0E-13
 QS|                         eps_rho_rspace:                             1.0E-13
 QS|                         eps_gvg_rspace:                             3.2E-07
 QS|                         eps_ppl:                                    1.0E-02
 QS|                         eps_ppnl:                                   3.2E-09


 ATOMIC KIND INFORMATION

  1. Atomic kind: O                                     Number of atoms:      98

     Orbital Basis Set                                        DZVP-MOLOPT-SR-GTH

       Number of orbital shell sets:                                           1
       Number of orbital shells:                                               5
       Number of primitive Cartesian functions:                                5
       Number of Cartesian basis functions:                                   14
       Number of spherical basis functions:                                   13
       Norm type:                                                              2

       Normalised Cartesian orbitals:

                        Set   Shell   Orbital            Exponent    Coefficient

                          1       1    2s               10.389228       0.396646
                                                         3.849621       0.208811
                                                         1.388401      -0.301641
                                                         0.496955      -0.274061
                                                         0.162492      -0.033677

                          1       2    3s               10.389228       0.303673
                                                         3.849621       0.240943
                                                         1.388401      -0.313066
                                                         0.496955      -0.043055
                                                         0.162492       0.213991

                          1       3    3px              10.389228      -1.530415
                                                         3.849621      -1.371928
                                                         1.388401      -0.761951
                                                         0.496955      -0.253695
                                                         0.162492      -0.035541
                          1       3    3py              10.389228      -1.530415
                                                         3.849621      -1.371928
                                                         1.388401      -0.761951
                                                         0.496955      -0.253695
                                                         0.162492      -0.035541
                          1       3    3pz              10.389228      -1.530415
                                                         3.849621      -1.371928
                                                         1.388401      -0.761951
                                                         0.496955      -0.253695
                                                         0.162492      -0.035541

                          1       4    4px              10.389228      -0.565392
                                                         3.849621      -0.038231
                                                         1.388401      -0.382373
                                                         0.496955       0.179070
                                                         0.162492       0.122714
                          1       4    4py              10.389228      -0.565392
                                                         3.849621      -0.038231
                                                         1.388401      -0.382373
                                                         0.496955       0.179070
                                                         0.162492       0.122714
                          1       4    4pz              10.389228      -0.565392
                                                         3.849621      -0.038231
                                                         1.388401      -0.382373
                                                         0.496955       0.179070
                                                         0.162492       0.122714

                          1       5    4dx2             10.389228       1.867377
                                                         3.849621       0.670994
                                                         1.388401       1.353441
                                                         0.496955       0.273538
                                                         0.162492       0.006620
                          1       5    4dxy             10.389228       3.234392
                                                         3.849621       1.162195
                                                         1.388401       2.344229
                                                         0.496955       0.473781
                                                         0.162492       0.011466
                          1       5    4dxz             10.389228       3.234392
                                                         3.849621       1.162195
                                                         1.388401       2.344229
                                                         0.496955       0.473781
                                                         0.162492       0.011466
                          1       5    4dy2             10.389228       1.867377
                                                         3.849621       0.670994
                                                         1.388401       1.353441
                                                         0.496955       0.273538
                                                         0.162492       0.006620
                          1       5    4dyz             10.389228       3.234392
                                                         3.849621       1.162195
                                                         1.388401       2.344229
                                                         0.496955       0.473781
                                                         0.162492       0.011466
                          1       5    4dz2             10.389228       1.867377
                                                         3.849621       0.670994
                                                         1.388401       1.353441
                                                         0.496955       0.273538
                                                         0.162492       0.006620

       Atomic covalent radius [Angstrom]:                                  0.730

       Atomic van der Waals radius [Angstrom]:                             1.520

     GTH Potential information for                                    GTH-PBE-q6

       Description:                       Goedecker-Teter-Hutter pseudopotential
                                           Goedecker et al., PRB 54, 1703 (1996)
                                          Hartwigsen et al., PRB 58, 3641 (1998)
                                                      Krack, TCA 114, 145 (2005)

       Gaussian exponent of the core charge distribution:               8.360253
       Electronic configuration (s p d ...):                               2   4

       Parameters of the local part of the GTH pseudopotential:

                          rloc        C1          C2          C3          C4
                        0.244554  -16.667215    2.487311

       Parameters of the non-local part of the GTH pseudopotential:

                   l      r(l)      h(i,j,l)

                   0    0.220956   18.337458
                   1    0.211332

  2. Atomic kind: H                                     Number of atoms:     196

     Orbital Basis Set                                        DZVP-MOLOPT-SR-GTH

       Number of orbital shell sets:                                           1
       Number of orbital shells:                                               3
       Number of primitive Cartesian functions:                                5
       Number of Cartesian basis functions:                                    5
       Number of spherical basis functions:                                    5
       Norm type:                                                              2

       Normalised Cartesian orbitals:

                        Set   Shell   Orbital            Exponent    Coefficient

                          1       1    2s               10.068468      -0.133023
                                                         2.680223      -0.177618
                                                         0.791502      -0.258419
                                                         0.239116      -0.107525
                                                         0.082193      -0.014019

                          1       2    3s               10.068468       0.344673
                                                         2.680223       1.819821
                                                         0.791502      -0.999069
                                                         0.239116       0.017430
                                                         0.082193       0.082660

                          1       3    3px              10.068468       0.155326
                                                         2.680223       0.367157
                                                         0.791502       0.311480
                                                         0.239116       0.080105
                                                         0.082193       0.033440
                          1       3    3py              10.068468       0.155326
                                                         2.680223       0.367157
                                                         0.791502       0.311480
                                                         0.239116       0.080105
                                                         0.082193       0.033440
                          1       3    3pz              10.068468       0.155326
                                                         2.680223       0.367157
                                                         0.791502       0.311480
                                                         0.239116       0.080105
                                                         0.082193       0.033440

       Atomic covalent radius [Angstrom]:                                  0.320

       Atomic van der Waals radius [Angstrom]:                             1.090

     GTH Potential information for                                    GTH-PBE-q1

       Description:                       Goedecker-Teter-Hutter pseudopotential
                                           Goedecker et al., PRB 54, 1703 (1996)
                                          Hartwigsen et al., PRB 58, 3641 (1998)
                                                      Krack, TCA 114, 145 (2005)

       Gaussian exponent of the core charge distribution:              12.500000
       Electronic configuration (s p d ...):                                   1

       Parameters of the local part of the GTH pseudopotential:

                          rloc        C1          C2          C3          C4
                        0.200000   -4.178900    0.724463

  3. Atomic kind: Pt                                    Number of atoms:     216

     Orbital Basis Set                      DZVP-A5-Q10-323-MOL-T1-DERIVED_SET-1

       Number of orbital shell sets:                                           1
       Number of orbital shells:                                               6
       Number of primitive Cartesian functions:                                5
       Number of Cartesian basis functions:                                   23
       Number of spherical basis functions:                                   20
       Norm type:                                                              2

       Normalised Cartesian orbitals:

                        Set   Shell   Orbital            Exponent    Coefficient

                          1       1    2s                2.521825       0.177473
                                                         1.453920      -0.063399
                                                         0.614053      -0.407089
                                                         0.232656       0.262254
                                                         0.074788       0.047371

                          1       2    3s                2.521825      -0.049056
                                                         1.453920       0.044904
                                                         0.614053      -0.009756
                                                         0.232656      -0.144709
                                                         0.074788       0.144085

                          1       3    3px               2.521825      -0.317572
                                                         1.453920       0.534826
                                                         0.614053      -0.489458
                                                         0.232656       0.245631
                                                         0.074788       0.018221
                          1       3    3py               2.521825      -0.317572
                                                         1.453920       0.534826
                                                         0.614053      -0.489458
                                                         0.232656       0.245631
                                                         0.074788       0.018221
                          1       3    3pz               2.521825      -0.317572
                                                         1.453920       0.534826
                                                         0.614053      -0.489458
                                                         0.232656       0.245631
                                                         0.074788       0.018221

                          1       4    4dx2              2.521825       3.008522
                                                         1.453920      -1.224251
                                                         0.614053       0.225691
                                                         0.232656       0.125144
                                                         0.074788      -0.015348
                          1       4    4dxy              2.521825       5.210912
                                                         1.453920      -2.120465
                                                         0.614053       0.390909
                                                         0.232656       0.216756
                                                         0.074788      -0.026584
                          1       4    4dxz              2.521825       5.210912
                                                         1.453920      -2.120465
                                                         0.614053       0.390909
                                                         0.232656       0.216756
                                                         0.074788      -0.026584
                          1       4    4dy2              2.521825       3.008522
                                                         1.453920      -1.224251
                                                         0.614053       0.225691
                                                         0.232656       0.125144
                                                         0.074788      -0.015348
                          1       4    4dyz              2.521825       5.210912
                                                         1.453920      -2.120465
                                                         0.614053       0.390909
                                                         0.232656       0.216756
                                                         0.074788      -0.026584
                          1       4    4dz2              2.521825       3.008522
                                                         1.453920      -1.224251
                                                         0.614053       0.225691
                                                         0.232656       0.125144
                                                         0.074788      -0.015348

                          1       5    5dx2              2.521825       0.698026
                                                         1.453920      -1.511486
                                                         0.614053      -0.335394
                                                         0.232656      -0.025564
                                                         0.074788      -0.002699
                          1       5    5dxy              2.521825       1.209017
                                                         1.453920      -2.617970
                                                         0.614053      -0.580920
                                                         0.232656      -0.044277
                                                         0.074788      -0.004674
                          1       5    5dxz              2.521825       1.209017
                                                         1.453920      -2.617970
                                                         0.614053      -0.580920
                                                         0.232656      -0.044277
                                                         0.074788      -0.004674
                          1       5    5dy2              2.521825       0.698026
                                                         1.453920      -1.511486
                                                         0.614053      -0.335394
                                                         0.232656      -0.025564
                                                         0.074788      -0.002699
                          1       5    5dyz              2.521825       1.209017
                                                         1.453920      -2.617970
                                                         0.614053      -0.580920
                                                         0.232656      -0.044277
                                                         0.074788      -0.004674
                          1       5    5dz2              2.521825       0.698026
                                                         1.453920      -1.511486
                                                         0.614053      -0.335394
                                                         0.232656      -0.025564
                                                         0.074788      -0.002699

                          1       6    6dx2              2.521825       0.831079
                                                         1.453920      -0.709226
                                                         0.614053      -0.137351
                                                         0.232656       0.068642
                                                         0.074788       0.011745
                          1       6    6dxy              2.521825       1.439472
                                                         1.453920      -1.228415
                                                         0.614053      -0.237899
                                                         0.232656       0.118891
                                                         0.074788       0.020343
                          1       6    6dxz              2.521825       1.439472
                                                         1.453920      -1.228415
                                                         0.614053      -0.237899
                                                         0.232656       0.118891
                                                         0.074788       0.020343
                          1       6    6dy2              2.521825       0.831079
                                                         1.453920      -0.709226
                                                         0.614053      -0.137351
                                                         0.232656       0.068642
                                                         0.074788       0.011745
                          1       6    6dyz              2.521825       1.439472
                                                         1.453920      -1.228415
                                                         0.614053      -0.237899
                                                         0.232656       0.118891
                                                         0.074788       0.020343
                          1       6    6dz2              2.521825       0.831079
                                                         1.453920      -0.709226
                                                         0.614053      -0.137351
                                                         0.232656       0.068642
                                                         0.074788       0.011745

       Atomic covalent radius [Angstrom]:                                  1.300

       Atomic van der Waals radius [Angstrom]:                             1.750

     GTH Potential information for                                   GTH-PBE-q10

       Description:                       Goedecker-Teter-Hutter pseudopotential
                                           Goedecker et al., PRB 54, 1703 (1996)
                                          Hartwigsen et al., PRB 58, 3641 (1998)
                                                      Krack, TCA 114, 145 (2005)

       Gaussian exponent of the core charge distribution:               1.317676
       Electronic configuration (s p d ...):                           1   0   9

       Parameters of the local part of the GTH pseudopotential:

                          rloc        C1          C2          C3          C4
                        0.616000   11.313635

       Parameters of the non-local part of the GTH pseudopotential:

                   l      r(l)      h(i,j,l)

                   0    0.550904    4.733491   -1.784594
                                   -1.784594    2.303901
                   1    0.674138    2.534798   -1.778066
                                   -1.778066    2.103836
                   2    0.457392   -7.264011    2.558665
                                    2.558665   -2.901253


 MOLECULE KIND INFORMATION


 All atoms are their own molecule, skipping detailed information


 TOTAL NUMBERS AND MAXIMUM NUMBERS

  Total number of            - Atomic kinds:                                   3
                             - Atoms:                                        510
                             - Shell sets:                                   510
                             - Shells:                                      2374
                             - Primitive Cartesian functions:               2550
                             - Cartesian basis functions:                   7320
                             - Spherical basis functions:                   6574

  Maximum angular momentum of- Orbital basis functions:                        2
                             - Local part of the GTH pseudopotential:          2
                             - Non-local part of the GTH pseudopotential:      4


 MODULE QUICKSTEP:  ATOMIC COORDINATES IN angstrom

 Atom  Kind  Element       X           Y           Z          Z(eff)       Mass
    1   1 O    8       7.560000    1.980000   37.467998       6.0000     15.9994
    2   2 H    1       7.190001    2.800000   37.767999       1.0000      1.0079
    3   2 H    1       7.180000    1.400000   38.087999       1.0000      1.0079
    4   1 O    8       6.370000    5.930000   29.957999       6.0000     15.9994
    5   2 H    1       5.940001    5.630000   29.147998       1.0000      1.0079
    6   2 H    1       5.960000    5.330000   30.657998       1.0000      1.0079
    7   1 O    8       3.950000   -0.160000   37.937999       6.0000     15.9994
    8   2 H    1       3.460000    0.740000   37.747999       1.0000      1.0079
    9   2 H    1       3.390000   -0.870000   38.298000       1.0000      1.0079
   10   1 O    8       3.070000    2.170000   37.647998       6.0000     15.9994
   11   2 H    1       2.280000    2.570000   37.147998       1.0000      1.0079
   12   2 H    1       2.720000    2.220000   38.687999       1.0000      1.0079
   13   1 O    8       2.660000   23.870001   29.197998       6.0000     15.9994
   14   2 H    1       1.690000   23.930000   29.367998       1.0000      1.0079
   15   2 H    1       3.190000   23.010002   29.487998       1.0000      1.0079
   16   1 O    8      -4.760000   26.400002   30.337999       6.0000     15.9994
   17   2 H    1      -3.800000   26.160002   30.227998       1.0000      1.0079
   18   2 H    1       3.370000   12.650002   29.887998       1.0000      1.0079
   19   1 O    8       6.090000    1.440000   34.797999       6.0000     15.9994
   20   2 H    1       5.560000    0.620000   35.047999       1.0000      1.0079
   21   2 H    1       6.640000    1.670000   35.557998       1.0000      1.0079
   22   1 O    8      18.240002   17.270000   29.407998       6.0000     15.9994
   23   2 H    1      18.690001   18.180000   29.337999       1.0000      1.0079
   24   2 H    1      17.250000   17.360001   29.487998       1.0000      1.0079
   25   1 O    8     -10.250001   17.110001   37.647998       6.0000     15.9994
   26   2 H    1     -10.580001   16.200001   37.818000       1.0000      1.0079
   27   2 H    1     -10.570001   17.650002   38.458000       1.0000      1.0079
   28   1 O    8       4.190001   19.820002   35.777999       6.0000     15.9994
   29   2 H    1       4.580000   18.920000   35.667999       1.0000      1.0079
   30   2 H    1       4.010000   19.600000   36.727998       1.0000      1.0079
   31   1 O    8      14.620000   -6.990001   36.287999       6.0000     15.9994
   32   2 H    1      15.630001   -7.310000   36.267998       1.0000      1.0079
   33   2 H    1      30.980000   -7.770000   36.137998       1.0000      1.0079
   34   1 O    8       9.860001    1.960000   32.667999       6.0000     15.9994
   35   2 H    1       0.450000   16.430000   32.497999       1.0000      1.0079
   36   2 H    1      10.260000    1.730000   31.787999       1.0000      1.0079
   37   1 O    8      -6.420000  -26.630001   37.497999       6.0000     15.9994
   38   2 H    1      -7.250000  -26.900002   37.087999       1.0000      1.0079
   39   2 H    1      -5.750000  -27.100000   36.937999       1.0000      1.0079
   40   1 O    8      -6.330000   24.530001   34.517999       6.0000     15.9994
   41   2 H    1      -6.590000   24.490002   35.447998       1.0000      1.0079
   42   2 H    1      -7.150001   24.480001   33.957999       1.0000      1.0079
   43   1 O    8      11.080000   -4.990000   29.307998       6.0000     15.9994
   44   2 H    1      -5.480001   -4.060000   29.547999       1.0000      1.0079
   45   2 H    1      11.830001   -5.430000   29.707999       1.0000      1.0079
   46   1 O    8      14.910001   14.490002   38.897998       6.0000     15.9994
   47   2 H    1      14.970001   14.830000   39.808000       1.0000      1.0079
   48   2 H    1      13.950001   14.470000   38.617999       1.0000      1.0079
   49   1 O    8     -13.650000  -12.640000   35.287999       6.0000     15.9994
   50   2 H    1     -13.870001  -12.110001   34.477998       1.0000      1.0079
   51   2 H    1     -12.680000  -12.400000   35.217998       1.0000      1.0079
   52   1 O    8      -0.370000   13.310001   35.647999       6.0000     15.9994
   53   2 H    1       0.490000   13.440001   35.167999       1.0000      1.0079
   54   2 H    1      -0.610000   14.180001   35.997999       1.0000      1.0079
   55   1 O    8      22.430000   14.890001   38.187999       6.0000     15.9994
   56   2 H    1      23.059999   14.400001   38.787999       1.0000      1.0079
   57   2 H    1      22.120001   14.230001   37.477998       1.0000      1.0079
   58   1 O    8      14.650001   19.890001   32.587998       6.0000     15.9994
   59   2 H    1      15.580001   19.550001   32.437998       1.0000      1.0079
   60   2 H    1      14.010000   19.180000   32.787999       1.0000      1.0079
   61   1 O    8      16.690001   -3.290000   36.167999       6.0000     15.9994
   62   2 H    1      15.990001   -3.780000   35.617999       1.0000      1.0079
   63   2 H    1       8.110001   12.310000   36.067998       1.0000      1.0079
   64   1 O    8       0.180000   23.800001   29.827998       6.0000     15.9994
   65   2 H    1       0.160000   22.840002   30.087999       1.0000      1.0079
   66   2 H    1      -0.530000   23.670002   29.107999       1.0000      1.0079
   67   1 O    8      -0.100000   12.360001   38.137998       6.0000     15.9994
   68   2 H    1      -0.080000   12.600001   37.137998       1.0000      1.0079
   69   2 H    1      -0.900000   12.910000   38.397998       1.0000      1.0079
   70   1 O    8     -10.290001   33.570000   39.057998       6.0000     15.9994
   71   2 H    1       6.890000   34.480003   39.227998       1.0000      1.0079
   72   2 H    1     -11.260000   33.750004   38.777999       1.0000      1.0079
   73   1 O    8      -1.170000   28.030003   39.737998       6.0000     15.9994
   74   2 H    1      -0.720000   27.150002   39.317998       1.0000      1.0079
   75   2 H    1      -1.650000   27.660000   40.517999       1.0000      1.0079
   76   1 O    8       1.670000   -0.240000   29.717999       6.0000     15.9994
   77   2 H    1       2.010000   -0.950000   30.247999       1.0000      1.0079
   78   2 H    1       1.780000   -0.560000   28.737998       1.0000      1.0079
   79   1 O    8      -4.820000    4.950000   38.307998       6.0000     15.9994
   80   2 H    1      -5.310000    5.850000   38.378000       1.0000      1.0079
   81   2 H    1      -5.530000    4.320000   38.097999       1.0000      1.0079
   82   1 O    8     -33.420002    5.950000   36.887999       6.0000     15.9994
   83   2 H    1     -15.880001    6.640000   37.147998       1.0000      1.0079
   84   2 H    1     -17.250000    5.990000   37.638000       1.0000      1.0079
   85   1 O    8      10.290001   -0.570000   34.017998       6.0000     15.9994
   86   2 H    1      10.050000    0.260000   33.557998       1.0000      1.0079
   87   2 H    1      11.230000   -0.480000   34.157998       1.0000      1.0079
   88   1 O    8       7.450001    9.180000   39.897998       6.0000     15.9994
   89   2 H    1       7.670000    8.250000   40.107999       1.0000      1.0079
   90   2 H    1       7.050000    9.540001   40.757999       1.0000      1.0079
   91   1 O    8       3.090000   36.400002   34.107999       6.0000     15.9994
   92   2 H    1       2.650000   37.320000   34.267999       1.0000      1.0079
   93   2 H    1       3.960000   36.540001   33.547999       1.0000      1.0079
   94   1 O    8       6.190000   10.890001   30.217999       6.0000     15.9994
   95   2 H    1       5.890000    9.990001   29.947998       1.0000      1.0079
   96   2 H    1       6.690001   11.250000   29.417999       1.0000      1.0079
   97   1 O    8     -10.230000   21.150000   35.107999       6.0000     15.9994
   98   2 H    1     -11.020000   20.630001   35.357999       1.0000      1.0079
   99   2 H    1      -9.420000   20.760002   35.487998       1.0000      1.0079
  100   1 O    8       7.350000   17.990002   30.027998       6.0000     15.9994
  101   2 H    1       7.380000   17.910002   29.007998       1.0000      1.0079
  102   2 H    1       7.800000   18.790001   30.297998       1.0000      1.0079
  103   1 O    8      25.730001   -6.180000   30.497999       6.0000     15.9994
  104   2 H    1      16.400002    8.440001   30.107998       1.0000      1.0079
  105   2 H    1      26.170002   -5.480001   29.917999       1.0000      1.0079
  106   1 O    8       8.890000    7.310000   36.157999       6.0000     15.9994
  107   2 H    1       9.220000    6.480000   35.597999       1.0000      1.0079
  108   2 H    1       9.310000    8.090000   35.677998       1.0000      1.0079
  109   1 O    8      -5.890000   12.200001   38.807998       6.0000     15.9994
  110   2 H    1       9.970000   12.000000   38.558000       1.0000      1.0079
  111   2 H    1      -6.100000   12.610001   39.767999       1.0000      1.0079
  112   1 O    8       2.950000   33.639999   29.157998       6.0000     15.9994
  113   2 H    1       3.050000   32.720001   29.427998       1.0000      1.0079
  114   2 H    1      18.980001   34.050003   29.617998       1.0000      1.0079
  115   1 O    8      -2.730000    8.400001   37.247999       6.0000     15.9994
  116   2 H    1      -2.350000    8.110001   36.447998       1.0000      1.0079
  117   2 H    1      -2.740000    7.560000   37.767999       1.0000      1.0079
  118   1 O    8       4.240000   -2.910000   29.087999       6.0000     15.9994
  119   2 H    1       5.090000   -3.470000   29.307998       1.0000      1.0079
  120   2 H    1       3.520000   -3.550000   29.067998       1.0000      1.0079
  121   1 O    8      -3.620000    3.760000   30.507999       6.0000     15.9994
  122   2 H    1      -2.700000    3.500000   30.297998       1.0000      1.0079
  123   2 H    1      -3.450000    4.380000   31.277999       1.0000      1.0079
  124   1 O    8     -20.200001   23.920002   38.197999       6.0000     15.9994
  125   2 H    1     -19.470001   24.050003   38.888000       1.0000      1.0079
  126   2 H    1     -19.920002   23.300001   37.477998       1.0000      1.0079
  127   1 O    8       5.350000    7.820001   32.697998       6.0000     15.9994
  128   2 H    1       5.890000    6.990001   32.817998       1.0000      1.0079
  129   2 H    1       5.860000    8.530001   33.157998       1.0000      1.0079
  130   1 O    8       2.720000   -1.660000   31.677999       6.0000     15.9994
  131   2 H    1       2.570000   -2.660000   31.827998       1.0000      1.0079
  132   2 H    1      12.120000   13.050001   31.407998       1.0000      1.0079
  133   1 O    8       4.430000    3.530000   33.947998       6.0000     15.9994
  134   2 H    1       3.490000    3.350000   33.708000       1.0000      1.0079
  135   2 H    1       4.810000    2.740000   34.397999       1.0000      1.0079
  136   1 O    8       0.050000   11.760000   30.107998       6.0000     15.9994
  137   2 H    1     -16.160000   11.610001   30.787999       1.0000      1.0079
  138   2 H    1       0.380000   11.520000   29.207999       1.0000      1.0079
  139   1 O    8      16.500000   -0.650000   35.677998       6.0000     15.9994
  140   2 H    1       7.410001   14.120001   35.017998       1.0000      1.0079
  141   2 H    1      17.410000   -0.610000   35.137999       1.0000      1.0079
  142   1 O    8      -3.880000   14.030001   35.457999       6.0000     15.9994
  143   2 H    1      -3.440000   13.160001   35.187999       1.0000      1.0079
  144   2 H    1      -4.150000   14.030001   36.457999       1.0000      1.0079
  145   1 O    8      19.380001   12.450000   38.857999       6.0000     15.9994
  146   2 H    1      18.480000   12.400000   38.497999       1.0000      1.0079
  147   2 H    1      20.090000   12.230001   38.197999       1.0000      1.0079
  148   1 O    8     -16.340000    6.140000   33.417999       6.0000     15.9994
  149   2 H    1     -15.430001    6.230001   33.847999       1.0000      1.0079
  150   2 H    1     -16.690001    7.070000   33.437998       1.0000      1.0079
  151   1 O    8       0.810000   -9.780001   32.247999       6.0000     15.9994
  152   2 H    1       0.770000   -9.130000   31.477998       1.0000      1.0079
  153   2 H    1       1.010000  -10.710001   31.997999       1.0000      1.0079
  154   1 O    8      -2.660000    2.870000   35.107999       6.0000     15.9994
  155   2 H    1      -1.860000    3.020000   34.497999       1.0000      1.0079
  156   2 H    1      -2.270000    2.690000   35.987998       1.0000      1.0079
  157   1 O    8      16.290001    9.770000   38.497999       6.0000     15.9994
  158   2 H    1      15.580001    9.420000   37.917999       1.0000      1.0079
  159   2 H    1      16.400002   10.770000   38.397998       1.0000      1.0079
  160   1 O    8       3.880000   21.960001   30.277998       6.0000     15.9994
  161   2 H    1       3.600000   22.170000   31.257999       1.0000      1.0079
  162   2 H    1       4.830000   21.730001   30.287999       1.0000      1.0079
  163   1 O    8      14.100000   28.770000   29.557998       6.0000     15.9994
  164   2 H    1      14.970001   29.220001   29.817998       1.0000      1.0079
  165   2 H    1      13.450001   29.510002   29.567998       1.0000      1.0079
  166   1 O    8      10.620001   14.290000   34.107999       6.0000     15.9994
  167   2 H    1      11.460000   14.220000   34.577999       1.0000      1.0079
  168   2 H    1      10.930000   13.730000   33.227998       1.0000      1.0079
  169   1 O    8      15.310000    6.060000   38.907998       6.0000     15.9994
  170   2 H    1      15.570001    6.580000   39.667999       1.0000      1.0079
  171   2 H    1      15.120001    5.230000   39.357999       1.0000      1.0079
  172   1 O    8       1.870000   20.520000   34.467999       6.0000     15.9994
  173   2 H    1       1.410000   20.150002   33.647998       1.0000      1.0079
  174   2 H    1       2.640000   20.030001   34.817998       1.0000      1.0079
  175   1 O    8       4.750000   13.400001   32.867999       6.0000     15.9994
  176   2 H    1       4.560000   12.870001   32.117998       1.0000      1.0079
  177   2 H    1       5.750000   13.660001   32.887999       1.0000      1.0079
  178   1 O    8      -1.040000   17.750000   30.067998       6.0000     15.9994
  179   2 H    1      -1.480000   17.030001   30.587999       1.0000      1.0079
  180   2 H    1      -1.720000   17.980001   29.337999       1.0000      1.0079
  181   1 O    8       5.260000   24.330002   32.827998       6.0000     15.9994
  182   2 H    1       4.500000   23.800001   33.097999       1.0000      1.0079
  183   2 H    1       5.390000   25.020000   33.557998       1.0000      1.0079
  184   1 O    8       0.810000    5.540000   30.577998       6.0000     15.9994
  185   2 H    1       0.410000    6.340000   30.207999       1.0000      1.0079
  186   2 H    1       0.890000    5.810000   31.517998       1.0000      1.0079
  187   1 O    8       2.910000   19.300001   29.137998       6.0000     15.9994
  188   2 H    1       2.710000   20.170002   29.467998       1.0000      1.0079
  189   2 H    1       3.770000   19.020000   29.487998       1.0000      1.0079
  190   1 O    8      30.940001   40.760002   34.807999       6.0000     15.9994
  191   2 H    1      30.640001   40.440002   35.677998       1.0000      1.0079
  192   2 H    1      31.770000   41.110001   34.907999       1.0000      1.0079
  193   1 O    8      14.120001    3.850000   39.917999       6.0000     15.9994
  194   2 H    1      14.100000    3.420000   40.808000       1.0000      1.0079
  195   2 H    1      13.220000    4.050000   39.658000       1.0000      1.0079
  196   1 O    8      -8.940001   15.420000   30.507999       6.0000     15.9994
  197   2 H    1      -8.100000   15.030001   30.117998       1.0000      1.0079
  198   2 H    1      -9.020000   16.390001   30.267999       1.0000      1.0079
  199   1 O    8      19.870001    2.020000   30.277998       6.0000     15.9994
  200   2 H    1      19.480001    1.180000   29.877999       1.0000      1.0079
  201   2 H    1      19.450001    2.090000   31.247999       1.0000      1.0079
  202   1 O    8     -16.950001    8.900001   33.227998       6.0000     15.9994
  203   2 H    1     -16.660002    8.840000   32.247999       1.0000      1.0079
  204   2 H    1     -17.930000    8.920000   33.247999       1.0000      1.0079
  205   1 O    8     -12.670001   11.460000   34.577999       6.0000     15.9994
  206   2 H    1     -13.530001   10.940001   34.407998       1.0000      1.0079
  207   2 H    1       4.390000   12.100000   33.907998       1.0000      1.0079
  208   1 O    8       1.880000   -7.490000   38.337999       6.0000     15.9994
  209   2 H    1       1.400000   -7.370000   37.497999       1.0000      1.0079
  210   2 H    1       2.290000   -6.610000   38.597999       1.0000      1.0079
  211   1 O    8       1.780000   -4.230000   32.647998       6.0000     15.9994
  212   2 H    1       1.940000   -3.990000   33.587999       1.0000      1.0079
  213   2 H    1       0.780000   -3.910000   32.577998       1.0000      1.0079
  214   1 O    8      14.550000   10.220001   30.537999       6.0000     15.9994
  215   2 H    1      14.070001   10.050000   31.387998       1.0000      1.0079
  216   2 H    1      15.410002   10.680000   30.667999       1.0000      1.0079
  217   1 O    8     -11.590000   29.960001   30.097999       6.0000     15.9994
  218   2 H    1     -12.510000   30.389999   30.157998       1.0000      1.0079
  219   2 H    1     -11.580001   29.760000   29.137998       1.0000      1.0079
  220   1 O    8      14.610001   24.330002   34.357998       6.0000     15.9994
  221   2 H    1      14.610001   23.590002   35.037999       1.0000      1.0079
  222   2 H    1      13.750001   24.860001   34.437999       1.0000      1.0079
  223   1 O    8      19.560001   24.170000   39.798000       6.0000     15.9994
  224   2 H    1      20.389999   23.780001   40.157998       1.0000      1.0079
  225   2 H    1      19.690001   25.110001   39.407998       1.0000      1.0079
  226   1 O    8      21.730001    8.330001   30.017998       6.0000     15.9994
  227   2 H    1      22.330000    7.960001   29.297999       1.0000      1.0079
  228   2 H    1      22.030001    8.010000   30.977998       1.0000      1.0079
  229   1 O    8      -5.310000    7.900000   32.767998       6.0000     15.9994
  230   2 H    1      -5.970000    8.740000   32.717998       1.0000      1.0079
  231   2 H    1      -5.700001    7.200000   33.287999       1.0000      1.0079
  232   1 O    8      12.930001   -2.390000   37.327998       6.0000     15.9994
  233   2 H    1      13.400001   -3.310000   37.467998       1.0000      1.0079
  234   2 H    1      12.640000   -2.370000   36.367998       1.0000      1.0079
  235   1 O    8      -7.800000   17.840000   36.517999       6.0000     15.9994
  236   2 H    1      -7.750000   18.810001   36.537999       1.0000      1.0079
  237   2 H    1      -8.590000   17.490002   37.007999       1.0000      1.0079
  238   1 O    8       8.420001   11.320001   38.677999       6.0000     15.9994
  239   2 H    1       8.260000   10.460000   39.138000       1.0000      1.0079
  240   2 H    1       8.100000   11.190001   37.708000       1.0000      1.0079
  241   1 O    8      -0.680000   25.830002   32.697998       6.0000     15.9994
  242   2 H    1      -1.080000   25.910000   31.737998       1.0000      1.0079
  243   2 H    1      -1.150000   25.160000   33.207999       1.0000      1.0079
  244   1 O    8      33.730003   14.310001   30.087999       6.0000     15.9994
  245   2 H    1      33.290001   14.720001   29.267998       1.0000      1.0079
  246   2 H    1      33.510002   13.360001   30.047999       1.0000      1.0079
  247   1 O    8       4.250000   -3.920000   36.987998       6.0000     15.9994
  248   2 H    1       3.710000   -3.490000   37.677999       1.0000      1.0079
  249   2 H    1       4.550000   -4.800000   37.228000       1.0000      1.0079
  250   1 O    8      -9.460000   30.560001   32.337999       6.0000     15.9994
  251   2 H    1      -9.960001   30.290001   33.167999       1.0000      1.0079
  252   2 H    1      -9.420000   29.760000   31.707999       1.0000      1.0079
  253   1 O    8      14.790001    7.720000   30.037999       6.0000     15.9994
  254   2 H    1      14.540001    8.740000   30.167999       1.0000      1.0079
  255   2 H    1      14.790001    7.580000   29.087999       1.0000      1.0079
  256   1 O    8      -9.520000   14.310001   33.027998       6.0000     15.9994
  257   2 H    1      -9.350000   14.890001   32.227999       1.0000      1.0079
  258   2 H    1      -8.880001   13.600000   32.827998       1.0000      1.0079
  259   1 O    8     -15.240001   11.860001   32.177999       6.0000     15.9994
  260   2 H    1     -14.400001   11.670000   31.677999       1.0000      1.0079
  261   2 H    1     -15.160000   12.610001   32.767998       1.0000      1.0079
  262   1 O    8       5.910000   -1.290000   31.787999       6.0000     15.9994
  263   2 H    1       5.580000   -0.470000   31.267998       1.0000      1.0079
  264   2 H    1       6.520000   -1.770000   31.208000       1.0000      1.0079
  265   1 O    8       4.070000    4.850000   38.408000       6.0000     15.9994
  266   2 H    1      12.650002   -9.390000   37.527999       1.0000      1.0079
  267   2 H    1       3.600000    4.050000   38.057998       1.0000      1.0079
  268   1 O    8      17.450001   20.910000   30.117998       6.0000     15.9994
  269   2 H    1      17.730001   21.040001   29.217999       1.0000      1.0079
  270   2 H    1      16.460001   20.610001   29.997999       1.0000      1.0079
  271   1 O    8       9.930000   -5.940001   36.917999       6.0000     15.9994
  272   2 H    1       9.470000   -5.510000   37.627998       1.0000      1.0079
  273   2 H    1      10.850000   -6.070001   37.177999       1.0000      1.0079
  274   1 O    8      16.560001   32.670002   33.947998       6.0000     15.9994
  275   2 H    1      16.530001   33.670002   33.897998       1.0000      1.0079
  276   2 H    1      16.950001   32.450001   34.847999       1.0000      1.0079
  277   1 O    8       1.800000   24.180002   35.467999       6.0000     15.9994
  278   2 H    1      19.450001   24.050003   36.067998       1.0000      1.0079
  279   2 H    1      18.150002   24.920002   35.817998       1.0000      1.0079
  280   1 O    8       3.690000   15.840001   31.237998       6.0000     15.9994
  281   2 H    1       4.310000   16.590000   31.137998       1.0000      1.0079
  282   2 H    1       4.100000   15.230001   31.847998       1.0000      1.0079
  283   1 O    8      19.430000   14.080001   29.477999       6.0000     15.9994
  284   2 H    1      19.810001   14.860001   29.917999       1.0000      1.0079
  285   2 H    1      18.460001   14.270000   29.517998       1.0000      1.0079
  286   1 O    8      14.320001    5.760000   32.297999       6.0000     15.9994
  287   2 H    1      14.900002    6.460000   31.977998       1.0000      1.0079
  288   2 H    1      14.470000    5.570001   33.227998       1.0000      1.0079
  289   1 O    8      -4.030000   20.280001   35.747999       6.0000     15.9994
  290   2 H    1      -3.790000   19.620001   35.027999       1.0000      1.0079
  291   2 H    1      -4.680000   20.830002   35.247999       1.0000      1.0079
  292   1 O    8     -14.670001    2.250000   33.037999       6.0000     15.9994
  293   2 H    1     -15.620001    2.490000   33.087999       1.0000      1.0079
  294   2 H    1       2.360000    1.350000   33.317998       1.0000      1.0079
  295   3 Pt  78       1.930000    0.890000   15.279999      10.0000    195.0840
  296   3 Pt  78       4.730000    0.860000   15.170002      10.0000    195.0840
  297   3 Pt  78       7.590001    0.930000   15.270000      10.0000    195.0840
  298   3 Pt  78      10.310000    0.830000   15.180000      10.0000    195.0840
  299   3 Pt  78      13.110001    0.910000   15.219997      10.0000    195.0840
  300   3 Pt  78      15.950001    0.780000   15.180000      10.0000    195.0840
  301   3 Pt  78       3.380000    3.280000   15.279999      10.0000    195.0840
  302   3 Pt  78       6.100000    3.180000   15.389999      10.0000    195.0840
  303   3 Pt  78       8.990001    3.320000   15.310001      10.0000    195.0840
  304   3 Pt  78      11.670000    3.290000   15.000000      10.0000    195.0840
  305   3 Pt  78      14.530001    3.230000   15.250000      10.0000    195.0840
  306   3 Pt  78       0.480000    3.290000   15.259998      10.0000    195.0840
  307   3 Pt  78       4.820000    5.600000   15.250000      10.0000    195.0840
  308   3 Pt  78       7.590001    5.740000   15.230000      10.0000    195.0840
  309   3 Pt  78      10.260000    5.650000   15.090000      10.0000    195.0840
  310   3 Pt  78      13.120001    5.670000   15.480000      10.0000    195.0840
  311   3 Pt  78      -0.950000    5.700001   15.279999      10.0000    195.0840
  312   3 Pt  78       1.800000    5.680000   15.250000      10.0000    195.0840
  313   3 Pt  78       6.060000    8.050001   15.219997      10.0000    195.0840
  314   3 Pt  78       8.760000    8.070001   15.230000      10.0000    195.0840
  315   3 Pt  78      11.690001    8.070001   15.259998      10.0000    195.0840
  316   3 Pt  78      -2.390000    8.150001   15.279999      10.0000    195.0840
  317   3 Pt  78       0.440000    8.140000   15.279999      10.0000    195.0840
  318   3 Pt  78       3.180000    8.030001   15.219997      10.0000    195.0840
  319   3 Pt  78       7.380000   10.480001   15.170002      10.0000    195.0840
  320   3 Pt  78      10.220001   10.510000   15.209999      10.0000    195.0840
  321   3 Pt  78      -3.920000   10.600000   15.170002      10.0000    195.0840
  322   3 Pt  78      -0.800000   10.610001   15.139999      10.0000    195.0840
  323   3 Pt  78       1.910000   10.520000   15.059998      10.0000    195.0840
  324   3 Pt  78       4.730000   10.559999   15.259998      10.0000    195.0840
  325   3 Pt  78       8.810000   12.920000   15.259998      10.0000    195.0840
  326   3 Pt  78      -5.170000   13.160001   15.049999      10.0000    195.0840
  327   3 Pt  78      -2.340000   12.890000   15.240002      10.0000    195.0840
  328   3 Pt  78       0.310000   13.200001   15.279999      10.0000    195.0840
  329   3 Pt  78       3.210000   12.960000   15.149998      10.0000    195.0840
  330   3 Pt  78       6.060000   13.090000   15.380001      10.0000    195.0840
  331   3 Pt  78       0.290000    1.540000   17.619999      10.0000    195.0840
  332   3 Pt  78       3.100000    1.600000   17.579998      10.0000    195.0840
  333   3 Pt  78       5.930000    1.440000   17.660000      10.0000    195.0840
  334   3 Pt  78       8.740000    1.500000   17.779999      10.0000    195.0840
  335   3 Pt  78      11.640000    1.540000   17.549999      10.0000    195.0840
  336   3 Pt  78      14.340000    1.440000   17.590000      10.0000    195.0840
  337   3 Pt  78       1.730000    4.010000   17.520000      10.0000    195.0840
  338   3 Pt  78       4.720000    4.030000   17.639999      10.0000    195.0840
  339   3 Pt  78       7.430000    3.910000   17.619999      10.0000    195.0840
  340   3 Pt  78      10.110001    3.860000   17.570000      10.0000    195.0840
  341   3 Pt  78      12.880001    4.000000   17.689999      10.0000    195.0840
  342   3 Pt  78      -1.220000    3.940000   17.649998      10.0000    195.0840
  343   3 Pt  78       3.110000    6.530001   17.509998      10.0000    195.0840
  344   3 Pt  78       5.970000    6.410000   17.670002      10.0000    195.0840
  345   3 Pt  78       8.740000    6.450000   17.689999      10.0000    195.0840
  346   3 Pt  78      11.400002    6.390000   17.470001      10.0000    195.0840
  347   3 Pt  78      -2.500000    6.390000   17.700001      10.0000    195.0840
  348   3 Pt  78       0.320000    6.400001   17.649998      10.0000    195.0840
  349   3 Pt  78       4.490000    8.890000   17.610001      10.0000    195.0840
  350   3 Pt  78       7.180000    8.910000   17.610001      10.0000    195.0840
  351   3 Pt  78      10.140000    8.890000   17.540001      10.0000    195.0840
  352   3 Pt  78      -3.960000    8.750001   17.570000      10.0000    195.0840
  353   3 Pt  78      -1.070000    8.740000   17.619999      10.0000    195.0840
  354   3 Pt  78       1.740000    8.940001   17.540001      10.0000    195.0840
  355   3 Pt  78       5.920000   11.370001   17.610001      10.0000    195.0840
  356   3 Pt  78       8.790001   11.390000   17.570000      10.0000    195.0840
  357   3 Pt  78      -5.360000   11.240001   17.399998      10.0000    195.0840
  358   3 Pt  78      -2.480000   11.170001   17.410000      10.0000    195.0840
  359   3 Pt  78       0.310000   11.400002   17.600002      10.0000    195.0840
  360   3 Pt  78       2.950000   11.410000   17.419998      10.0000    195.0840
  361   3 Pt  78       7.300000   13.670001   17.649998      10.0000    195.0840
  362   3 Pt  78      -6.670001   13.830000   17.480000      10.0000    195.0840
  363   3 Pt  78      -3.990000   13.640001   17.489998      10.0000    195.0840
  364   3 Pt  78      -1.160000   13.730000   17.610001      10.0000    195.0840
  365   3 Pt  78       1.650000   13.780001   17.520000      10.0000    195.0840
  366   3 Pt  78       4.430000   13.750001   17.649998      10.0000    195.0840
  367   3 Pt  78      -8.270000   14.530001   19.829998      10.0000    195.0840
  368   3 Pt  78      -5.430000   14.490002   19.810001      10.0000    195.0840
  369   3 Pt  78      -2.580000   14.380001   19.899998      10.0000    195.0840
  370   3 Pt  78       0.140000   14.390000   19.980000      10.0000    195.0840
  371   3 Pt  78       2.970000   14.490002   19.920002      10.0000    195.0840
  372   3 Pt  78       5.750000   14.540001   20.009998      10.0000    195.0840
  373   3 Pt  78       1.530000    2.370000   19.899998      10.0000    195.0840
  374   3 Pt  78       4.420000    2.350000   19.840000      10.0000    195.0840
  375   3 Pt  78       7.210000    2.380000   20.050003      10.0000    195.0840
  376   3 Pt  78      10.030001    2.210000   19.950001      10.0000    195.0840
  377   3 Pt  78      12.920000    2.300000   20.000000      10.0000    195.0840
  378   3 Pt  78      -1.250000    2.340000   19.959999      10.0000    195.0840
  379   3 Pt  78       3.050000    4.790000   19.910000      10.0000    195.0840
  380   3 Pt  78       5.870000    4.770000   19.920002      10.0000    195.0840
  381   3 Pt  78       8.700001    4.810000   19.939999      10.0000    195.0840
  382   3 Pt  78      11.390000    4.730000   19.969997      10.0000    195.0840
  383   3 Pt  78      -2.670000    4.690000   19.980000      10.0000    195.0840
  384   3 Pt  78       0.270000    4.780000   19.950001      10.0000    195.0840
  385   3 Pt  78       4.440001    7.210000   19.930000      10.0000    195.0840
  386   3 Pt  78       7.280001    7.310000   19.950001      10.0000    195.0840
  387   3 Pt  78      10.010000    7.320001   19.850002      10.0000    195.0840
  388   3 Pt  78      -4.110000    7.180000   19.910000      10.0000    195.0840
  389   3 Pt  78      -1.140000    7.190001   20.000000      10.0000    195.0840
  390   3 Pt  78       1.620000    7.180000   19.880001      10.0000    195.0840
  391   3 Pt  78       5.800000    9.770000   19.939999      10.0000    195.0840
  392   3 Pt  78       8.610001    9.660000   19.810001      10.0000    195.0840
  393   3 Pt  78      -5.400000    9.680000   19.770000      10.0000    195.0840
  394   3 Pt  78      -2.550000    9.550000   19.880001      10.0000    195.0840
  395   3 Pt  78       0.310000    9.580001   19.930000      10.0000    195.0840
  396   3 Pt  78       2.970000    9.700001   19.930000      10.0000    195.0840
  397   3 Pt  78       7.190001   12.110001   19.959999      10.0000    195.0840
  398   3 Pt  78      -6.870000   12.160001   19.770000      10.0000    195.0840
  399   3 Pt  78      -4.050000   12.050000   19.869999      10.0000    195.0840
  400   3 Pt  78      -1.210000   11.980001   19.899998      10.0000    195.0840
  401   3 Pt  78       1.550000   12.090001   19.969997      10.0000    195.0840
  402   3 Pt  78       4.330000   12.140001   19.939999      10.0000    195.0840
  403   3 Pt  78       1.580000    0.720000   22.127998      10.0000    195.0840
  404   3 Pt  78       4.410000    0.600000   22.127998      10.0000    195.0840
  405   3 Pt  78       7.150001    0.750000   22.297998      10.0000    195.0840
  406   3 Pt  78       9.960001    0.700000   22.287998      10.0000    195.0840
  407   3 Pt  78      12.810000    0.630000   22.287998      10.0000    195.0840
  408   3 Pt  78      15.560001    0.670000   22.277998      10.0000    195.0840
  409   3 Pt  78       3.010000    3.040000   22.237998      10.0000    195.0840
  410   3 Pt  78       5.760000    3.110000   22.237998      10.0000    195.0840
  411   3 Pt  78       8.570001    3.270000   22.247998      10.0000    195.0840
  412   3 Pt  78      11.350001    3.010000   22.297998      10.0000    195.0840
  413   3 Pt  78      14.200001    3.090000   22.287998      10.0000    195.0840
  414   3 Pt  78       0.160000    3.070000   22.277998      10.0000    195.0840
  415   3 Pt  78       4.300000    5.550000   22.267998      10.0000    195.0840
  416   3 Pt  78       7.140000    5.680000   22.227998      10.0000    195.0840
  417   3 Pt  78       9.900001    5.640000   22.247998      10.0000    195.0840
  418   3 Pt  78      12.710000    5.530000   22.207998      10.0000    195.0840
  419   3 Pt  78      -1.300000    5.520000   22.177998      10.0000    195.0840
  420   3 Pt  78       1.590000    5.430000   22.187998      10.0000    195.0840
  421   3 Pt  78       5.770000    8.070001   22.237998      10.0000    195.0840
  422   3 Pt  78       8.590000    8.090000   22.267998      10.0000    195.0840
  423   3 Pt  78      11.460000    8.010000   22.177998      10.0000    195.0840
  424   3 Pt  78      -2.650000    7.970000   22.227998      10.0000    195.0840
  425   3 Pt  78       0.230000    7.910000   22.287998      10.0000    195.0840
  426   3 Pt  78       3.010000    7.970000   22.227998      10.0000    195.0840
  427   3 Pt  78       7.210000   10.559999   22.157998      10.0000    195.0840
  428   3 Pt  78      10.030001   10.370001   22.117998      10.0000    195.0840
  429   3 Pt  78      -4.060000   10.380001   22.157998      10.0000    195.0840
  430   3 Pt  78      -1.250000   10.360001   22.277998      10.0000    195.0840
  431   3 Pt  78       1.550000   10.410000   22.377998      10.0000    195.0840
  432   3 Pt  78       4.330000   10.430001   22.147998      10.0000    195.0840
  433   3 Pt  78       8.530001   12.930001   22.217998      10.0000    195.0840
  434   3 Pt  78      -5.540000   12.780001   22.067998      10.0000    195.0840
  435   3 Pt  78      -2.640000   12.780001   22.227998      10.0000    195.0840
  436   3 Pt  78       0.030000   12.780001   22.297998      10.0000    195.0840
  437   3 Pt  78       2.860000   12.860001   22.307998      10.0000    195.0840
  438   3 Pt  78       5.710001   12.890000   22.297998      10.0000    195.0840
  439   3 Pt  78       0.150000    1.430000   24.617998      10.0000    195.0840
  440   3 Pt  78       2.870000    1.410000   24.507998      10.0000    195.0840
  441   3 Pt  78       5.710001    1.480000   24.497998      10.0000    195.0840
  442   3 Pt  78       8.510000    1.570000   24.647998      10.0000    195.0840
  443   3 Pt  78      11.400002    1.540000   24.647998      10.0000    195.0840
  444   3 Pt  78      14.160000    1.380000   24.527998      10.0000    195.0840
  445   3 Pt  78       1.440000    3.790000   24.677998      10.0000    195.0840
  446   3 Pt  78       4.240000    3.890000   24.567998      10.0000    195.0840
  447   3 Pt  78       7.000000    3.880000   24.497998      10.0000    195.0840
  448   3 Pt  78       9.930000    3.980000   24.607998      10.0000    195.0840
  449   3 Pt  78      12.730000    3.890000   24.557998      10.0000    195.0840
  450   3 Pt  78      -1.290000    3.870000   24.557998      10.0000    195.0840
  451   3 Pt  78       2.910000    6.210001   24.577998      10.0000    195.0840
  452   3 Pt  78       5.640000    6.410000   24.497998      10.0000    195.0840
  453   3 Pt  78       8.480000    6.380000   24.537998      10.0000    195.0840
  454   3 Pt  78      11.430000    6.360001   24.507998      10.0000    195.0840
  455   3 Pt  78      -2.740000    6.300001   24.507998      10.0000    195.0840
  456   3 Pt  78       0.070000    6.260000   24.517998      10.0000    195.0840
  457   3 Pt  78       4.220000    8.840000   24.627998      10.0000    195.0840
  458   3 Pt  78       6.960001    8.750001   24.477998      10.0000    195.0840
  459   3 Pt  78       9.910001    8.730000   24.537998      10.0000    195.0840
  460   3 Pt  78      -4.160000    8.820001   24.507998      10.0000    195.0840
  461   3 Pt  78      -1.330000    8.700001   24.537998      10.0000    195.0840
  462   3 Pt  78       1.550000    8.680000   24.657998      10.0000    195.0840
  463   3 Pt  78       5.790000   11.290001   24.627998      10.0000    195.0840
  464   3 Pt  78       8.550000   11.140001   24.567998      10.0000    195.0840
  465   3 Pt  78      -5.540000   11.130000   24.467998      10.0000    195.0840
  466   3 Pt  78      -2.840000   11.180000   24.527998      10.0000    195.0840
  467   3 Pt  78       0.090000   11.170001   24.547998      10.0000    195.0840
  468   3 Pt  78       2.960000   11.210001   24.747998      10.0000    195.0840
  469   3 Pt  78       7.250000   13.700001   24.697998      10.0000    195.0840
  470   3 Pt  78      -6.890000   13.520001   24.467998      10.0000    195.0840
  471   3 Pt  78      -4.150000   13.580000   24.477998      10.0000    195.0840
  472   3 Pt  78      -1.340000   13.700001   24.507998      10.0000    195.0840
  473   3 Pt  78       1.510000   13.570002   24.677998      10.0000    195.0840
  474   3 Pt  78       4.320000   13.570002   24.547998      10.0000    195.0840
  475   3 Pt  78      -8.330001   14.140000   26.957999      10.0000    195.0840
  476   3 Pt  78      -5.470000   14.290000   26.827998      10.0000    195.0840
  477   3 Pt  78      -2.690000   14.410001   26.857998      10.0000    195.0840
  478   3 Pt  78      -0.040000   14.300001   26.937998      10.0000    195.0840
  479   3 Pt  78       2.990000   14.260001   27.087999      10.0000    195.0840
  480   3 Pt  78       5.660000   14.450001   26.927998      10.0000    195.0840
  481   3 Pt  78       1.480000    1.980000   26.927998      10.0000    195.0840
  482   3 Pt  78       4.240000    2.090000   26.817998      10.0000    195.0840
  483   3 Pt  78       7.190001    2.070000   26.947998      10.0000    195.0840
  484   3 Pt  78      10.010000    2.210000   27.117998      10.0000    195.0840
  485   3 Pt  78      12.910000    2.250000   26.847998      10.0000    195.0840
  486   3 Pt  78      -1.350000    2.260000   27.027998      10.0000    195.0840
  487   3 Pt  78       2.840000    4.520000   26.917998      10.0000    195.0840
  488   3 Pt  78       5.690000    4.460000   26.957999      10.0000    195.0840
  489   3 Pt  78       8.470000    4.540000   26.957999      10.0000    195.0840
  490   3 Pt  78      11.290001    4.570000   26.917998      10.0000    195.0840
  491   3 Pt  78      -2.730000    4.730000   26.957999      10.0000    195.0840
  492   3 Pt  78       0.110000    4.600000   26.987998      10.0000    195.0840
  493   3 Pt  78       4.320000    6.940000   26.837998      10.0000    195.0840
  494   3 Pt  78       7.100000    6.830000   26.847998      10.0000    195.0840
  495   3 Pt  78       9.920000    7.030000   26.737998      10.0000    195.0840
  496   3 Pt  78      -4.120000    7.070000   26.867998      10.0000    195.0840
  497   3 Pt  78      -1.300000    7.030000   26.817998      10.0000    195.0840
  498   3 Pt  78       1.490000    7.170000   26.887998      10.0000    195.0840
  499   3 Pt  78       5.670000    9.340000   26.877998      10.0000    195.0840
  500   3 Pt  78       8.440001    9.440001   26.737998      10.0000    195.0840
  501   3 Pt  78      -5.570001    9.460000   26.837998      10.0000    195.0840
  502   3 Pt  78      -2.830000    9.460000   26.927998      10.0000    195.0840
  503   3 Pt  78       0.040000    9.520000   26.877998      10.0000    195.0840
  504   3 Pt  78       2.840000    9.580001   27.027998      10.0000    195.0840
  505   3 Pt  78       6.980000   11.970000   26.997999      10.0000    195.0840
[...]
 -                                                                             -
 -                                DBCSR STATISTICS                             -
 -                                                                             -
 -------------------------------------------------------------------------------
 COUNTER                                    TOTAL       BLAS       SMM       ACC
 flops     5 x     5 x   116           5594970000       0.0%    100.0%      0.0%
 flops    13 x     5 x   116           7107958000       0.0%    100.0%      0.0%
 flops     5 x    13 x   116           7117760000       0.0%    100.0%      0.0%
 flops    13 x    13 x   116           8490492400       0.0%    100.0%      0.0%
 flops     5 x     5 x    96           9260640000       0.0%    100.0%      0.0%
 flops    13 x     5 x    96          11764896000       0.0%    100.0%      0.0%
 flops     5 x    13 x    96          11781120000       0.0%    100.0%      0.0%
 flops    13 x    20 x   116          12450048000       0.0%    100.0%      0.0%
 flops    20 x    13 x   116          12492272000       0.0%    100.0%      0.0%
 flops    20 x     5 x   116          13307520000       0.0%    100.0%      0.0%
 flops     5 x    20 x   116          13311000000       0.0%    100.0%      0.0%
 flops    13 x    13 x    96          14053228800       0.0%    100.0%      0.0%
 flops    13 x    20 x    96          20606976000       0.0%    100.0%      0.0%
 flops    20 x    13 x    96          20676864000       0.0%    100.0%      0.0%
 flops    20 x     5 x    96          22026240000       0.0%    100.0%      0.0%
 flops     5 x    20 x    96          22032000000       0.0%    100.0%      0.0%
 flops     5 x     5 x   128          80258880000       0.0%    100.0%      0.0%
 flops    13 x     5 x   128         101962432000       0.0%    100.0%      0.0%
 flops     5 x    13 x   128         102103040000       0.0%    100.0%      0.0%
 flops    20 x    20 x   116         108743040000       0.0%    100.0%      0.0%
 flops    13 x    13 x   128         121794649600       0.0%    100.0%      0.0%
 flops    13 x    20 x   128         178593792000       0.0%    100.0%      0.0%
 flops    20 x    13 x   128         179199488000       0.0%    100.0%      0.0%
 flops    20 x    20 x    96         179988480000       0.0%    100.0%      0.0%
 flops    20 x     5 x   128         190894080000       0.0%    100.0%      0.0%
 flops     5 x    20 x   128         190944000000       0.0%    100.0%      0.0%
 flops    20 x    20 x   128        1559900160000       0.0%    100.0%      0.0%
 flops inhomo. stacks                           0       0.0%      0.0%      0.0%
 flops total                         3.206456E+12       0.0%    100.0%      0.0%
 flops max/rank                     28.249294E+09       0.0%    100.0%      0.0%
 matmuls inhomo. stacks                         0       0.0%      0.0%      0.0%
 matmuls total                           77715200       0.0%    100.0%      0.0%
 number of processed stacks                919200       0.0%    100.0%      0.0%
 average stack size                                     0.0      84.5       0.0
 marketing flops                     6.625845E+12
 -------------------------------------------------------------------------------
 # multiplications                             50
 max memory usage/rank               1.630892E+09
 # max total images/rank                        2
 # max 3D layers                                1
 # MPI messages exchanged                  185600
 MPI messages size (bytes):
  total size                       114.082562E+09
  min size                         314.880000E+03
  max size                         843.776000E+03
  average size                     614.669000E+03
 MPI breakdown and total messages size (bytes):
             size <=      128                   0                        0
       128 < size <=     8192                   0                        0
      8192 < size <=    32768                   0                        0
     32768 < size <=   131072                   0                        0
    131072 < size <=  4194304              185600             114082566400
   4194304 < size <= 16777216                   0                        0
  16777216 < size                               0                        0
 -------------------------------------------------------------------------------

 *** WARNING in dbcsr_mm.F:290 :: Using a non-square number of MPI ranks ***
 *** might lead to poor performance. Used ranks: 128 Suggested: 121 256  ***

 -------------------------------------------------------------------------------
 -                                                                             -
 -                      DBCSR MESSAGE PASSING PERFORMANCE                      -
 -                                                                             -
 -------------------------------------------------------------------------------
 ROUTINE             CALLS      AVE VOLUME [Bytes]
 MP_Bcast               28                     12.
 MP_Allreduce          424                     11.
 MP_Alltoall          1412                 570886.
 MP_ISend             3200                 292036.
 MP_IRecv             3200                 285487.
 -------------------------------------------------------------------------------

 -------------------------------------------------------------------------------
 -                                                                             -
 -                                DBM STATISTICS                               -
 -                                                                             -
 -------------------------------------------------------------------------------
    M  x    N  x    K                                          COUNT     PERCENT
 -------------------------------------------------------------------------------

 -------------------------------------------------------------------------------
 -                                                                             -
 -                                GRID STATISTICS                              -
 -                                                                             -
 -------------------------------------------------------------------------------
 LP    KERNEL             BACKEND                              COUNT     PERCENT
 4     collocate general  REF                               20199700      22.47%
 4     integrate general  REF                               20072531      22.33%
 3     collocate general  REF                               13841250      15.39%
 3     integrate general  REF                               13780091      15.33%
 2     collocate general  REF                               10783300      11.99%
 2     integrate general  REF                               10567634      11.75%
 5     integrate general  REF                                 403994       0.45%
 0     collocate general  REF                                 130560       0.15%
 0     integrate general  REF                                  65280       0.07%
 1     integrate general  REF                                  65280       0.07%
 -------------------------------------------------------------------------------

 MEMORY| Estimated peak process memory [MiB]                                1811

 -------------------------------------------------------------------------------
 ----                             MULTIGRID INFO                            ----
 -------------------------------------------------------------------------------
 count for grid        1:        1093498          cutoff [a.u.]          200.00
 count for grid        2:        1088624          cutoff [a.u.]           66.67
 count for grid        3:         711322          cutoff [a.u.]           22.22
 count for grid        4:         548368          cutoff [a.u.]            7.41
 total gridlevel count  :        3441812

 -------------------------------------------------------------------------------
 -                                                                             -
 -                         MESSAGE PASSING PERFORMANCE                         -
 -                                                                             -
 -------------------------------------------------------------------------------

 ROUTINE             CALLS      AVE VOLUME [Bytes]
 MP_Group                4
 MP_Bcast              253                2253830.
 MP_Allreduce         3686                  29122.
 MP_Sync               104
 MP_Alltoall          3022               16291036.
 MP_SendRecv           508                   6162.
 MP_ISendRecv        25400                  61740.
 MP_Wait             44864
 MP_comm_split          50
 MP_ISend            18344                 255994.
 MP_IRecv            18344                 255994.
 MP_Recv               183                1682944.
 MP_Write_All            3                1797408.
 -------------------------------------------------------------------------------


 -------------------------------------------------------------------------------
 -                                                                             -
 -                           R E F E R E N C E S                               -
 -                                                                             -
 -------------------------------------------------------------------------------
 
 CP2K version 2022.1, the CP2K developers group (2022).
 CP2K is freely available from https://www.cp2k.org/ .

 Kuehne,Thomas D.; Iannuzzi,Marcella; Del Ben,Mauro;
 Rybkin,Vladimir V.; Seewald,Patrick; Stein,Frederick; Laino,Teodoro;
 Khaliullin,Rustam Z.; Schuett,Ole; Schiffmann,Florian; Golze,Dorothea;
 Wilhelm,Jan; Chulkov,Sergey; Bani-Hashemian,Mohammad Hossein;
 Weber,Valery; Borstnik,Urban; Taillefumier,Mathieu;
 Jakobovits,Alice Shoshana; Lazzaro,Alfio; Pabst,Hans; Mueller,Tiziano;
 Schade,Robert; Guidon,Manuel; Andermatt,Samuel; Holmberg,Nico;
 Schenter,Gregory K.; Hehn,Anna; Bussy,Augustin; Belleflamme,Fabian;
 Tabacchi,Gloria; Gloess,Andreas; Lass,Michael; Bethune,Iain;
 Mundy,Christopher J.; Plessl,Christian; Watkins,Matt;
 VandeVondele,Joost; Krack,Matthias; Hutter,Juerg. 
 The Journal of Chemical Physics, 152 (19), (2020). 
 CP2K: An electronic structure and molecular dynamics software package -
 Quickstep: Efficient and accurate electronic structure calculations.
 https://doi.org/10.1063/5.0007045

 Goerigk, Lars; Hansen, Andreas; Bauer, Christoph; Ehrlich, Stephan;
 Najibi, Asim; Grimme, Stefan. , 19 (48), (2017). 
 A look at the density functional theory zoo with the advanced GMTKN55 database
 for general main group thermochemistry, kinetics and noncovalent interactions.
 https://doi.org/10.1039/C7CP04913G

 Bani-Hashemian, MH; Bruck, S; Luisier, M; VandeVondele, J. 
 JOURNAL OF CHEMICAL PHYSICS, 144 (4), 044113 (2016). 
 A generalized Poisson solver for first-principles device simulations.
 https://doi.org/10.1063/1.4940796

 Schuett, Ole; Messmer, Peter; Hutter, Juerg; VandeVondele, Joost. 
 Electronic Structure Calculations on Graphics Processing Units, John
 Wiley & Sons, Ltd, 173-190 (2016). 
 GPU-Accelerated Sparse Matrix-Matrix Multiplication for
 Linear Scaling Density Functional Theory.
 https://doi.org/10.1002/9781118670712.ch8

 Heinecke, A; Henry, G; Hutchinson, M; Pabst, H. 
 Proceedings of Intl. Supercomputing Conference, 981-991 (2016). 
 LIBXSMM: Accelerating Small Matrix Multiplications
 by Runtime Code Generation.
 https://doi.org/10.1109/SC.2016.83

 Borstnik, U; VandeVondele, J; Weber, V; Hutter, J. 
 PARALLEL COMPUTING, 40 (5-6), 47-58 (2014). 
 Sparse matrix multiplication: The distributed block-compressed sparse
 row library.
 https://doi.org/10.1016/j.parco.2014.03.012

 Hutter, J; Iannuzzi, M; Schiffmann, F; VandeVondele, J. 
 WIREs Comput Mol Sci., 4 (1), 15-25 (2014). 
 CP2K: atomistic simulations of condensed matter systems.
 https://doi.org/10.1002/wcms.1159

 Marek, A; Blum, V; Johanni, R; Havu, V; Lang, B; Auckenthaler, T;
 Heinecke, A; Bungartz, H; Lederer, H. 
 Journal of Physics: Condensed Matter, 26 (21), (2014). 
 The ELPA library: scalable parallel eigenvalue solutions for
 electronic structure
 theory and computational science.
 https://doi.org/10.1088/0953-8984/26/21/213201

 Grimme, S; Ehrlich, S; Goerigk, L. 
 JOURNAL OF COMPUTATIONAL CHEMISTRY, 32, 1456 (2011). 
 Effect of the damping function in dispersion corrected density functional theory.
 https://doi.org/10.1002/jcc.21759

 Grimme, S; Antony, J; Ehrlich, S; Krieg, H. 
 JOURNAL OF CHEMICAL PHYSICS, 132 (15), 154104 (2010). 
 A consistent and accurate ab initio parametrization of density
 functional dispersion correction (DFT-D) for the 94 elements H-Pu.
 https://doi.org/10.1063/1.3382344

 VandeVondele, J; Hutter, J. 
 JOURNAL OF CHEMICAL PHYSICS, 127 (11), 114105 (2007). 
 Gaussian basis sets for accurate calculations on molecular systems in
 gas and condensed phases.
 https://doi.org/10.1063/1.2770708

 Krack, M. 
 THEORETICAL CHEMISTRY ACCOUNTS, 114 (1-3), 145-152 (2005). 
 Pseudopotentials for H to Kr optimized for gradient-corrected
 exchange-correlation functionals.
 https://doi.org/10.1007/s00214-005-0655-y

 VandeVondele, J; Krack, M; Mohamed, F; Parrinello, M; Chassaing, T;
 Hutter, J. COMPUTER PHYSICS COMMUNICATIONS, 167 (2), 103-128 (2005). 
 QUICKSTEP: Fast and accurate density functional calculations using a
 mixed Gaussian and plane waves approach.
 https://doi.org/10.1016/j.cpc.2004.12.014

 Frigo, M; Johnson, SG. 
 PROCEEDINGS OF THE IEEE, 93 (2), 216-231 (2005). 
 The design and implementation of FFTW3.
 https://doi.org/10.1109/JPROC.2004.840301

 Hartwigsen, C; Goedecker, S; Hutter, J. 
 PHYSICAL REVIEW B, 58 (7), 3641-3662 (1998). 
 Relativistic separable dual-space Gaussian pseudopotentials from H to Rn.
 https://doi.org/10.1103/PhysRevB.58.3641

 Lippert, G; Hutter, J; Parrinello, M. 
 MOLECULAR PHYSICS, 92 (3), 477-487 (1997). 
 A hybrid Gaussian and plane wave density functional scheme.
 https://doi.org/10.1080/002689797170220

 Perdew, JP; Burke, K; Ernzerhof, M. 
 PHYSICAL REVIEW LETTERS, 77 (18), 3865-3868 (1996). 
 Generalized gradient approximation made simple.
 https://doi.org/10.1103/PhysRevLett.77.3865

 Goedecker, S; Teter, M; Hutter, J. 
 PHYSICAL REVIEW B, 54 (3), 1703-1710 (1996). 
 Separable dual-space Gaussian pseudopotentials.
 https://doi.org/10.1103/PhysRevB.54.1703


 -------------------------------------------------------------------------------
 -                                                                             -
 -                                T I M I N G                                  -
 -                                                                             -
 -------------------------------------------------------------------------------
 SUBROUTINE                       CALLS  ASD         SELF TIME        TOTAL TIME
                                MAXIMUM       AVERAGE  MAXIMUM  AVERAGE  MAXIMUM
 CP2K                                 1  1.0    0.041    0.054  348.766  348.767
 qs_forces                            1  2.0    0.002    0.002  348.263  348.264
 qs_energies                          1  3.0    0.000    0.000  342.114  342.119
 scf_env_do_scf                       1  4.0    0.000    0.000  333.955  334.098
 scf_env_do_scf_inner_loop           49  5.0    0.003    0.007  333.955  334.098
 rebuild_ks_matrix                   50  6.9    0.000    0.000  179.976  180.015
 qs_ks_build_kohn_sham_matrix        50  7.9    0.008    0.023  179.976  180.015
 qs_ks_update_qs_env                 49  6.0    0.000    0.000  175.947  175.986
 pw_transfer                       2604 12.2    0.190    0.237  113.202  115.380
 fft_wrap_pw1pw2                   2604 13.2    0.026    0.032  113.012  115.180
 fft_wrap_pw1pw2_200               2304 14.4    7.652    8.928  111.493  113.583
 pw_poisson_solve                    50  8.9    0.005    0.014   97.291   97.329
 qs_scf_new_mos                      49  6.0    0.002    0.008   94.242   94.348
 fft3d_ps                          2604 15.2   32.747   37.163   90.828   94.021
 implicit_poisson_solver_mixed_      50  9.9    2.059    2.545   92.209   92.276
 eigensolver                         49  7.0    0.004    0.006   88.756   89.048
 derive_fft                         300 12.1    0.019    0.022   64.753   64.942
 cp_fm_diag_elpa                     50  8.0    0.001    0.001   61.914   62.067
 cp_fm_redistribute_end              50  9.0    8.086   61.354    8.183   61.418
 cp_fm_diag_elpa_base                50  9.0   52.421   60.007   52.928   60.594
 mp_alltoall_z22v                  2604 17.2   48.536   59.606   48.536   59.606
 qs_rho_update_rho_low               50  6.0    0.000    0.000   56.076   56.087
 calculate_rho_elec                  50  7.0    0.097    0.132   56.075   56.086
 apply_P_operator                   250 11.1    1.332    1.488   55.361   55.545
 sum_up_and_integrate                50  8.9    0.271    0.334   55.059   55.102
 integrate_v_rspace                  50  9.9    0.002    0.004   54.788   54.900
 grid_collocate_task_list            50  8.0   35.839   43.877   35.839   43.877
 grid_integrate_task_list            50 10.9   33.222   39.857   33.222   39.857
 x_to_yz                           1501 16.4    6.392    8.319   36.736   38.351
 rs_pw_transfer                     404 10.4    0.005    0.006   24.948   28.792
 cp_fm_triangular_multiply          147  8.0   28.006   28.341   28.006   28.341
 yz_to_x                            803 16.4    2.189    2.511   20.183   27.528
 qs_vxc_create                       50  8.9    0.001    0.002   24.756   25.059
 xc_vxc_pw_create                    50  9.9    0.426    0.525   24.754   25.058
 density_rs2pw                       50  8.0    0.003    0.004   18.932   22.908
 xc_pw_derive                       300 11.9    0.005    0.007   17.500   19.330
 apply_poisson_operator_fft          50 10.9    0.001    0.001   16.226   16.510
 apply_inv_laplace_operator_fft     152 11.6    0.381    0.428   14.756   15.302
 mp_waitany                       18344 12.4   11.273   15.290   11.273   15.290
 rs_pw_transfer_RS2PW_200            52  9.9    3.335    3.801   11.328   15.159
 potential_pw2rs                     50 10.9    0.015    0.016   14.278   14.394
 xc_pw_divergence                    50 10.9    0.003    0.003   11.817   13.213
 xc_rho_set_and_dset_create          50 10.9    0.248    0.290   12.068   12.798
 mp_alltoall_d11v                   707 10.2    8.841   12.510    8.841   12.510
 ps_implicit_compute_error_fft      100 10.9    0.629    0.766   10.920   11.732
 ps_implicit_compute_veps            50 10.9    0.290    0.341   11.017   11.202
 pw_scatter_p                      1651 15.4    9.250   10.875    9.250   10.875
 rs_gather_matrices                  50 10.9    0.062    0.080    7.274   10.824
 gspace_mixing                       48  6.0    0.092    0.125    8.513    8.515
 rs_pw_transfer_PW2RS_200            52 12.8    3.922    4.134    8.182    8.344
 pw_derive                         1200 13.1    7.599    8.024    7.599    8.024
 -------------------------------------------------------------------------------

 The number of warnings for this run is : 1
 
 -------------------------------------------------------------------------------
  **** **** ******  **  PROGRAM ENDED AT                 2023-12-02 08:38:39.503
 ***** ** ***  *** **   PROGRAM RAN ON                                     cu001
 **    ****   ******    PROGRAM RAN BY                                     jxzhu
 ***** **    ** ** **   PROGRAM PROCESS ID                                 24944
  **** **  *******  **  PROGRAM STOPPED IN /public/home/jxzhu/tmp_calc/fea250621
                                           b2bd1e3c4170791f90379685be767b0/calc/
                                           001100.000/search_lo.000000
