 DBCSR| CPU Multiplication driver                                           XSMM
 DBCSR| Multrec recursion limit                                              512
 DBCSR| Multiplication stack size                                           1000
 DBCSR| Maximum elements for images                                    UNLIMITED
 DBCSR| Multiplicative factor virtual images                                   1
 DBCSR| Use multiplication densification                                       T
 DBCSR| Multiplication size stacks                                             3
 DBCSR| Use memory pool for CPU allocation                                     F
 DBCSR| Number of 3D layers                                               SINGLE
 DBCSR| Use MPI memory allocation                                              F
 DBCSR| Use RMA algorithm                                                      F
 DBCSR| Use Communication thread                                               T
 DBCSR| Communication thread load                                             87
 DBCSR| MPI: My node id                                                        0
 DBCSR| MPI: Number of nodes                                                 128
 DBCSR| OMP: Current number of threads                                         1
 DBCSR| OMP: Max number of threads                                             1
 DBCSR| Split modifier for TAS multiplication algorithm                  1.0E+00


  **** **** ******  **  PROGRAM STARTED AT               2023-12-01 23:13:54.495
 ***** ** ***  *** **   PROGRAM STARTED ON                                 cu312
 **    ****   ******    PROGRAM STARTED BY                                 jxzhu
 ***** **    ** ** **   PROGRAM PROCESS ID                                 21248
  **** **  *******  **  PROGRAM STARTED IN /public/home/jxzhu/tmp_calc/3fb053bbf
                                           cc6ad3374a16008df82b73dbcc9c05e/calc/
                                           000200.000/search_hi.000000

 CP2K| version string:                                       CP2K version 2022.1
 CP2K| source code revision number:                                  git:2caeb6f
 CP2K| cp2kflags: omp libint fftw3 libxc elpa parallel mpi3 scalapack cosma xsmm
 CP2K|             plumed2 spglib mkl sirius libvori libbqb
 CP2K| is freely available from                            https://www.cp2k.org/
 CP2K| Program compiled at                           Mon Jul 3 17:37:06 CST 2023
 CP2K| Program compiled on                                                 mu003
 CP2K| Program compiled for                                                local
 CP2K| Data directory path                             /public/home/jxzhu/basis/
 CP2K| Input file name                                                 input.inp
 
 GLOBAL| Force Environment number                                              1
 GLOBAL| Basis set file name                                        BASIS_MOLOPT
 GLOBAL| Potential file name                                      GTH_POTENTIALS
 GLOBAL| MM Potential file name                                     MM_POTENTIAL
 GLOBAL| Coordinate file name                                          coord.xyz
 GLOBAL| Method name                                                        CP2K
 GLOBAL| Project name                                                       cp2k
 GLOBAL| Run type                                                   ENERGY_FORCE
 GLOBAL| FFT library                                                       FFTW3
 GLOBAL| Diagonalization library                                            ELPA
 GLOBAL| Minimum number of eigenvectors for ELPA usage                        16
 GLOBAL| Orthonormality check for eigenvectors                          DISABLED
 GLOBAL| Matrix multiplication library                                     COSMA
 GLOBAL| All-to-all communication in single precision                          F
 GLOBAL| FFTs using library dependent lengths                                  T
 GLOBAL| Grid backend                                                       AUTO
 GLOBAL| Global print level                                               MEDIUM
 GLOBAL| MPI I/O enabled                                                       T
 GLOBAL| Total number of message passing processes                           128
 GLOBAL| Number of threads for this process                                    1
 GLOBAL| This output is from process                                           0
 GLOBAL| Stack size for threads created by OpenMP (OMP_STACKSIZE)        default
 GLOBAL| CPU model name                 Intel(R) Xeon(R) Gold 6338 CPU @ 2.00GHz
 GLOBAL| CPUID                                                              1003

 MEMORY| system memory details [Kb]
 MEMORY|                        rank 0           min           max       average
 MEMORY| MemTotal            263619172     263619172     263619172     263619172
 MEMORY| MemFree             201093152     200701512     201095756     200898022
 MEMORY| Buffers                    48            28            48            38
 MEMORY| Cached                1034052        764404       1034052        899205
 MEMORY| Slab                  1658380       1637668       1658380       1648018
 MEMORY| SReclaimable           219548        219548        219960        219754
 MEMORY| MemLikelyFree       202346800     201685904     202349160     202017019


 *** Fundamental physical constants (SI units) ***

 *** Literature: B. J. Mohr and B. N. Taylor,
 ***             CODATA recommended values of the fundamental physical
 ***             constants: 2006, Web Version 5.1
 ***             http://physics.nist.gov/constants

 Speed of light in vacuum [m/s]                             2.99792458000000E+08
 Magnetic constant or permeability of vacuum [N/A**2]       1.25663706143592E-06
 Electric constant or permittivity of vacuum [F/m]          8.85418781762039E-12
 Planck constant (h) [J*s]                                  6.62606896000000E-34
 Planck constant (h-bar) [J*s]                              1.05457162825177E-34
 Elementary charge [C]                                      1.60217648700000E-19
 Electron mass [kg]                                         9.10938215000000E-31
 Electron g factor [ ]                                     -2.00231930436220E+00
 Proton mass [kg]                                           1.67262163700000E-27
 Fine-structure constant                                    7.29735253760000E-03
 Rydberg constant [1/m]                                     1.09737315685270E+07
 Avogadro constant [1/mol]                                  6.02214179000000E+23
 Boltzmann constant [J/K]                                   1.38065040000000E-23
 Atomic mass unit [kg]                                      1.66053878200000E-27
 Bohr radius [m]                                            5.29177208590000E-11

 *** Conversion factors ***

 [u] -> [a.u.]                                              1.82288848426455E+03
 [Angstrom] -> [Bohr] = [a.u.]                              1.88972613288564E+00
 [a.u.] = [Bohr] -> [Angstrom]                              5.29177208590000E-01
 [a.u.] -> [s]                                              2.41888432650478E-17
 [a.u.] -> [fs]                                             2.41888432650478E-02
 [a.u.] -> [J]                                              4.35974393937059E-18
 [a.u.] -> [N]                                              8.23872205491840E-08
 [a.u.] -> [K]                                              3.15774647902944E+05
 [a.u.] -> [kJ/mol]                                         2.62549961709828E+03
 [a.u.] -> [kcal/mol]                                       6.27509468713739E+02
 [a.u.] -> [Pa]                                             2.94210107994716E+13
 [a.u.] -> [bar]                                            2.94210107994716E+08
 [a.u.] -> [atm]                                            2.90362800883016E+08
 [a.u.] -> [eV]                                             2.72113838565563E+01
 [a.u.] -> [Hz]                                             6.57968392072181E+15
 [a.u.] -> [1/cm] (wave numbers)                            2.19474631370540E+05
 [a.u./Bohr**2] -> [1/cm]                                   5.14048714338585E+03
 

 CELL_TOP| Volume [angstrom^3]:                                     17614.982639
 CELL_TOP| Vector a [angstrom    16.869     0.000     0.000   |a| =    16.869000
 CELL_TOP| Vector b [angstrom    -8.434    14.609     0.000   |b| =    16.869015
 CELL_TOP| Vector c [angstrom     0.000     0.000    71.478   |c| =    71.478000
 CELL_TOP| Angle (b,c), alpha [degree]:                                90.000000
 CELL_TOP| Angle (a,c), beta  [degree]:                                90.000000
 CELL_TOP| Angle (a,b), gamma [degree]:                               119.999970
 CELL_TOP| Numerically orthorhombic:                                          NO
 
 GENERATE|  Preliminary Number of Bonds generated:                             0
 GENERATE|  Achieved consistency in connectivity generation.

 CELL| Volume [angstrom^3]:                                         17614.982639
 CELL| Vector a [angstrom]:      16.869     0.000     0.000   |a| =    16.869000
 CELL| Vector b [angstrom]:      -8.434    14.609     0.000   |b| =    16.869015
 CELL| Vector c [angstrom]:       0.000     0.000    71.478   |c| =    71.478000
 CELL| Angle (b,c), alpha [degree]:                                    90.000000
 CELL| Angle (a,c), beta  [degree]:                                    90.000000
 CELL| Angle (a,b), gamma [degree]:                                   119.999970
 CELL| Numerically orthorhombic:                                              NO

 CELL_REF| Volume [angstrom^3]:                                     17614.982639
 CELL_REF| Vector a [angstrom    16.869     0.000     0.000   |a| =    16.869000
 CELL_REF| Vector b [angstrom    -8.434    14.609     0.000   |b| =    16.869015
 CELL_REF| Vector c [angstrom     0.000     0.000    71.478   |c| =    71.478000
 CELL_REF| Angle (b,c), alpha [degree]:                                90.000000
 CELL_REF| Angle (a,c), beta  [degree]:                                90.000000
 CELL_REF| Angle (a,b), gamma [degree]:                               119.999970
 CELL_REF| Numerically orthorhombic:                                          NO

 *******************************************************************************
 *******************************************************************************
 **                                                                           **
 **     #####                         ##              ##                      **
 **    ##   ##            ##          ##              ##                      **
 **   ##     ##                       ##            ######                    **
 **   ##     ##  ##   ##  ##   #####  ##  ##   ####   ##    #####    #####    **
 **   ##     ##  ##   ##  ##  ##      ## ##   ##      ##   ##   ##  ##   ##   **
 **   ##  ## ##  ##   ##  ##  ##      ####     ###    ##   ######   ######    **
 **    ##  ###   ##   ##  ##  ##      ## ##      ##   ##   ##       ##        **
 **     #######   #####   ##   #####  ##  ##  ####    ##    #####   ##        **
 **           ##                                                    ##        **
 **                                                                           **
 **                                                ... make the atoms dance   **
 **                                                                           **
 **            Copyright (C) by CP2K developers group (2000-2022)             **
 **                      J. Chem. Phys. 152, 194103 (2020)                    **
 **                                                                           **
 *******************************************************************************

 DFT| Spin restricted Kohn-Sham (RKS) calculation                            RKS
 DFT| Multiplicity                                                             1
 DFT| Number of spin states                                                    1
 DFT| Charge                                                                   0
 DFT| Self-interaction correction (SIC)                                       NO
 DFT| Cutoffs: density                                              1.000000E-10
 DFT|          gradient                                             1.000000E-10
 DFT|          tau                                                  1.000000E-10
 DFT|          cutoff_smoothing_range                               0.000000E+00
 DFT| XC density smoothing                                                  NONE
 DFT| XC derivatives                                                          PW

 FUNCTIONAL| PBE:
 FUNCTIONAL| J.P.Perdew, K.Burke, M.Ernzerhof, Phys. Rev. Letter, vol. 77, n 18,
 FUNCTIONAL|  pp. 3865-3868, (1996){spin unpolarized}                           

 vdW POTENTIAL|                                                   Pair Potential
 vdW POTENTIAL|          DFT-D3 (Version 3.1)
 vdW POTENTIAL|          Potential Form: S. Grimme et al, JCP 132: 154104 (2010)
 vdW POTENTIAL|          Zero Damping
 vdW POTENTIAL|          Cutoff Radius [Bohr]:                             20.00
 vdW POTENTIAL|          s6 Scaling Factor:                               1.0000
 vdW POTENTIAL|          sr6 Scaling Factor:                              1.2170
 vdW POTENTIAL|          s8 Scaling Factor:                               0.7220
 vdW POTENTIAL|          Cutoff for CN calculation:                   0.1000E-05

 QS| Method:                                                                 GPW
 QS| Density plane wave grid type                        NON-SPHERICAL FULLSPACE
 QS| Number of grid levels:                                                    4
 QS| Density cutoff [a.u.]:                                                200.0
 QS| Multi grid cutoff [a.u.]: 1) grid level                               200.0
 QS|                           2) grid level                                66.7
 QS|                           3) grid level                                22.2
 QS|                           4) grid level                                 7.4
 QS| Grid level progression factor:                                          3.0
 QS| Relative density cutoff [a.u.]:                                        20.0
 QS| Interaction thresholds: eps_pgf_orb:                                3.2E-07
 QS|                         eps_filter_matrix:                          0.0E+00
 QS|                         eps_core_charge:                            1.0E-15
 QS|                         eps_rho_gspace:                             1.0E-13
 QS|                         eps_rho_rspace:                             1.0E-13
 QS|                         eps_gvg_rspace:                             3.2E-07
 QS|                         eps_ppl:                                    1.0E-02
 QS|                         eps_ppnl:                                   3.2E-09


 ATOMIC KIND INFORMATION

  1. Atomic kind: O                                     Number of atoms:     100

     Orbital Basis Set                                        DZVP-MOLOPT-SR-GTH

       Number of orbital shell sets:                                           1
       Number of orbital shells:                                               5
       Number of primitive Cartesian functions:                                5
       Number of Cartesian basis functions:                                   14
       Number of spherical basis functions:                                   13
       Norm type:                                                              2

       Normalised Cartesian orbitals:

                        Set   Shell   Orbital            Exponent    Coefficient

                          1       1    2s               10.389228       0.396646
                                                         3.849621       0.208811
                                                         1.388401      -0.301641
                                                         0.496955      -0.274061
                                                         0.162492      -0.033677

                          1       2    3s               10.389228       0.303673
                                                         3.849621       0.240943
                                                         1.388401      -0.313066
                                                         0.496955      -0.043055
                                                         0.162492       0.213991

                          1       3    3px              10.389228      -1.530415
                                                         3.849621      -1.371928
                                                         1.388401      -0.761951
                                                         0.496955      -0.253695
                                                         0.162492      -0.035541
                          1       3    3py              10.389228      -1.530415
                                                         3.849621      -1.371928
                                                         1.388401      -0.761951
                                                         0.496955      -0.253695
                                                         0.162492      -0.035541
                          1       3    3pz              10.389228      -1.530415
                                                         3.849621      -1.371928
                                                         1.388401      -0.761951
                                                         0.496955      -0.253695
                                                         0.162492      -0.035541

                          1       4    4px              10.389228      -0.565392
                                                         3.849621      -0.038231
                                                         1.388401      -0.382373
                                                         0.496955       0.179070
                                                         0.162492       0.122714
                          1       4    4py              10.389228      -0.565392
                                                         3.849621      -0.038231
                                                         1.388401      -0.382373
                                                         0.496955       0.179070
                                                         0.162492       0.122714
                          1       4    4pz              10.389228      -0.565392
                                                         3.849621      -0.038231
                                                         1.388401      -0.382373
                                                         0.496955       0.179070
                                                         0.162492       0.122714

                          1       5    4dx2             10.389228       1.867377
                                                         3.849621       0.670994
                                                         1.388401       1.353441
                                                         0.496955       0.273538
                                                         0.162492       0.006620
                          1       5    4dxy             10.389228       3.234392
                                                         3.849621       1.162195
                                                         1.388401       2.344229
                                                         0.496955       0.473781
                                                         0.162492       0.011466
                          1       5    4dxz             10.389228       3.234392
                                                         3.849621       1.162195
                                                         1.388401       2.344229
                                                         0.496955       0.473781
                                                         0.162492       0.011466
                          1       5    4dy2             10.389228       1.867377
                                                         3.849621       0.670994
                                                         1.388401       1.353441
                                                         0.496955       0.273538
                                                         0.162492       0.006620
                          1       5    4dyz             10.389228       3.234392
                                                         3.849621       1.162195
                                                         1.388401       2.344229
                                                         0.496955       0.473781
                                                         0.162492       0.011466
                          1       5    4dz2             10.389228       1.867377
                                                         3.849621       0.670994
                                                         1.388401       1.353441
                                                         0.496955       0.273538
                                                         0.162492       0.006620

       Atomic covalent radius [Angstrom]:                                  0.730

       Atomic van der Waals radius [Angstrom]:                             1.520

     GTH Potential information for                                    GTH-PBE-q6

       Description:                       Goedecker-Teter-Hutter pseudopotential
                                           Goedecker et al., PRB 54, 1703 (1996)
                                          Hartwigsen et al., PRB 58, 3641 (1998)
                                                      Krack, TCA 114, 145 (2005)

       Gaussian exponent of the core charge distribution:               8.360253
       Electronic configuration (s p d ...):                               2   4

       Parameters of the local part of the GTH pseudopotential:

                          rloc        C1          C2          C3          C4
                        0.244554  -16.667215    2.487311

       Parameters of the non-local part of the GTH pseudopotential:

                   l      r(l)      h(i,j,l)

                   0    0.220956   18.337458
                   1    0.211332

  2. Atomic kind: H                                     Number of atoms:     200

     Orbital Basis Set                                        DZVP-MOLOPT-SR-GTH

       Number of orbital shell sets:                                           1
       Number of orbital shells:                                               3
       Number of primitive Cartesian functions:                                5
       Number of Cartesian basis functions:                                    5
       Number of spherical basis functions:                                    5
       Norm type:                                                              2

       Normalised Cartesian orbitals:

                        Set   Shell   Orbital            Exponent    Coefficient

                          1       1    2s               10.068468      -0.133023
                                                         2.680223      -0.177618
                                                         0.791502      -0.258419
                                                         0.239116      -0.107525
                                                         0.082193      -0.014019

                          1       2    3s               10.068468       0.344673
                                                         2.680223       1.819821
                                                         0.791502      -0.999069
                                                         0.239116       0.017430
                                                         0.082193       0.082660

                          1       3    3px              10.068468       0.155326
                                                         2.680223       0.367157
                                                         0.791502       0.311480
                                                         0.239116       0.080105
                                                         0.082193       0.033440
                          1       3    3py              10.068468       0.155326
                                                         2.680223       0.367157
                                                         0.791502       0.311480
                                                         0.239116       0.080105
                                                         0.082193       0.033440
                          1       3    3pz              10.068468       0.155326
                                                         2.680223       0.367157
                                                         0.791502       0.311480
                                                         0.239116       0.080105
                                                         0.082193       0.033440

       Atomic covalent radius [Angstrom]:                                  0.320

       Atomic van der Waals radius [Angstrom]:                             1.090

     GTH Potential information for                                    GTH-PBE-q1

       Description:                       Goedecker-Teter-Hutter pseudopotential
                                           Goedecker et al., PRB 54, 1703 (1996)
                                          Hartwigsen et al., PRB 58, 3641 (1998)
                                                      Krack, TCA 114, 145 (2005)

       Gaussian exponent of the core charge distribution:              12.500000
       Electronic configuration (s p d ...):                                   1

       Parameters of the local part of the GTH pseudopotential:

                          rloc        C1          C2          C3          C4
                        0.200000   -4.178900    0.724463

  3. Atomic kind: Pt                                    Number of atoms:     216

     Orbital Basis Set                      DZVP-A5-Q10-323-MOL-T1-DERIVED_SET-1

       Number of orbital shell sets:                                           1
       Number of orbital shells:                                               6
       Number of primitive Cartesian functions:                                5
       Number of Cartesian basis functions:                                   23
       Number of spherical basis functions:                                   20
       Norm type:                                                              2

       Normalised Cartesian orbitals:

                        Set   Shell   Orbital            Exponent    Coefficient

                          1       1    2s                2.521825       0.177473
                                                         1.453920      -0.063399
                                                         0.614053      -0.407089
                                                         0.232656       0.262254
                                                         0.074788       0.047371

                          1       2    3s                2.521825      -0.049056
                                                         1.453920       0.044904
                                                         0.614053      -0.009756
                                                         0.232656      -0.144709
                                                         0.074788       0.144085

                          1       3    3px               2.521825      -0.317572
                                                         1.453920       0.534826
                                                         0.614053      -0.489458
                                                         0.232656       0.245631
                                                         0.074788       0.018221
                          1       3    3py               2.521825      -0.317572
                                                         1.453920       0.534826
                                                         0.614053      -0.489458
                                                         0.232656       0.245631
                                                         0.074788       0.018221
                          1       3    3pz               2.521825      -0.317572
                                                         1.453920       0.534826
                                                         0.614053      -0.489458
                                                         0.232656       0.245631
                                                         0.074788       0.018221

                          1       4    4dx2              2.521825       3.008522
                                                         1.453920      -1.224251
                                                         0.614053       0.225691
                                                         0.232656       0.125144
                                                         0.074788      -0.015348
                          1       4    4dxy              2.521825       5.210912
                                                         1.453920      -2.120465
                                                         0.614053       0.390909
                                                         0.232656       0.216756
                                                         0.074788      -0.026584
                          1       4    4dxz              2.521825       5.210912
                                                         1.453920      -2.120465
                                                         0.614053       0.390909
                                                         0.232656       0.216756
                                                         0.074788      -0.026584
                          1       4    4dy2              2.521825       3.008522
                                                         1.453920      -1.224251
                                                         0.614053       0.225691
                                                         0.232656       0.125144
                                                         0.074788      -0.015348
                          1       4    4dyz              2.521825       5.210912
                                                         1.453920      -2.120465
                                                         0.614053       0.390909
                                                         0.232656       0.216756
                                                         0.074788      -0.026584
                          1       4    4dz2              2.521825       3.008522
                                                         1.453920      -1.224251
                                                         0.614053       0.225691
                                                         0.232656       0.125144
                                                         0.074788      -0.015348

                          1       5    5dx2              2.521825       0.698026
                                                         1.453920      -1.511486
                                                         0.614053      -0.335394
                                                         0.232656      -0.025564
                                                         0.074788      -0.002699
                          1       5    5dxy              2.521825       1.209017
                                                         1.453920      -2.617970
                                                         0.614053      -0.580920
                                                         0.232656      -0.044277
                                                         0.074788      -0.004674
                          1       5    5dxz              2.521825       1.209017
                                                         1.453920      -2.617970
                                                         0.614053      -0.580920
                                                         0.232656      -0.044277
                                                         0.074788      -0.004674
                          1       5    5dy2              2.521825       0.698026
                                                         1.453920      -1.511486
                                                         0.614053      -0.335394
                                                         0.232656      -0.025564
                                                         0.074788      -0.002699
                          1       5    5dyz              2.521825       1.209017
                                                         1.453920      -2.617970
                                                         0.614053      -0.580920
                                                         0.232656      -0.044277
                                                         0.074788      -0.004674
                          1       5    5dz2              2.521825       0.698026
                                                         1.453920      -1.511486
                                                         0.614053      -0.335394
                                                         0.232656      -0.025564
                                                         0.074788      -0.002699

                          1       6    6dx2              2.521825       0.831079
                                                         1.453920      -0.709226
                                                         0.614053      -0.137351
                                                         0.232656       0.068642
                                                         0.074788       0.011745
                          1       6    6dxy              2.521825       1.439472
                                                         1.453920      -1.228415
                                                         0.614053      -0.237899
                                                         0.232656       0.118891
                                                         0.074788       0.020343
                          1       6    6dxz              2.521825       1.439472
                                                         1.453920      -1.228415
                                                         0.614053      -0.237899
                                                         0.232656       0.118891
                                                         0.074788       0.020343
                          1       6    6dy2              2.521825       0.831079
                                                         1.453920      -0.709226
                                                         0.614053      -0.137351
                                                         0.232656       0.068642
                                                         0.074788       0.011745
                          1       6    6dyz              2.521825       1.439472
                                                         1.453920      -1.228415
                                                         0.614053      -0.237899
                                                         0.232656       0.118891
                                                         0.074788       0.020343
                          1       6    6dz2              2.521825       0.831079
                                                         1.453920      -0.709226
                                                         0.614053      -0.137351
                                                         0.232656       0.068642
                                                         0.074788       0.011745

       Atomic covalent radius [Angstrom]:                                  1.300

       Atomic van der Waals radius [Angstrom]:                             1.750

     GTH Potential information for                                   GTH-PBE-q10

       Description:                       Goedecker-Teter-Hutter pseudopotential
                                           Goedecker et al., PRB 54, 1703 (1996)
                                          Hartwigsen et al., PRB 58, 3641 (1998)
                                                      Krack, TCA 114, 145 (2005)

       Gaussian exponent of the core charge distribution:               1.317676
       Electronic configuration (s p d ...):                           1   0   9

       Parameters of the local part of the GTH pseudopotential:

                          rloc        C1          C2          C3          C4
                        0.616000   11.313635

       Parameters of the non-local part of the GTH pseudopotential:

                   l      r(l)      h(i,j,l)

                   0    0.550904    4.733491   -1.784594
                                   -1.784594    2.303901
                   1    0.674138    2.534798   -1.778066
                                   -1.778066    2.103836
                   2    0.457392   -7.264011    2.558665
                                    2.558665   -2.901253


 MOLECULE KIND INFORMATION


 All atoms are their own molecule, skipping detailed information


 TOTAL NUMBERS AND MAXIMUM NUMBERS

  Total number of            - Atomic kinds:                                   3
                             - Atoms:                                        516
                             - Shell sets:                                   516
                             - Shells:                                      2396
                             - Primitive Cartesian functions:               2580
                             - Cartesian basis functions:                   7368
                             - Spherical basis functions:                   6620

  Maximum angular momentum of- Orbital basis functions:                        2
                             - Local part of the GTH pseudopotential:          2
                             - Non-local part of the GTH pseudopotential:      4


 MODULE QUICKSTEP:  ATOMIC COORDINATES IN angstrom

 Atom  Kind  Element       X           Y           Z          Z(eff)       Mass
    1   1 O    8       5.580000    3.820000   38.518000       6.0000     15.9994
    2   2 H    1       5.260000    3.650000   39.468001       1.0000      1.0079
    3   2 H    1       4.890000    3.420000   37.897999       1.0000      1.0079
    4   1 O    8       3.950000    1.150000   30.467999       6.0000     15.9994
    5   2 H    1       4.490000    0.300000   30.358002       1.0000      1.0079
    6   2 H    1       3.040000    0.780000   30.358002       1.0000      1.0079
    7   1 O    8       8.510000   12.650002   29.848000       6.0000     15.9994
    8   2 H    1       8.540000   12.880001   28.837998       1.0000      1.0079
    9   2 H    1       9.380000   12.110001   29.998001       1.0000      1.0079
   10   1 O    8      17.510000   -0.420000   37.027998       6.0000     15.9994
   11   2 H    1      17.330000   -1.340000   37.377999       1.0000      1.0079
   12   2 H    1      17.590000    0.120000   37.868000       1.0000      1.0079
   13   1 O    8      -5.850000    2.920000   37.508000       6.0000     15.9994
   14   2 H    1      -6.560000    3.670000   37.447998       1.0000      1.0079
   15   2 H    1      -5.400000    3.170000   38.377999       1.0000      1.0079
   16   1 O    8      -6.430000    0.100000   37.257998       6.0000     15.9994
   17   2 H    1      -5.700001   -0.490000   36.827999       1.0000      1.0079
   18   2 H    1      -5.990000    0.970000   37.357998       1.0000      1.0079
   19   1 O    8       8.260000    4.390000   38.327999       6.0000     15.9994
   20   2 H    1       7.410001    3.970000   38.297999       1.0000      1.0079
   21   2 H    1       7.960001    5.310000   38.297999       1.0000      1.0079
   22   1 O    8     -10.360001   23.730001   38.588000       6.0000     15.9994
   23   2 H    1      -9.710001   23.140001   38.227999       1.0000      1.0079
   24   2 H    1       6.800000   24.640003   38.267998       1.0000      1.0079
   25   1 O    8      -5.090000    5.870000   30.627999       6.0000     15.9994
   26   2 H    1      -6.000000    5.550000   30.327999       1.0000      1.0079
   27   2 H    1      -4.530000    5.100000   30.377999       1.0000      1.0079
   28   1 O    8      -4.720000    3.810000   39.798001       6.0000     15.9994
   29   2 H    1      -4.580000    3.320000   40.648001       1.0000      1.0079
   30   2 H    1      -4.910000    4.760000   40.028000       1.0000      1.0079
   31   1 O    8       9.420000    4.270000   29.677998       6.0000     15.9994
   32   2 H    1       8.930000    5.120000   29.797997       1.0000      1.0079
   33   2 H    1       9.400001    4.150000   28.707997       1.0000      1.0079
   34   1 O    8       0.900000   -5.520000   30.298001       6.0000     15.9994
   35   2 H    1       1.680000   -5.270000   29.688000       1.0000      1.0079
   36   2 H    1       0.160000   -5.030000   29.857998       1.0000      1.0079
   37   1 O    8      14.910001    0.710000   39.157999       6.0000     15.9994
   38   2 H    1      15.040001    1.710000   39.527998       1.0000      1.0079
   39   2 H    1      -1.020000    0.230000   39.418000       1.0000      1.0079
   40   1 O    8      -5.250000    9.170000   36.397999       6.0000     15.9994
   41   2 H    1      -4.950000    9.070001   37.298001       1.0000      1.0079
   42   2 H    1      -5.130000    8.340000   35.958001       1.0000      1.0079
   43   1 O    8      -8.210000    5.670000   35.537999       6.0000     15.9994
   44   2 H    1      -8.830000    6.290000   36.007998       1.0000      1.0079
   45   2 H    1      -8.430000    4.780000   35.918000       1.0000      1.0079
   46   1 O    8      -3.430000    2.580000   33.737999       6.0000     15.9994
   47   2 H    1     -12.660000   17.120001   33.237999       1.0000      1.0079
   48   2 H    1      -3.530000    2.830000   34.647999       1.0000      1.0079
   49   1 O    8       4.640000   -2.660000   32.698000       6.0000     15.9994
   50   2 H    1       4.780000   -3.610000   32.407999       1.0000      1.0079
   51   2 H    1       5.420001   -2.410000   33.207999       1.0000      1.0079
   52   1 O    8      -9.350000   15.040001   34.987999       6.0000     15.9994
   53   2 H    1     -10.180000   15.250001   35.428000       1.0000      1.0079
   54   2 H    1      -8.820001   14.660001   35.737999       1.0000      1.0079
   55   1 O    8       3.380000    5.470000   31.697998       6.0000     15.9994
   56   2 H    1       2.890000    5.900001   30.987999       1.0000      1.0079
   57   2 H    1       2.740000    4.840000   32.138001       1.0000      1.0079
   58   1 O    8      -0.600000    6.500000   34.967999       6.0000     15.9994
   59   2 H    1      -1.410000    6.030001   34.678000       1.0000      1.0079
   60   2 H    1       0.140000    5.820000   35.087998       1.0000      1.0079
   61   1 O    8      11.180000   -4.140000   29.957997       6.0000     15.9994
   62   2 H    1      10.440001   -4.440001   30.657999       1.0000      1.0079
   63   2 H    1      10.990001   -4.510000   29.057999       1.0000      1.0079
   64   1 O    8      -1.630000   -2.070000   34.438000       6.0000     15.9994
   65   2 H    1      -0.730000   -2.500000   34.258000       1.0000      1.0079
   66   2 H    1      -1.410000   -1.150000   34.447998       1.0000      1.0079
   67   1 O    8     -17.570002   14.910001   37.008000       6.0000     15.9994
   68   2 H    1      -0.810000   15.740002   36.427998       1.0000      1.0079
   69   2 H    1       0.350000   14.760000   37.017998       1.0000      1.0079
   70   1 O    8       1.360000    3.860000   33.028000       6.0000     15.9994
   71   2 H    1       1.320000    2.870000   33.017998       1.0000      1.0079
   72   2 H    1       1.520000    4.090000   33.978001       1.0000      1.0079
   73   1 O    8      -4.040000    0.770000   28.857998       6.0000     15.9994
   74   2 H    1      -3.730000   -0.100000   29.287999       1.0000      1.0079
   75   2 H    1      -5.030000    0.690000   29.127999       1.0000      1.0079
   76   1 O    8      12.330000    9.110001   38.897999       6.0000     15.9994
   77   2 H    1      11.910001    9.890000   39.248000       1.0000      1.0079
   78   2 H    1      13.360001    9.220000   38.887999       1.0000      1.0079
   79   1 O    8       2.590000   12.410001   33.857998       6.0000     15.9994
   80   2 H    1       2.280000   11.480000   34.057999       1.0000      1.0079
   81   2 H    1       1.940000   12.910000   33.418000       1.0000      1.0079
   82   1 O    8       5.200000    6.010000   33.567999       6.0000     15.9994
   83   2 H    1       4.770000    6.050000   32.707999       1.0000      1.0079
   84   2 H    1       6.060000    6.480000   33.487999       1.0000      1.0079
   85   1 O    8      -8.190001   -1.310000   29.998001       6.0000     15.9994
   86   2 H    1      -8.540000   -2.210000   29.807999       1.0000      1.0079
   87   2 H    1      -8.280001   -1.240000   30.998000       1.0000      1.0079
   88   1 O    8      -1.410000   11.970000   34.008000       6.0000     15.9994
   89   2 H    1      -1.750000   12.230001   34.947998       1.0000      1.0079
   90   2 H    1      -1.290000   11.040001   33.878001       1.0000      1.0079
   91   1 O    8       9.350000   -1.900000   39.108000       6.0000     15.9994
   92   2 H    1       9.740001   -1.230000   38.448000       1.0000      1.0079
   93   2 H    1       9.830000   -1.790000   39.977999       1.0000      1.0079
   94   1 O    8      -2.590000   12.980001   36.157999       6.0000     15.9994
   95   2 H    1      -1.820000   13.630000   36.467999       1.0000      1.0079
   96   2 H    1      -2.710000   12.240001   36.817999       1.0000      1.0079
   97   1 O    8      -1.560000   11.790000   38.337998       6.0000     15.9994
   98   2 H    1      16.150002   12.250000   38.478001       1.0000      1.0079
   99   2 H    1      -1.960000   11.720000   39.268000       1.0000      1.0079
  100   1 O    8       0.820000    9.350000   31.487999       6.0000     15.9994
  101   2 H    1       0.260000    9.080001   32.217999       1.0000      1.0079
  102   2 H    1       1.190000    8.500000   31.118000       1.0000      1.0079
  103   1 O    8       1.870000    7.030000   30.107998       6.0000     15.9994
  104   2 H    1       0.870000    6.880000   29.987999       1.0000      1.0079
  105   2 H    1       2.270000    7.020000   29.237999       1.0000      1.0079
  106   1 O    8      11.110001   -1.540000   29.067997       6.0000     15.9994
  107   2 H    1       2.690000   12.110001   29.307999       1.0000      1.0079
  108   2 H    1      10.120001   -1.370000   29.208001       1.0000      1.0079
  109   1 O    8       4.960000   12.430000   32.498000       6.0000     15.9994
  110   2 H    1       5.720000   12.630000   33.077999       1.0000      1.0079
  111   2 H    1       4.110000   12.620001   32.887997       1.0000      1.0079
  112   1 O    8      -5.260000    7.580000   32.887997       6.0000     15.9994
  113   2 H    1      -5.310000    7.230001   33.827999       1.0000      1.0079
  114   2 H    1      -5.370000    6.790000   32.268000       1.0000      1.0079
  115   1 O    8      -8.650001    6.490001   30.688000       6.0000     15.9994
  116   2 H    1      -9.540001    6.680000   30.368000       1.0000      1.0079
  117   2 H    1      -8.050001    7.290000   30.657999       1.0000      1.0079
  118   1 O    8       5.190001    6.470000   38.418000       6.0000     15.9994
  119   2 H    1       5.410000    5.480001   38.467999       1.0000      1.0079
  120   2 H    1       4.830000    6.530001   37.477999       1.0000      1.0079
  121   1 O    8       3.970000   13.320000   36.207999       6.0000     15.9994
  122   2 H    1       4.240000   12.500000   36.657999       1.0000      1.0079
  123   2 H    1       3.610000   13.000001   35.377999       1.0000      1.0079
  124   1 O    8      -3.900000    3.410000   30.157997       6.0000     15.9994
  125   2 H    1      -3.910000    3.320000   29.178002       1.0000      1.0079
  126   2 H    1      -3.090000    2.860000   30.467999       1.0000      1.0079
  127   1 O    8       7.790000    7.270000   38.528000       6.0000     15.9994
  128   2 H    1       8.050001    8.050001   37.907999       1.0000      1.0079
  129   2 H    1       6.800000    7.230001   38.607998       1.0000      1.0079
  130   1 O    8       6.730001    1.090000   39.307999       6.0000     15.9994
  131   2 H    1       6.300001    1.760000   38.787999       1.0000      1.0079
  132   2 H    1       7.110000    0.530000   38.637999       1.0000      1.0079
  133   1 O    8      -8.350000   22.380001   37.508000       6.0000     15.9994
  134   2 H    1      -8.680000   21.730001   36.758000       1.0000      1.0079
  135   2 H    1      -7.840000   21.770000   38.137999       1.0000      1.0079
  136   1 O    8       4.950000    3.650000   34.817999       6.0000     15.9994
  137   2 H    1       4.550000    2.910000   34.217999       1.0000      1.0079
  138   2 H    1       5.090000    4.380000   34.217999       1.0000      1.0079
  139   1 O    8       5.150001    9.280001   30.577999       6.0000     15.9994
  140   2 H    1       4.330000    9.690001   30.157997       1.0000      1.0079
  141   2 H    1       4.890000    9.480001   31.487999       1.0000      1.0079
  142   1 O    8      -6.470000    1.240000   29.647999       6.0000     15.9994
  143   2 H    1      -6.510000    1.460000   30.617998       1.0000      1.0079
  144   2 H    1      -6.720000    2.070000   29.197998       1.0000      1.0079
  145   1 O    8      -0.300000    3.180000   29.107998       6.0000     15.9994
  146   2 H    1       0.230000    2.430000   29.508000       1.0000      1.0079
  147   2 H    1      -1.250000    2.930000   29.208001       1.0000      1.0079
  148   1 O    8       8.490001   11.370001   37.987999       6.0000     15.9994
  149   2 H    1      16.580002   -3.360000   38.918000       1.0000      1.0079
  150   2 H    1      -8.520000   10.590000   37.407999       1.0000      1.0079
  151   1 O    8      -1.480000   15.010000   28.877999       6.0000     15.9994
  152   2 H    1      -0.690000   14.440001   29.028000       1.0000      1.0079
  153   2 H    1      -1.260000   15.910001   29.297997       1.0000      1.0079
  154   1 O    8       7.220001    2.630000   30.057999       6.0000     15.9994
  155   2 H    1       6.470000    3.220000   29.957997       1.0000      1.0079
  156   2 H    1       8.070001    3.200000   29.868000       1.0000      1.0079
  157   1 O    8      -9.650001    1.580000   33.137999       6.0000     15.9994
  158   2 H    1     -10.570001    1.400000   33.407997       1.0000      1.0079
  159   2 H    1      -9.720000    2.130000   32.338000       1.0000      1.0079
  160   1 O    8      -0.670000    8.880001   33.518000       6.0000     15.9994
  161   2 H    1      -1.590000    8.970000   33.137999       1.0000      1.0079
  162   2 H    1      -0.680000    8.070001   34.108000       1.0000      1.0079
  163   1 O    8       4.360000    1.140000   33.557999       6.0000     15.9994
  164   2 H    1       3.910000    0.670000   34.307999       1.0000      1.0079
  165   2 H    1       3.930000    1.110000   32.687998       1.0000      1.0079
  166   1 O    8       2.520000    9.670001   34.527998       6.0000     15.9994
  167   2 H    1      11.120001   -5.120000   35.477999       1.0000      1.0079
  168   2 H    1       1.690000    9.270000   34.278000       1.0000      1.0079
  169   1 O    8      -2.580000    8.560000   29.758000       6.0000     15.9994
  170   2 H    1      -2.000000    9.380000   29.727997       1.0000      1.0079
  171   2 H    1      -1.940000    7.800000   29.737999       1.0000      1.0079
  172   1 O    8       6.370000   16.600000   31.387999       6.0000     15.9994
  173   2 H    1       6.230001   15.720000   30.977997       1.0000      1.0079
  174   2 H    1      14.360001    1.960000   32.257998       1.0000      1.0079
  175   1 O    8       8.030001   17.790001   37.108000       6.0000     15.9994
  176   2 H    1       7.930000   17.260000   36.317999       1.0000      1.0079
  177   2 H    1       7.190001   17.960001   37.558001       1.0000      1.0079
  178   1 O    8      -9.810000    8.180000   34.568001       6.0000     15.9994
  179   2 H    1      -9.090000    8.400001   33.967999       1.0000      1.0079
  180   2 H    1     -10.640000    8.670000   34.178000       1.0000      1.0079
  181   1 O    8       1.030000    6.090000   39.387999       6.0000     15.9994
  182   2 H    1       1.050000    5.090000   39.287999       1.0000      1.0079
  183   2 H    1       1.880000    6.310000   39.848000       1.0000      1.0079
  184   1 O    8       4.890000    9.760000   33.467999       6.0000     15.9994
  185   2 H    1       4.110000    9.680000   34.067997       1.0000      1.0079
  186   2 H    1       4.950000   10.690001   33.168000       1.0000      1.0079
  187   1 O    8       7.680000   -3.800000   29.797997       6.0000     15.9994
  188   2 H    1       8.320000   -4.470000   30.228001       1.0000      1.0079
  189   2 H    1       7.870001   -3.870000   28.787999       1.0000      1.0079
  190   1 O    8      11.770000    8.190001   29.037999       6.0000     15.9994
  191   2 H    1      12.760000    8.460000   29.248001       1.0000      1.0079
  192   2 H    1      -5.170000    7.370000   29.598000       1.0000      1.0079
  193   1 O    8      -8.340000   -0.840000   32.637999       6.0000     15.9994
  194   2 H    1      -9.000000   -1.460000   33.117998       1.0000      1.0079
  195   2 H    1      -8.520000    0.060000   32.967999       1.0000      1.0079
  196   1 O    8     -13.130001    6.510000   36.048001       6.0000     15.9994
  197   2 H    1     -13.390001    7.520000   36.188000       1.0000      1.0079
  198   2 H    1     -12.630000    6.440001   35.207999       1.0000      1.0079
  199   1 O    8       3.400000    8.950001   36.907999       6.0000     15.9994
  200   2 H    1       4.120000    9.600000   36.927998       1.0000      1.0079
  201   2 H    1       2.790000    9.120001   37.617998       1.0000      1.0079
  202   1 O    8      -6.960001   17.800001   39.178000       6.0000     15.9994
  203   2 H    1      -7.810000   17.950001   38.697998       1.0000      1.0079
  204   2 H    1      -6.350000   17.420002   38.467999       1.0000      1.0079
  205   1 O    8       9.190001   15.790001   32.897999       6.0000     15.9994
  206   2 H    1       8.530001   15.720000   33.598000       1.0000      1.0079
  207   2 H    1       9.810000   15.070001   32.798001       1.0000      1.0079
  208   1 O    8       3.180000    3.190000   28.987999       6.0000     15.9994
  209   2 H    1      -4.860000   16.980001   29.427998       1.0000      1.0079
  210   2 H    1       3.880000    3.860000   29.237999       1.0000      1.0079
  211   1 O    8       1.120000   -2.650000   33.778000       6.0000     15.9994
  212   2 H    1      -7.460001   11.100000   33.358000       1.0000      1.0079
  213   2 H    1      -6.690001   11.780001   34.508000       1.0000      1.0079
  214   1 O    8       7.440000    2.580000   35.647999       6.0000     15.9994
  215   2 H    1       6.510000    2.970000   35.467999       1.0000      1.0079
  216   2 H    1       7.650001    2.290000   34.748000       1.0000      1.0079
  217   1 O    8       2.470000   10.380001   39.057999       6.0000     15.9994
  218   2 H    1       2.000000    9.690001   39.568001       1.0000      1.0079
  219   2 H    1       1.710000   11.060000   38.938000       1.0000      1.0079
  220   1 O    8       0.910000    1.060000   30.057999       6.0000     15.9994
  221   2 H    1       0.810000    0.190000   29.697998       1.0000      1.0079
  222   2 H    1       0.500000    1.010000   30.918000       1.0000      1.0079
  223   1 O    8       5.980001    6.750000   29.447998       6.0000     15.9994
  224   2 H    1       6.250000    7.010000   28.497998       1.0000      1.0079
  225   2 H    1       5.700001    7.590001   29.907997       1.0000      1.0079
  226   1 O    8      -0.690000    6.680000   30.027996       6.0000     15.9994
  227   2 H    1      -0.870000    6.270000   29.107998       1.0000      1.0079
  228   2 H    1      -0.910000    5.990000   30.747998       1.0000      1.0079
  229   1 O    8      -5.710001    2.520000   32.057999       6.0000     15.9994
  230   2 H    1      -6.390000    3.250000   32.157997       1.0000      1.0079
  231   2 H    1      -5.120000    2.980000   31.427998       1.0000      1.0079
  232   1 O    8      -3.330000    3.370000   36.557999       6.0000     15.9994
  233   2 H    1      -4.340000    3.380000   36.868000       1.0000      1.0079
  234   2 H    1      -3.200000    2.410000   36.708001       1.0000      1.0079
  235   1 O    8      14.420000   -0.620000   30.407997       6.0000     15.9994
  236   2 H    1      14.000001   -1.200000   31.098000       1.0000      1.0079
  237   2 H    1      15.220001   -1.120000   30.267998       1.0000      1.0079
  238   1 O    8       9.140000    4.470000   32.717999       6.0000     15.9994
  239   2 H    1       8.730000    5.120000   32.117998       1.0000      1.0079
  240   2 H    1       8.870000    4.840000   33.557999       1.0000      1.0079
  241   1 O    8       2.500000   -3.090000   30.057999       6.0000     15.9994
  242   2 H    1       2.860000   -2.300000   30.547999       1.0000      1.0079
  243   2 H    1       2.880000   -2.840000   29.107998       1.0000      1.0079
  244   1 O    8      -6.140000   13.680000   32.287999       6.0000     15.9994
  245   2 H    1      -6.580000   12.940001   32.747998       1.0000      1.0079
  246   2 H    1      -5.140000   13.510000   32.457999       1.0000      1.0079
  247   1 O    8      -5.810000   11.700001   38.808001       6.0000     15.9994
  248   2 H    1      -5.240001   12.080001   38.147999       1.0000      1.0079
  249   2 H    1      -6.730001   11.580001   38.437998       1.0000      1.0079
  250   1 O    8      -1.890000    3.450000   39.307999       6.0000     15.9994
  251   2 H    1      -2.810000    3.650000   39.307999       1.0000      1.0079
  252   2 H    1      -1.470000    4.140000   39.897999       1.0000      1.0079
  253   1 O    8      -3.100000    9.070001   32.498000       6.0000     15.9994
  254   2 H    1      -3.910000    8.430000   32.647999       1.0000      1.0079
  255   2 H    1      -2.880000    9.060000   31.567997       1.0000      1.0079
  256   1 O    8       5.180000   11.030001   36.827999       6.0000     15.9994
  257   2 H    1       5.930000   11.320001   36.297999       1.0000      1.0079
  258   2 H    1       5.420001   11.170001   37.807999       1.0000      1.0079
  259   1 O    8      -5.070000   11.580001   35.287999       6.0000     15.9994
  260   2 H    1      -5.040000   10.740000   35.668000       1.0000      1.0079
  261   2 H    1      -4.760000   11.570001   34.377999       1.0000      1.0079
  262   1 O    8       4.890000   11.520000   39.248000       6.0000     15.9994
  263   2 H    1       4.850000   12.250000   39.947998       1.0000      1.0079
  264   2 H    1       4.020000   10.910001   39.297999       1.0000      1.0079
  265   1 O    8      -7.620000    9.260000   32.958000       6.0000     15.9994
  266   2 H    1      -7.690001    9.300001   31.957999       1.0000      1.0079
  267   2 H    1      -6.840000    8.730000   33.028000       1.0000      1.0079
  268   1 O    8      -3.210000   18.930000   30.077999       6.0000     15.9994
  269   2 H    1      -3.750000   19.150002   30.877999       1.0000      1.0079
  270   2 H    1      -3.090000   19.920002   29.767998       1.0000      1.0079
  271   1 O    8      -5.100000    6.440001   35.247998       6.0000     15.9994
  272   2 H    1      -4.240000    5.890000   35.067999       1.0000      1.0079
  273   2 H    1      -5.910000    5.900001   35.228001       1.0000      1.0079
  274   1 O    8       1.650000    4.890000   35.397999       6.0000     15.9994
  275   2 H    1       2.410000    5.460000   35.668000       1.0000      1.0079
  276   2 H    1       1.450000    4.310000   36.137999       1.0000      1.0079
  277   1 O    8      -1.170000    4.760000   31.957999       6.0000     15.9994
  278   2 H    1      -0.360000    4.580000   32.457999       1.0000      1.0079
  279   2 H    1      -1.370000    3.880000   31.567997       1.0000      1.0079
  280   1 O    8      -2.860000    5.240001   34.627999       6.0000     15.9994
  281   2 H    1      -2.860000    4.620000   35.417998       1.0000      1.0079
  282   2 H    1      -2.630000    4.570000   33.918000       1.0000      1.0079
  283   1 O    8      -4.850000   17.200001   37.208001       6.0000     15.9994
  284   2 H    1      -4.610000   17.510000   36.348000       1.0000      1.0079
  285   2 H    1      -4.630000   16.200001   37.187998       1.0000      1.0079
  286   1 O    8       7.220001   10.470000   29.327999       6.0000     15.9994
  287   2 H    1     -10.580001   10.330000   29.797997       1.0000      1.0079
  288   2 H    1       7.590001   11.340000   29.577999       1.0000      1.0079
  289   1 O    8      -8.590000    9.220000   36.577999       6.0000     15.9994
  290   2 H    1      -7.620000    9.150001   36.387999       1.0000      1.0079
  291   2 H    1      -9.150001    8.860001   35.837998       1.0000      1.0079
  292   1 O    8       5.000000   -1.250000   30.247998       6.0000     15.9994
  293   2 H    1       5.800000   -1.280000   29.668000       1.0000      1.0079
  294   2 H    1       5.290000   -1.890000   30.877999       1.0000      1.0079
  295   1 O    8       3.750000    0.230000   35.998000       6.0000     15.9994
  296   2 H    1       4.450000   -0.470000   36.048001       1.0000      1.0079
  297   2 H    1       2.910000   -0.280000   35.958001       1.0000      1.0079
  298   1 O    8      -2.790000    0.750000   36.688000       6.0000     15.9994
  299   2 H    1      -2.530000    0.750000   37.728001       1.0000      1.0079
  300   2 H    1      -3.450000    0.010000   36.538000       1.0000      1.0079
  301   3 Pt  78       1.700000    0.780000   26.688000      10.0000    195.0840
  302   3 Pt  78       4.540000    0.570000   26.758000      10.0000    195.0840
  303   3 Pt  78       7.330000    0.720000   26.688000      10.0000    195.0840
  304   3 Pt  78      10.030001    0.700000   26.707997      10.0000    195.0840
  305   3 Pt  78      12.840000    0.730000   26.637997      10.0000    195.0840
  306   3 Pt  78      15.750000    0.650000   26.627999      10.0000    195.0840
  307   3 Pt  78       3.120000    3.150000   26.797997      10.0000    195.0840
  308   3 Pt  78       5.880000    3.270000   26.837998      10.0000    195.0840
  309   3 Pt  78       8.710001    3.120000   26.618000      10.0000    195.0840
  310   3 Pt  78      11.510000    3.130000   26.678002      10.0000    195.0840
  311   3 Pt  78      14.250001    3.240000   26.647999      10.0000    195.0840
  312   3 Pt  78       0.210000    3.230000   26.857998      10.0000    195.0840
  313   3 Pt  78       4.420000    5.760000   26.748001      10.0000    195.0840
  314   3 Pt  78       7.270000    5.680000   26.748001      10.0000    195.0840
  315   3 Pt  78       9.970000    5.620000   26.627999      10.0000    195.0840
  316   3 Pt  78      12.800001    5.580000   26.607998      10.0000    195.0840
  317   3 Pt  78      -1.140000    5.620000   26.797997      10.0000    195.0840
  318   3 Pt  78       1.610000    5.640000   27.028000      10.0000    195.0840
  319   3 Pt  78       5.780000    8.200001   26.627999      10.0000    195.0840
  320   3 Pt  78       8.590000    8.060000   26.897999      10.0000    195.0840
  321   3 Pt  78      11.480000    8.030001   26.778000      10.0000    195.0840
  322   3 Pt  78      -2.600000    7.950000   26.697998      10.0000    195.0840
  323   3 Pt  78       0.240000    7.990000   26.818001      10.0000    195.0840
  324   3 Pt  78       3.040000    8.080000   26.778000      10.0000    195.0840
  325   3 Pt  78       7.310000   10.540000   26.877999      10.0000    195.0840
  326   3 Pt  78      10.150002   10.520000   26.787999      10.0000    195.0840
  327   3 Pt  78      -3.960000   10.540000   26.758000      10.0000    195.0840
  328   3 Pt  78      -1.140000   10.390000   26.678002      10.0000    195.0840
  329   3 Pt  78       1.590000   10.450001   26.748001      10.0000    195.0840
  330   3 Pt  78       4.450000   10.420000   26.827999      10.0000    195.0840
  331   3 Pt  78       8.780001   12.990000   26.697998      10.0000    195.0840
  332   3 Pt  78      -5.350000   12.980001   26.867997      10.0000    195.0840
  333   3 Pt  78      -2.560000   12.860001   26.737999      10.0000    195.0840
  334   3 Pt  78       0.320000   12.780001   26.737999      10.0000    195.0840
  335   3 Pt  78       3.120000   12.880001   26.848000      10.0000    195.0840
  336   3 Pt  78       5.930000   12.980001   26.807999      10.0000    195.0840
  337   3 Pt  78       0.230000    1.500000   24.388001      10.0000    195.0840
  338   3 Pt  78       3.140000    1.610000   24.458001      10.0000    195.0840
  339   3 Pt  78       5.900001    1.570000   24.528000      10.0000    195.0840
  340   3 Pt  78       8.630000    1.350000   24.267998      10.0000    195.0840
  341   3 Pt  78      11.580001    1.480000   24.357998      10.0000    195.0840
  342   3 Pt  78      14.340000    1.570000   24.337998      10.0000    195.0840
  343   3 Pt  78       1.580000    3.990000   24.607998      10.0000    195.0840
  344   3 Pt  78       4.460000    4.010000   24.467999      10.0000    195.0840
  345   3 Pt  78       7.250000    4.050000   24.337998      10.0000    195.0840
  346   3 Pt  78      10.020000    3.950000   24.278000      10.0000    195.0840
  347   3 Pt  78      12.840000    3.990000   24.307999      10.0000    195.0840
  348   3 Pt  78      -1.190000    3.960000   24.437996      10.0000    195.0840
  349   3 Pt  78       2.960000    6.390000   24.487999      10.0000    195.0840
  350   3 Pt  78       5.770000    6.470000   24.377999      10.0000    195.0840
  351   3 Pt  78       8.580000    6.470000   24.418000      10.0000    195.0840
  352   3 Pt  78      11.400002    6.420000   24.458001      10.0000    195.0840
  353   3 Pt  78      -2.500000    6.340000   24.377999      10.0000    195.0840
  354   3 Pt  78       0.280000    6.380000   24.487999      10.0000    195.0840
  355   3 Pt  78       4.320000    8.850000   24.357998      10.0000    195.0840
  356   3 Pt  78       7.190001    8.920000   24.478001      10.0000    195.0840
  357   3 Pt  78       9.980000    8.820001   24.548001      10.0000    195.0840
  358   3 Pt  78      -3.940000    8.920000   24.478001      10.0000    195.0840
  359   3 Pt  78      -1.160000    8.740000   24.367997      10.0000    195.0840
  360   3 Pt  78       1.570000    8.780001   24.318001      10.0000    195.0840
  361   3 Pt  78       5.890000   11.210001   24.587998      10.0000    195.0840
  362   3 Pt  78       8.540000   11.360001   24.478001      10.0000    195.0840
  363   3 Pt  78      -5.480001   11.260000   24.467999      10.0000    195.0840
  364   3 Pt  78      -2.580000   11.300000   24.437996      10.0000    195.0840
  365   3 Pt  78       0.210000   11.190001   24.287999      10.0000    195.0840
  366   3 Pt  78       3.030000   11.240001   24.467999      10.0000    195.0840
  367   3 Pt  78       7.260000   13.760000   24.307999      10.0000    195.0840
  368   3 Pt  78      -6.750000   13.750001   24.418000      10.0000    195.0840
  369   3 Pt  78      -4.030000   13.780001   24.447998      10.0000    195.0840
  370   3 Pt  78      -1.190000   13.600000   24.437996      10.0000    195.0840
  371   3 Pt  78       1.630000   13.630000   24.327999      10.0000    195.0840
  372   3 Pt  78       4.460000   13.640001   24.418000      10.0000    195.0840
  373   3 Pt  78      -8.270000   14.470000   22.138001      10.0000    195.0840
  374   3 Pt  78      -5.430000   14.550000   22.247998      10.0000    195.0840
  375   3 Pt  78      -2.580000   14.470000   22.138001      10.0000    195.0840
  376   3 Pt  78       0.170000   14.420000   22.107998      10.0000    195.0840
  377   3 Pt  78       2.960000   14.470000   22.068001      10.0000    195.0840
  378   3 Pt  78       5.790000   14.570000   22.047997      10.0000    195.0840
  379   3 Pt  78       1.600000    2.430000   22.157997      10.0000    195.0840
  380   3 Pt  78       4.400000    2.410000   22.168000      10.0000    195.0840
  381   3 Pt  78       7.180000    2.390000   22.077999      10.0000    195.0840
  382   3 Pt  78      10.060000    2.190000   22.057999      10.0000    195.0840
  383   3 Pt  78      12.900001    2.330000   21.998001      10.0000    195.0840
  384   3 Pt  78      -1.160000    2.330000   22.147999      10.0000    195.0840
  385   3 Pt  78       3.090000    4.810000   22.217999      10.0000    195.0840
  386   3 Pt  78       5.810000    4.840000   22.107998      10.0000    195.0840
  387   3 Pt  78       8.710001    4.840000   22.028000      10.0000    195.0840
  388   3 Pt  78      11.430000    4.730000   22.068001      10.0000    195.0840
  389   3 Pt  78      -2.580000    4.710000   22.098000      10.0000    195.0840
  390   3 Pt  78       0.250000    4.760000   22.098000      10.0000    195.0840
  391   3 Pt  78       4.400000    7.260000   22.168000      10.0000    195.0840
  392   3 Pt  78       7.220001    7.210000   22.127999      10.0000    195.0840
  393   3 Pt  78      10.050000    7.320001   22.208001      10.0000    195.0840
  394   3 Pt  78      -4.070000    7.210000   22.127999      10.0000    195.0840
  395   3 Pt  78      -1.140000    7.170000   22.068001      10.0000    195.0840
  396   3 Pt  78       1.590000    7.140000   22.107998      10.0000    195.0840
  397   3 Pt  78       5.800000    9.720000   22.098000      10.0000    195.0840
  398   3 Pt  78       8.640000    9.580001   22.227997      10.0000    195.0840
  399   3 Pt  78      -5.470000    9.640000   22.237999      10.0000    195.0840
  400   3 Pt  78      -2.550000    9.550000   22.237999      10.0000    195.0840
  401   3 Pt  78       0.320000    9.560000   22.028000      10.0000    195.0840
  402   3 Pt  78       2.990000    9.690001   22.028000      10.0000    195.0840
  403   3 Pt  78       7.160000   12.130001   22.107998      10.0000    195.0840
  404   3 Pt  78      -6.890000   12.040001   22.258000      10.0000    195.0840
  405   3 Pt  78      -3.990000   12.050000   22.168000      10.0000    195.0840
  406   3 Pt  78      -1.250000   12.030001   22.147999      10.0000    195.0840
  407   3 Pt  78       1.560000   12.080001   22.028000      10.0000    195.0840
  408   3 Pt  78       4.360000   12.140001   22.117997      10.0000    195.0840
  409   3 Pt  78       1.580000    0.730000   19.950000      10.0000    195.0840
  410   3 Pt  78       4.460000    0.620000   19.940001      10.0000    195.0840
  411   3 Pt  78       7.190001    0.640000   19.800000      10.0000    195.0840
  412   3 Pt  78       9.930000    0.720000   19.760000      10.0000    195.0840
  413   3 Pt  78      12.720001    0.650000   19.740000      10.0000    195.0840
  414   3 Pt  78      15.580001    0.700000   19.780000      10.0000    195.0840
  415   3 Pt  78       3.060000    3.110000   19.790000      10.0000    195.0840
  416   3 Pt  78       5.760000    3.130000   19.780000      10.0000    195.0840
  417   3 Pt  78       8.460000    3.180000   19.760000      10.0000    195.0840
  418   3 Pt  78      11.340000    3.070000   19.770000      10.0000    195.0840
  419   3 Pt  78      14.150001    3.080000   19.710001      10.0000    195.0840
  420   3 Pt  78       0.180000    3.070000   19.800000      10.0000    195.0840
  421   3 Pt  78       4.380000    5.560000   19.870000      10.0000    195.0840
  422   3 Pt  78       7.180000    5.730000   19.860001      10.0000    195.0840
  423   3 Pt  78       9.920000    5.650000   19.790000      10.0000    195.0840
  424   3 Pt  78      12.680000    5.520000   19.770000      10.0000    195.0840
  425   3 Pt  78      -1.220000    5.510000   19.830001      10.0000    195.0840
  426   3 Pt  78       1.710000    5.450000   19.840000      10.0000    195.0840
  427   3 Pt  78       5.760000    8.090000   19.820000      10.0000    195.0840
  428   3 Pt  78       8.590000    8.060000   19.830001      10.0000    195.0840
  429   3 Pt  78      11.420001    8.030001   19.860001      10.0000    195.0840
  430   3 Pt  78      -2.710000    7.910000   19.820000      10.0000    195.0840
  431   3 Pt  78       0.180000    7.920001   19.820000      10.0000    195.0840
  432   3 Pt  78       3.040000    8.020000   19.770000      10.0000    195.0840
  433   3 Pt  78       7.150001   10.490000   19.890000      10.0000    195.0840
  434   3 Pt  78       9.960001   10.450001   19.930000      10.0000    195.0840
  435   3 Pt  78      -4.030000   10.390000   19.890000      10.0000    195.0840
  436   3 Pt  78      -1.240000   10.340000   19.780000      10.0000    195.0840
  437   3 Pt  78       1.500000   10.440001   19.660001      10.0000    195.0840
  438   3 Pt  78       4.310000   10.480001   19.810000      10.0000    195.0840
  439   3 Pt  78       8.540000   12.920000   19.830001      10.0000    195.0840
  440   3 Pt  78      -5.480001   12.820001   20.020000      10.0000    195.0840
  441   3 Pt  78      -2.620000   12.800001   19.860001      10.0000    195.0840
  442   3 Pt  78       0.070000   12.800001   19.770000      10.0000    195.0840
  443   3 Pt  78       2.830000   12.940001   19.670000      10.0000    195.0840
  444   3 Pt  78       5.680000   12.930001   19.740000      10.0000    195.0840
  445   3 Pt  78       0.130000    1.410000   17.340000      10.0000    195.0840
  446   3 Pt  78       3.040000    1.470000   17.600000      10.0000    195.0840
  447   3 Pt  78       5.850000    1.560000   17.530000      10.0000    195.0840
  448   3 Pt  78       8.500000    1.510000   17.520000      10.0000    195.0840
  449   3 Pt  78      11.290001    1.540000   17.440001      10.0000    195.0840
  450   3 Pt  78      14.140000    1.540000   17.490000      10.0000    195.0840
  451   3 Pt  78       1.490000    3.800000   17.490000      10.0000    195.0840
  452   3 Pt  78       4.270000    3.920000   17.430000      10.0000    195.0840
  453   3 Pt  78       7.170000    4.060000   17.440001      10.0000    195.0840
  454   3 Pt  78       9.920000    4.000000   17.460000      10.0000    195.0840
  455   3 Pt  78      12.730000    3.950000   17.400000      10.0000    195.0840
  456   3 Pt  78      -1.200000    3.820000   17.560000      10.0000    195.0840
  457   3 Pt  78       2.900000    6.330000   17.450000      10.0000    195.0840
  458   3 Pt  78       5.760000    6.550000   17.590000      10.0000    195.0840
  459   3 Pt  78       8.470000    6.470000   17.400000      10.0000    195.0840
  460   3 Pt  78      11.290001    6.490001   17.570000      10.0000    195.0840
  461   3 Pt  78      -2.670000    6.280000   17.490000      10.0000    195.0840
  462   3 Pt  78       0.140000    6.260000   17.520000      10.0000    195.0840
  463   3 Pt  78       4.380000    8.800000   17.390000      10.0000    195.0840
  464   3 Pt  78       7.180000    8.950001   17.470000      10.0000    195.0840
  465   3 Pt  78      10.010000    8.990001   17.490000      10.0000    195.0840
  466   3 Pt  78      -4.070000    8.750001   17.400000      10.0000    195.0840
  467   3 Pt  78      -1.260000    8.640000   17.460000      10.0000    195.0840
  468   3 Pt  78       1.580000    8.770000   17.520000      10.0000    195.0840
  469   3 Pt  78       5.710001   11.280001   17.580000      10.0000    195.0840
  470   3 Pt  78       8.540000   11.330000   17.600000      10.0000    195.0840
  471   3 Pt  78      -5.470000   11.190001   17.720001      10.0000    195.0840
  472   3 Pt  78      -2.650000   11.130000   17.510000      10.0000    195.0840
  473   3 Pt  78       0.120000   11.150000   17.380000      10.0000    195.0840
  474   3 Pt  78       2.930000   11.190001   17.450000      10.0000    195.0840
  475   3 Pt  78       7.050000   13.700001   17.460000      10.0000    195.0840
  476   3 Pt  78      -6.860001   13.680000   17.580000      10.0000    195.0840
  477   3 Pt  78      -4.110000   13.690001   17.660000      10.0000    195.0840
  478   3 Pt  78      -1.270000   13.530001   17.480000      10.0000    195.0840
  479   3 Pt  78       1.400000   13.640001   17.470000      10.0000    195.0840
  480   3 Pt  78       4.180000   13.730000   17.440001      10.0000    195.0840
  481   3 Pt  78      -8.550000   14.490002   15.130000      10.0000    195.0840
  482   3 Pt  78      -5.520000   14.390000   15.270000      10.0000    195.0840
  483   3 Pt  78      -2.780000   14.460001   15.290000      10.0000    195.0840
  484   3 Pt  78       0.130000   14.400001   15.160000      10.0000    195.0840
  485   3 Pt  78       2.790000   14.480001   15.110001      10.0000    195.0840
  486   3 Pt  78       5.570001   14.490002   15.070000      10.0000    195.0840
  487   3 Pt  78       1.580000    2.280000   15.190000      10.0000    195.0840
  488   3 Pt  78       4.440001    2.250000   15.210000      10.0000    195.0840
  489   3 Pt  78       7.210000    2.310000   15.160000      10.0000    195.0840
  490   3 Pt  78       9.880000    2.280000   15.200000      10.0000    195.0840
  491   3 Pt  78      12.770000    2.300000   15.000000      10.0000    195.0840
  492   3 Pt  78      -1.400000    2.340000   15.140000      10.0000    195.0840
  493   3 Pt  78       2.910000    4.620000   15.130000      10.0000    195.0840
  494   3 Pt  78       5.660000    4.870000   15.270000      10.0000    195.0840
  495   3 Pt  78       8.500000    4.870000   15.010000      10.0000    195.0840
  496   3 Pt  78      11.220001    4.720000   15.290000      10.0000    195.0840
  497   3 Pt  78      -2.650000    4.750000   15.180000      10.0000    195.0840
  498   3 Pt  78       0.170000    4.760000   15.180000      10.0000    195.0840
  499   3 Pt  78       4.190001    7.160000   15.060000      10.0000    195.0840
  500   3 Pt  78       6.980000    7.250000   15.010000      10.0000    195.0840
  501   3 Pt  78       9.780001    7.220001   15.030000      10.0000    195.0840
  502   3 Pt  78      -4.170000    7.150001   15.220000      10.0000    195.0840
  503   3 Pt  78      -1.370000    7.180000   15.130000      10.0000    195.0840
  504   3 Pt  78       1.450000    7.130001   15.260000      10.0000    195.0840
  505   3 Pt  78       5.650000    9.630001   15.130000      10.0000    195.0840
[...]
 -                                                                             -
 -                                DBCSR STATISTICS                             -
 -                                                                             -
 -------------------------------------------------------------------------------
 COUNTER                                    TOTAL       BLAS       SMM       ACC
 flops     5 x     5 x   124           6228210000       0.0%    100.0%      0.0%
 flops    13 x     5 x   124           7893158000       0.0%    100.0%      0.0%
 flops     5 x    13 x   124           7910890000       0.0%    100.0%      0.0%
 flops    13 x    13 x   124           9394574800       0.0%    100.0%      0.0%
 flops     5 x     5 x    96           9643680000       0.0%    100.0%      0.0%
 flops    13 x     5 x    96          12221664000       0.0%    100.0%      0.0%
 flops     5 x    13 x    96          12249120000       0.0%    100.0%      0.0%
 flops    20 x    13 x   124          13366704000       0.0%    100.0%      0.0%
 flops    13 x    20 x   124          13382824000       0.0%    100.0%      0.0%
 flops     5 x    20 x   124          14304640000       0.0%    100.0%      0.0%
 flops    20 x     5 x   124          14314560000       0.0%    100.0%      0.0%
 flops    13 x    13 x    96          14546438400       0.0%    100.0%      0.0%
 flops    20 x    13 x    96          20696832000       0.0%    100.0%      0.0%
 flops    13 x    20 x    96          20721792000       0.0%    100.0%      0.0%
 flops     5 x    20 x    96          22149120000       0.0%    100.0%      0.0%
 flops    20 x     5 x    96          22164480000       0.0%    100.0%      0.0%
 flops     5 x     5 x   128          83578560000       0.0%    100.0%      0.0%
 flops    13 x     5 x   128         105921088000       0.0%    100.0%      0.0%
 flops     5 x    13 x   128         106159040000       0.0%    100.0%      0.0%
 flops    20 x    20 x   124         116242560000       0.0%    100.0%      0.0%
 flops    13 x    13 x   128         126069132800       0.0%    100.0%      0.0%
 flops    20 x    13 x   128         179372544000       0.0%    100.0%      0.0%
 flops    13 x    20 x   128         179588864000       0.0%    100.0%      0.0%
 flops    20 x    20 x    96         179988480000       0.0%    100.0%      0.0%
 flops     5 x    20 x   128         191959040000       0.0%    100.0%      0.0%
 flops    20 x     5 x   128         192092160000       0.0%    100.0%      0.0%
 flops    20 x    20 x   128        1559900160000       0.0%    100.0%      0.0%
 flops inhomo. stacks                           0       0.0%      0.0%      0.0%
 flops total                         3.242060E+12       0.0%    100.0%      0.0%
 flops max/rank                     30.440718E+09       0.0%    100.0%      0.0%
 matmuls inhomo. stacks                         0       0.0%      0.0%      0.0%
 matmuls total                           79196000       0.0%    100.0%      0.0%
 number of processed stacks                914400       0.0%    100.0%      0.0%
 average stack size                                     0.0      86.6       0.0
 marketing flops                     6.754566E+12
 -------------------------------------------------------------------------------
 # multiplications                             50
 max memory usage/rank               1.633903E+09
 # max total images/rank                        2
 # max 3D layers                                1
 # MPI messages exchanged                  185600
 MPI messages size (bytes):
  total size                       115.346874E+09
  min size                         315.648000E+03
  max size                         850.944000E+03
  average size                     621.481000E+03
 MPI breakdown and total messages size (bytes):
             size <=      128                   0                        0
       128 < size <=     8192                   0                        0
      8192 < size <=    32768                   0                        0
     32768 < size <=   131072                   0                        0
    131072 < size <=  4194304              185600             115346880000
   4194304 < size <= 16777216                   0                        0
  16777216 < size                               0                        0
 -------------------------------------------------------------------------------

 *** WARNING in dbcsr_mm.F:290 :: Using a non-square number of MPI ranks ***
 *** might lead to poor performance. Used ranks: 128 Suggested: 121 256  ***

 -------------------------------------------------------------------------------
 -                                                                             -
 -                      DBCSR MESSAGE PASSING PERFORMANCE                      -
 -                                                                             -
 -------------------------------------------------------------------------------
 ROUTINE             CALLS      AVE VOLUME [Bytes]
 MP_Bcast               28                     12.
 MP_Allreduce          424                     11.
 MP_Alltoall          1412                 576573.
 MP_ISend             3200                 294020.
 MP_IRecv             3200                 287412.
 -------------------------------------------------------------------------------

 -------------------------------------------------------------------------------
 -                                                                             -
 -                                DBM STATISTICS                               -
 -                                                                             -
 -------------------------------------------------------------------------------
    M  x    N  x    K                                          COUNT     PERCENT
 -------------------------------------------------------------------------------

 -------------------------------------------------------------------------------
 -                                                                             -
 -                                GRID STATISTICS                              -
 -                                                                             -
 -------------------------------------------------------------------------------
 LP    KERNEL             BACKEND                              COUNT     PERCENT
 4     collocate general  REF                               20322750      22.25%
 4     integrate general  REF                               20196808      22.11%
 3     collocate general  REF                               14025650      15.36%
 3     integrate general  REF                               13968801      15.30%
 2     collocate general  REF                               11183200      12.25%
 2     integrate general  REF                               10959536      12.00%
 5     integrate general  REF                                 406455       0.45%
 0     collocate general  REF                                 132096       0.14%
 0     integrate general  REF                                  66048       0.07%
 1     integrate general  REF                                  66048       0.07%
 -------------------------------------------------------------------------------

 MEMORY| Estimated peak process memory [MiB]                                1820

 -------------------------------------------------------------------------------
 ----                             MULTIGRID INFO                            ----
 -------------------------------------------------------------------------------
 count for grid        1:        1095681          cutoff [a.u.]          200.00
 count for grid        2:        1091192          cutoff [a.u.]           66.67
 count for grid        3:         715053          cutoff [a.u.]           22.22
 count for grid        4:         554076          cutoff [a.u.]            7.41
 total gridlevel count  :        3456002

 -------------------------------------------------------------------------------
 -                                                                             -
 -                         MESSAGE PASSING PERFORMANCE                         -
 -                                                                             -
 -------------------------------------------------------------------------------

 ROUTINE             CALLS      AVE VOLUME [Bytes]
 MP_Group                4
 MP_Bcast              253                2255101.
 MP_Allreduce         3688                  29419.
 MP_Sync               104
 MP_Alltoall          3012               16291023.
 MP_SendRecv           508                   5916.
 MP_ISendRecv        25400                  61740.
 MP_Wait             44864
 MP_comm_split          50
 MP_ISend            18344                 256260.
 MP_IRecv            18344                 256260.
 MP_Recv               183                1694720.
 MP_Write_All            3                1797408.
 -------------------------------------------------------------------------------


 -------------------------------------------------------------------------------
 -                                                                             -
 -                           R E F E R E N C E S                               -
 -                                                                             -
 -------------------------------------------------------------------------------
 
 CP2K version 2022.1, the CP2K developers group (2022).
 CP2K is freely available from https://www.cp2k.org/ .

 Kuehne,Thomas D.; Iannuzzi,Marcella; Del Ben,Mauro;
 Rybkin,Vladimir V.; Seewald,Patrick; Stein,Frederick; Laino,Teodoro;
 Khaliullin,Rustam Z.; Schuett,Ole; Schiffmann,Florian; Golze,Dorothea;
 Wilhelm,Jan; Chulkov,Sergey; Bani-Hashemian,Mohammad Hossein;
 Weber,Valery; Borstnik,Urban; Taillefumier,Mathieu;
 Jakobovits,Alice Shoshana; Lazzaro,Alfio; Pabst,Hans; Mueller,Tiziano;
 Schade,Robert; Guidon,Manuel; Andermatt,Samuel; Holmberg,Nico;
 Schenter,Gregory K.; Hehn,Anna; Bussy,Augustin; Belleflamme,Fabian;
 Tabacchi,Gloria; Gloess,Andreas; Lass,Michael; Bethune,Iain;
 Mundy,Christopher J.; Plessl,Christian; Watkins,Matt;
 VandeVondele,Joost; Krack,Matthias; Hutter,Juerg. 
 The Journal of Chemical Physics, 152 (19), (2020). 
 CP2K: An electronic structure and molecular dynamics software package -
 Quickstep: Efficient and accurate electronic structure calculations.
 https://doi.org/10.1063/5.0007045

 Goerigk, Lars; Hansen, Andreas; Bauer, Christoph; Ehrlich, Stephan;
 Najibi, Asim; Grimme, Stefan. , 19 (48), (2017). 
 A look at the density functional theory zoo with the advanced GMTKN55 database
 for general main group thermochemistry, kinetics and noncovalent interactions.
 https://doi.org/10.1039/C7CP04913G

 Bani-Hashemian, MH; Bruck, S; Luisier, M; VandeVondele, J. 
 JOURNAL OF CHEMICAL PHYSICS, 144 (4), 044113 (2016). 
 A generalized Poisson solver for first-principles device simulations.
 https://doi.org/10.1063/1.4940796

 Schuett, Ole; Messmer, Peter; Hutter, Juerg; VandeVondele, Joost. 
 Electronic Structure Calculations on Graphics Processing Units, John
 Wiley & Sons, Ltd, 173-190 (2016). 
 GPU-Accelerated Sparse Matrix-Matrix Multiplication for
 Linear Scaling Density Functional Theory.
 https://doi.org/10.1002/9781118670712.ch8

 Heinecke, A; Henry, G; Hutchinson, M; Pabst, H. 
 Proceedings of Intl. Supercomputing Conference, 981-991 (2016). 
 LIBXSMM: Accelerating Small Matrix Multiplications
 by Runtime Code Generation.
 https://doi.org/10.1109/SC.2016.83

 Borstnik, U; VandeVondele, J; Weber, V; Hutter, J. 
 PARALLEL COMPUTING, 40 (5-6), 47-58 (2014). 
 Sparse matrix multiplication: The distributed block-compressed sparse
 row library.
 https://doi.org/10.1016/j.parco.2014.03.012

 Hutter, J; Iannuzzi, M; Schiffmann, F; VandeVondele, J. 
 WIREs Comput Mol Sci., 4 (1), 15-25 (2014). 
 CP2K: atomistic simulations of condensed matter systems.
 https://doi.org/10.1002/wcms.1159

 Marek, A; Blum, V; Johanni, R; Havu, V; Lang, B; Auckenthaler, T;
 Heinecke, A; Bungartz, H; Lederer, H. 
 Journal of Physics: Condensed Matter, 26 (21), (2014). 
 The ELPA library: scalable parallel eigenvalue solutions for
 electronic structure
 theory and computational science.
 https://doi.org/10.1088/0953-8984/26/21/213201

 Grimme, S; Ehrlich, S; Goerigk, L. 
 JOURNAL OF COMPUTATIONAL CHEMISTRY, 32, 1456 (2011). 
 Effect of the damping function in dispersion corrected density functional theory.
 https://doi.org/10.1002/jcc.21759

 Grimme, S; Antony, J; Ehrlich, S; Krieg, H. 
 JOURNAL OF CHEMICAL PHYSICS, 132 (15), 154104 (2010). 
 A consistent and accurate ab initio parametrization of density
 functional dispersion correction (DFT-D) for the 94 elements H-Pu.
 https://doi.org/10.1063/1.3382344

 VandeVondele, J; Hutter, J. 
 JOURNAL OF CHEMICAL PHYSICS, 127 (11), 114105 (2007). 
 Gaussian basis sets for accurate calculations on molecular systems in
 gas and condensed phases.
 https://doi.org/10.1063/1.2770708

 Krack, M. 
 THEORETICAL CHEMISTRY ACCOUNTS, 114 (1-3), 145-152 (2005). 
 Pseudopotentials for H to Kr optimized for gradient-corrected
 exchange-correlation functionals.
 https://doi.org/10.1007/s00214-005-0655-y

 VandeVondele, J; Krack, M; Mohamed, F; Parrinello, M; Chassaing, T;
 Hutter, J. COMPUTER PHYSICS COMMUNICATIONS, 167 (2), 103-128 (2005). 
 QUICKSTEP: Fast and accurate density functional calculations using a
 mixed Gaussian and plane waves approach.
 https://doi.org/10.1016/j.cpc.2004.12.014

 Frigo, M; Johnson, SG. 
 PROCEEDINGS OF THE IEEE, 93 (2), 216-231 (2005). 
 The design and implementation of FFTW3.
 https://doi.org/10.1109/JPROC.2004.840301

 Hartwigsen, C; Goedecker, S; Hutter, J. 
 PHYSICAL REVIEW B, 58 (7), 3641-3662 (1998). 
 Relativistic separable dual-space Gaussian pseudopotentials from H to Rn.
 https://doi.org/10.1103/PhysRevB.58.3641

 Lippert, G; Hutter, J; Parrinello, M. 
 MOLECULAR PHYSICS, 92 (3), 477-487 (1997). 
 A hybrid Gaussian and plane wave density functional scheme.
 https://doi.org/10.1080/002689797170220

 Perdew, JP; Burke, K; Ernzerhof, M. 
 PHYSICAL REVIEW LETTERS, 77 (18), 3865-3868 (1996). 
 Generalized gradient approximation made simple.
 https://doi.org/10.1103/PhysRevLett.77.3865

 Goedecker, S; Teter, M; Hutter, J. 
 PHYSICAL REVIEW B, 54 (3), 1703-1710 (1996). 
 Separable dual-space Gaussian pseudopotentials.
 https://doi.org/10.1103/PhysRevB.54.1703


 -------------------------------------------------------------------------------
 -                                                                             -
 -                                T I M I N G                                  -
 -                                                                             -
 -------------------------------------------------------------------------------
 SUBROUTINE                       CALLS  ASD         SELF TIME        TOTAL TIME
                                MAXIMUM       AVERAGE  MAXIMUM  AVERAGE  MAXIMUM
 CP2K                                 1  1.0    0.019    0.037  348.274  348.275
 qs_forces                            1  2.0    0.002    0.002  347.777  347.778
 qs_energies                          1  3.0    0.000    0.001  341.620  341.632
 scf_env_do_scf                       1  4.0    0.000    0.001  333.302  333.439
 scf_env_do_scf_inner_loop           49  5.0    0.003    0.006  333.302  333.438
 rebuild_ks_matrix                   50  6.9    0.000    0.000  178.032  178.075
 qs_ks_build_kohn_sham_matrix        50  7.9    0.008    0.009  178.032  178.074
 qs_ks_update_qs_env                 49  6.0    0.000    0.000  174.048  174.091
 pw_transfer                       2594 12.2    0.188    0.228  111.162  113.384
 fft_wrap_pw1pw2                   2594 13.2    0.025    0.030  110.973  113.158
 fft_wrap_pw1pw2_200               2294 14.4    7.620    8.921  109.495  111.658
 pw_poisson_solve                    50  8.9    0.004    0.010   95.701   95.736
 qs_scf_new_mos                      49  6.0    0.002    0.007   95.462   95.628
 fft3d_ps                          2594 15.2   32.549   36.625   88.930   91.909
 implicit_poisson_solver_mixed_      50  9.9    2.044    2.493   90.648   90.717
 eigensolver                         49  7.0    0.004    0.006   89.994   90.264
 derive_fft                         298 12.1    0.019    0.023   63.494   63.741
 cp_fm_diag_elpa                     50  8.0    0.001    0.001   62.981   63.144
 cp_fm_redistribute_end              50  9.0    8.255   62.421    8.360   62.481
 cp_fm_diag_elpa_base                50  9.0   53.306   61.053   53.818   61.619
 mp_alltoall_z22v                  2594 17.2   46.906   58.131   46.906   58.131
 qs_rho_update_rho_low               50  6.0    0.000    0.000   56.033   56.048
 calculate_rho_elec                  50  7.0    0.097    0.121   56.032   56.047
 sum_up_and_integrate                50  8.9    0.271    0.326   55.018   55.059
 integrate_v_rspace                  50  9.9    0.002    0.004   54.747   54.868
 apply_P_operator                   248 11.1    1.319    1.452   54.270   54.503
 grid_collocate_task_list            50  8.0   36.243   44.198   36.243   44.198
 grid_integrate_task_list            50 10.9   33.603   40.138   33.603   40.138
 x_to_yz                           1494 16.4    6.352    8.096   35.416   36.838
 rs_pw_transfer                     404 10.4    0.005    0.006   24.562   28.820
 cp_fm_triangular_multiply          147  8.0   28.191   28.540   28.191   28.540
 yz_to_x                            800 16.4    2.193    2.543   19.844   27.061
 qs_vxc_create                       50  8.9    0.001    0.002   24.472   24.777
 xc_vxc_pw_create                    50  9.9    0.427    0.533   24.471   24.776
 density_rs2pw                       50  8.0    0.003    0.004   18.604   23.031
 xc_pw_derive                       300 11.9    0.005    0.006   17.214   19.112
 apply_poisson_operator_fft          50 10.9    0.001    0.001   16.047   16.337
 mp_waitany                       18344 12.4   10.942   16.192   10.942   16.192
 rs_pw_transfer_RS2PW_200            52  9.9    3.401    3.755   11.142   15.392
 apply_inv_laplace_operator_fft     151 11.6    0.383    0.437   14.539   15.088
 potential_pw2rs                     50 10.9    0.015    0.016   14.061   14.177
 xc_pw_divergence                    50 10.9    0.003    0.003   11.636   13.079
 mp_alltoall_d11v                   707 10.2    8.632   12.711    8.632   12.711
 xc_rho_set_and_dset_create          50 10.9    0.249    0.299   11.937   12.663
 ps_implicit_compute_error_fft       99 10.9    0.623    0.755   10.745   11.515
 rs_gather_matrices                  50 10.9    0.060    0.078    7.069   11.064
 ps_implicit_compute_veps            50 10.9    0.290    0.353   10.837   11.016
 pw_scatter_p                      1644 15.4    9.180   10.763    9.180   10.763
 gspace_mixing                       48  6.0    0.092    0.112    8.542    8.546
 rs_pw_transfer_PW2RS_200            52 12.8    3.920    4.139    8.169    8.356
 pw_derive                         1194 13.1    7.559    7.984    7.559    7.984
 -------------------------------------------------------------------------------

 The number of warnings for this run is : 1
 
 -------------------------------------------------------------------------------
  **** **** ******  **  PROGRAM ENDED AT                 2023-12-01 23:19:47.228
 ***** ** ***  *** **   PROGRAM RAN ON                                     cu312
 **    ****   ******    PROGRAM RAN BY                                     jxzhu
 ***** **    ** ** **   PROGRAM PROCESS ID                                 21248
  **** **  *******  **  PROGRAM STOPPED IN /public/home/jxzhu/tmp_calc/3fb053bbf
                                           cc6ad3374a16008df82b73dbcc9c05e/calc/
                                           000200.000/search_hi.000000
