# Projected DOS for list 90 of 3 atoms, at iteration step i = 0, E(Fermi) =    -0.060510 a.u.
#     MO Eigenvalue [a.u.]      Occupation                 s                 p                 d
       1         -0.895259        2.000000        0.00000001        0.00000002        0.00000000
       2         -0.868125        2.000000        0.00000013        0.00000015        0.00000001
       3         -0.864615        2.000000        0.00000009        0.00000007        0.00000000
       4         -0.857993        2.000000        0.00014755        0.00016753        0.00000078
       5         -0.853826        2.000000        0.00000334        0.00000435        0.00000000
       6         -0.850378        2.000000        0.00000088        0.00000131        0.00000001
       7         -0.848222        2.000000        0.00000055        0.00000097        0.00000001
       8         -0.847335        2.000000        0.00000006        0.00000148        0.00000000
       9         -0.842977        2.000000        0.00002345        0.00000845        0.00000025
      10         -0.841504        2.000000        0.00028417        0.00007073        0.00000061
      11         -0.840654        2.000000        0.00000894        0.00008029        0.00000053
      12         -0.839688        2.000000        0.00005208        0.00012658        0.00000052
      13         -0.839172        2.000000        0.00008072        0.00004157        0.00000024
      14         -0.838522        2.000000        0.00003243        0.00001484        0.00000013
      15         -0.837015        2.000000        0.00006968        0.00006338        0.00000032
      16         -0.832753        2.000000        0.00077855        0.00016058        0.00000158
      17         -0.832000        2.000000        0.00011180        0.00016286        0.00000099
      18         -0.831644        2.000000        0.00012141        0.00010919        0.00000062
      19         -0.830027        2.000000        0.00002717        0.00011127        0.00000035
      20         -0.829447        2.000000        0.00029108        0.00052316        0.00000205
      21         -0.828640        2.000000        0.00058971        0.00017412        0.00000407
      22         -0.828147        2.000000        0.00518612        0.00195186        0.00000554
      23         -0.827394        2.000000        0.00007346        0.00045170        0.00000882
      24         -0.826637        2.000000        0.00415891        0.00074941        0.00001314
      25         -0.825864        2.000000        0.00004800        0.00041419        0.00000172
      26         -0.825007        2.000000        0.00012163        0.00033336        0.00000139
      27         -0.824149        2.000000        0.00029739        0.00009411        0.00000082
      28         -0.823003        2.000000        0.00001022        0.00031508        0.00000240
      29         -0.821982        2.000000        0.00124416        0.00027113        0.00000241
      30         -0.820560        2.000000        0.00043415        0.00042527        0.00000166
      31         -0.820223        2.000000        0.00017700        0.00039888        0.00000243
      32         -0.820029        2.000000        0.00484510        0.00302435        0.00002609
      33         -0.819390        2.000000        0.01480582        0.00302412        0.00005601
      34         -0.818664        2.000000        0.01386624        0.00268786        0.00005081
      35         -0.817548        2.000000        0.00070353        0.00006881        0.00000175
      36         -0.816472        2.000000        0.00075127        0.00019523        0.00000242
      37         -0.815444        2.000000        0.00069063        0.00008469        0.00000156
      38         -0.814805        2.000000        0.00017149        0.00008528        0.00000115
      39         -0.814124        2.000000        0.00057993        0.00016912        0.00000150
      40         -0.813968        2.000000        0.00020777        0.00008595        0.00000076
      41         -0.813053        2.000000        0.00000098        0.00000505        0.00000003
      42         -0.812601        2.000000        0.00017613        0.00005419        0.00000186
      43         -0.811948        2.000000        0.01050177        0.00156499        0.00002860
      44         -0.811687        2.000000        0.01569765        0.00242172        0.00004214
      45         -0.810574        2.000000        0.00065602        0.00013116        0.00000154
      46         -0.809310        2.000000        0.00000417        0.00000294        0.00000009
      47         -0.808268        2.000000        0.00171632        0.00044784        0.00000394
      48         -0.807324        2.000000        0.00001601        0.00002784        0.00000007
      49         -0.806602        2.000000        0.00013032        0.00019917        0.00000063
      50         -0.806376        2.000000        0.00198861        0.00036126        0.00000448
      51         -0.806147        2.000000        0.00012497        0.00008329        0.00000063
      52         -0.804835        2.000000        0.06373973        0.01476472        0.00014285
      53         -0.804321        2.000000        0.00001890        0.00004151        0.00000024
      54         -0.803943        2.000000        0.02172916        0.00485251        0.00004941
      55         -0.803401        2.000000        0.00048497        0.00015823        0.00000144
      56         -0.802648        2.000000        0.00000051        0.00000947        0.00000011
      57         -0.801912        2.000000        0.00000183        0.00002699        0.00000029
      58         -0.801342        2.000000        0.00225205        0.00046922        0.00000553
      59         -0.800594        2.000000        0.03160431        0.00847623        0.00006320
      60         -0.799945        2.000000        0.39182727        0.10643194        0.00078489
      61         -0.799254        2.000000        0.03391784        0.00848874        0.00007182
      62         -0.798331        2.000000        0.01336536        0.00339581        0.00002627
      63         -0.797356        2.000000        0.00303307        0.00066032        0.00000956
      64         -0.795713        2.000000        0.00041272        0.00014313        0.00000136
      65         -0.795144        2.000000        0.00243567        0.00052276        0.00000738
      66         -0.794508        2.000000        0.00192402        0.00107780        0.00000438
      67         -0.793501        2.000000        0.00394564        0.00122157        0.00000749
      68         -0.792888        2.000000        0.00023796        0.00009115        0.00000082
      69         -0.792771        2.000000        0.01079531        0.00412058        0.00001918
      70         -0.792166        2.000000        0.00130642        0.00035351        0.00000251
      71         -0.791795        2.000000        0.00004030        0.00005965        0.00000014
      72         -0.790466        2.000000        0.00149104        0.00088529        0.00000266
      73         -0.789691        2.000000        0.00023538        0.00007227        0.00000048
      74         -0.789018        2.000000        0.00003710        0.00001733        0.00000006
      75         -0.788284        2.000000        0.01860544        0.00503887        0.00005272
      76         -0.787044        2.000000        0.00061664        0.00020381        0.00000167
      77         -0.785765        2.000000        0.00891178        0.00249580        0.00003324
      78         -0.783215        2.000000        0.02104446        0.00607984        0.00009260
      79         -0.782853        2.000000        0.05417281        0.01577598        0.00024335
      80         -0.782388        2.000000        0.00064466        0.00020064        0.00000262
      81         -0.781821        2.000000        0.00014761        0.00004316        0.00000077
      82         -0.780108        2.000000        0.00004181        0.00001200        0.00000014
      83         -0.778906        2.000000        0.00000060        0.00000017        0.00000000
      84         -0.778076        2.000000        0.00000985        0.00000467        0.00000003
      85         -0.775317        2.000000        0.00000195        0.00000224        0.00000002
      86         -0.773086        2.000000        0.00000720        0.00000920        0.00000001
      87         -0.772920        2.000000        0.00001466        0.00000583        0.00000009
      88         -0.771409        2.000000        0.00065815        0.00070436        0.00000066
      89         -0.769725        2.000000        0.00081331        0.00030164        0.00000693
      90         -0.769226        2.000000        0.00577504        0.00214919        0.00005514
      91         -0.767566        2.000000        0.00288494        0.00110987        0.00003100
      92         -0.766737        2.000000        0.00004395        0.00001706        0.00000045
      93         -0.755845        2.000000        0.00000164        0.00000112        0.00000002
      94         -0.752538        2.000000        0.00000447        0.00000229        0.00000008
      95         -0.747161        2.000000        0.00000000        0.00000000        0.00000000
      96         -0.736999        2.000000        0.00000002        0.00000002        0.00000000
      97         -0.726419        2.000000        0.00000000        0.00000000        0.00000000
      98         -0.719129        2.000000        0.00000000        0.00000000        0.00000000
      99         -0.696511        2.000000        0.00000000        0.00000000        0.00000000
     100         -0.460315        2.000000        0.00000000        0.00000000        0.00000000
     101         -0.427906        2.000000        0.00000019        0.00000145        0.00000003
     102         -0.424376        2.000000        0.00000000        0.00000002        0.00000000
     103         -0.405781        2.000000        0.00002239        0.00005459        0.00000173
     104         -0.401299        2.000000        0.00001598        0.00006598        0.00000111
     105         -0.398347        2.000000        0.00000111        0.00000747        0.00000008
     106         -0.398267        2.000000        0.00001089        0.00006449        0.00000087
     107         -0.397295        2.000000        0.00000335        0.00000903        0.00000012
     108         -0.395753        2.000000        0.00001795        0.00013220        0.00000166
     109         -0.395158        2.000000        0.00000086        0.00000327        0.00000008
     110         -0.394493        2.000000        0.00000460        0.00002130        0.00000035
     111         -0.394192        2.000000        0.00000421        0.00001703        0.00000019
     112         -0.393919        2.000000        0.00001669        0.00007542        0.00000096
     113         -0.393017        2.000000        0.00000142        0.00001138        0.00000023
     114         -0.391793        2.000000        0.00000094        0.00000422        0.00000010
     115         -0.389280        2.000000        0.00000183        0.00004340        0.00000013
     116         -0.388145        2.000000        0.00000520        0.00004819        0.00000032
     117         -0.387090        2.000000        0.00001756        0.00023483        0.00000125
     118         -0.386138        2.000000        0.00000292        0.00003897        0.00000009
     119         -0.385161        2.000000        0.00000319        0.00001235        0.00000024
     120         -0.384984        2.000000        0.00001017        0.00003877        0.00000081
     121         -0.383823        2.000000        0.00008238        0.00078950        0.00000667
     122         -0.383101        2.000000        0.00000336        0.00001335        0.00000016
     123         -0.383025        2.000000        0.00000645        0.00007924        0.00000037
     124         -0.381208        2.000000        0.00000292        0.00003042        0.00000020
     125         -0.380660        2.000000        0.00002236        0.00024594        0.00000103
     126         -0.380323        2.000000        0.00000275        0.00005467        0.00000016
     127         -0.379623        2.000000        0.00000204        0.00002340        0.00000005
     128         -0.379161        2.000000        0.00014695        0.00170400        0.00000642
     129         -0.378115        2.000000        0.00000623        0.00005835        0.00000068
     130         -0.377757        2.000000        0.00019124        0.00060133        0.00001029
     131         -0.377213        2.000000        0.00001744        0.00009963        0.00000104
     132         -0.376655        2.000000        0.00000795        0.00004535        0.00000032
     133         -0.376089        2.000000        0.00009676        0.00035886        0.00000336
     134         -0.375522        2.000000        0.00002607        0.00011486        0.00000161
     135         -0.373953        2.000000        0.00008650        0.00054437        0.00000302
     136         -0.373564        2.000000        0.00020138        0.00085158        0.00000514
     137         -0.372991        2.000000        0.00007103        0.00042140        0.00000175
     138         -0.372433        2.000000        0.00014909        0.00105924        0.00000771
     139         -0.372037        2.000000        0.00001817        0.00015497        0.00000103
     140         -0.371632        2.000000        0.00002025        0.00014150        0.00000216
     141         -0.371006        2.000000        0.00001780        0.00019187        0.00000177
     142         -0.369840        2.000000        0.00002711        0.00016546        0.00000086
     143         -0.369635        2.000000        0.00016640        0.00057252        0.00000594
     144         -0.369153        2.000000        0.00002793        0.00011116        0.00000081
     145         -0.369131        2.000000        0.00000265        0.00000901        0.00000016
     146         -0.368498        2.000000        0.00001510        0.00005493        0.00000049
     147         -0.367984        2.000000        0.00003868        0.00013187        0.00000120
     148         -0.367257        2.000000        0.00000077        0.00000456        0.00000005
     149         -0.366951        2.000000        0.00006576        0.00032357        0.00000145
     150         -0.366882        2.000000        0.00048364        0.00206624        0.00001272
     151         -0.366558        2.000000        0.00027023        0.00123241        0.00000803
     152         -0.366087        2.000000        0.00024055        0.00115686        0.00000622
     153         -0.365532        2.000000        0.00019271        0.00078863        0.00000819
     154         -0.365292        2.000000        0.00004647        0.00025642        0.00000119
     155         -0.364873        2.000000        0.00016493        0.00072098        0.00000347
     156         -0.364499        2.000000        0.00011437        0.00052687        0.00000232
     157         -0.364385        2.000000        0.00001770        0.00022047        0.00000140
     158         -0.363409        2.000000        0.00008785        0.00025150        0.00000481
     159         -0.362731        2.000000        0.00002408        0.00019946        0.00000204
     160         -0.361690        2.000000        0.00003845        0.00014421        0.00000254
     161         -0.361463        2.000000        0.00026485        0.00096928        0.00001115
     162         -0.360695        2.000000        0.00029045        0.00120232        0.00001033
     163         -0.359909        2.000000        0.00102886        0.00332789        0.00005807
     164         -0.358869        2.000000        0.00009222        0.00037742        0.00000456
     165         -0.358762        2.000000        0.00001074        0.00003978        0.00000051
     166         -0.358424        2.000000        0.00008777        0.00028680        0.00000757
     167         -0.357749        2.000000        0.00005038        0.00022567        0.00000268
     168         -0.357432        2.000000        0.00043459        0.00192337        0.00002761
     169         -0.356226        2.000000        0.00000502        0.00004359        0.00000070
     170         -0.355206        2.000000        0.00071197        0.00196567        0.00004790
     171         -0.354151        2.000000        0.00185872        0.00604835        0.00012168
     172         -0.353675        2.000000        0.00598256        0.03508010        0.00034111
     173         -0.353241        2.000000        0.01387077        0.03775663        0.00093457
     174         -0.352384        2.000000        0.00089708        0.00490094        0.00004727
     175         -0.349281        2.000000        0.00070939        0.00205773        0.00004973
     176         -0.348101        2.000000        0.03192194        0.09539751        0.00201867
     177         -0.347056        2.000000        0.01286819        0.03643333        0.00086005
     178         -0.346421        2.000000        0.00067919        0.00262115        0.00003005
     179         -0.346099        2.000000        0.00619786        0.03014657        0.00045837
     180         -0.344626        2.000000        0.00065587        0.00191783        0.00004057
     181         -0.344227        2.000000        0.00010682        0.00060867        0.00000507
     182         -0.344158        2.000000        0.00006482        0.00019379        0.00000627
     183         -0.343279        2.000000        0.00467870        0.01309732        0.00032474
     184         -0.342186        2.000000        0.00104967        0.00302460        0.00007139
     185         -0.341638        2.000000        0.00029991        0.00084956        0.00001982
     186         -0.341223        2.000000        0.00108656        0.00300082        0.00006998
     187         -0.341051        2.000000        0.00000154        0.00000246        0.00000010
     188         -0.340810        2.000000        0.00009907        0.00030520        0.00000649
     189         -0.340344        2.000000        0.00320541        0.00903640        0.00021549
     190         -0.340103        2.000000        0.00038139        0.00160461        0.00001960
     191         -0.339538        2.000000        0.00066555        0.00187042        0.00004465
     192         -0.338904        2.000000        0.00033408        0.00095843        0.00002349
     193         -0.338737        2.000000        0.00001964        0.00005528        0.00000114
     194         -0.337951        2.000000        0.00004425        0.00013578        0.00000274
     195         -0.337180        2.000000        0.00011011        0.00036787        0.00000646
     196         -0.336960        2.000000        0.00001844        0.00008123        0.00000100
     197         -0.336163        2.000000        0.00004311        0.00013266        0.00000283
     198         -0.335733        2.000000        0.00009830        0.00027893        0.00000647
     199         -0.334956        2.000000        0.11987199        0.34572428        0.00766428
     200         -0.333834        2.000000        0.00698819        0.01997398        0.00046035
     201         -0.331670        2.000000        0.00063305        0.00195043        0.00004246
     202         -0.330715        2.000000        0.02599039        0.08644782        0.00175057
     203         -0.327469        2.000000        0.00009861        0.00044160        0.00000604
     204         -0.326924        2.000000        0.00000437        0.00001320        0.00000021
     205         -0.319799        2.000000        0.00042795        0.00131740        0.00002608
     206         -0.319625        2.000000        0.00000240        0.00000655        0.00000020
     207         -0.318771        2.000000        0.00008048        0.00047440        0.00000338
     208         -0.318487        2.000000        0.00000030        0.00000182        0.00000001
     209         -0.318151        2.000000        0.00013740        0.00041312        0.00000818
     210         -0.317254        2.000000        0.00007349        0.00023235        0.00000444
     211         -0.316615        2.000000        0.00009018        0.00028622        0.00000537
     212         -0.316317        2.000000        0.00000560        0.00002870        0.00000028
     213         -0.315885        2.000000        0.00002521        0.00007827        0.00000148
     214         -0.315512        2.000000        0.00000639        0.00001940        0.00000038
     215         -0.314742        2.000000        0.00001951        0.00006249        0.00000111
     216         -0.314240        2.000000        0.00000009        0.00000032        0.00000001
     217         -0.313093        2.000000        0.00002510        0.00008003        0.00000144
     218         -0.312538        2.000000        0.00003190        0.00010543        0.00000185
     219         -0.312396        2.000000        0.00000045        0.00000140        0.00000001
     220         -0.312037        2.000000        0.00002002        0.00006980        0.00000121
     221         -0.310598        2.000000        0.00004204        0.00014997        0.00000236
     222         -0.310221        2.000000        0.00002097        0.00007514        0.00000114
     223         -0.309408        2.000000        0.00000008        0.00000042        0.00000000
     224         -0.309395        2.000000        0.00000846        0.00002812        0.00000044
     225         -0.309234        2.000000        0.00004962        0.00015826        0.00000283
     226         -0.308381        2.000000        0.00009044        0.00029070        0.00000455
     227         -0.308250        2.000000        0.00024910        0.00145792        0.00000894
     228         -0.308097        2.000000        0.00001537        0.00006103        0.00000089
     229         -0.307179        2.000000        0.00000583        0.00001670        0.00000033
     230         -0.305966        2.000000        0.00001017        0.00003357        0.00000049
     231         -0.305190        2.000000        0.00000298        0.00001498        0.00000018
     232         -0.305170        2.000000        0.00000870        0.00004232        0.00000037
     233         -0.303881        2.000000        0.00000026        0.00000154        0.00000002
     234         -0.303186        2.000000        0.00000533        0.00001729        0.00000024
     235         -0.302644        2.000000        0.00000313        0.00001043        0.00000020
     236         -0.302137        2.000000        0.00000973        0.00002779        0.00000031
     237         -0.301410        2.000000        0.00001395        0.00004740        0.00000061
     238         -0.301270        2.000000        0.00000367        0.00001321        0.00000022
     239         -0.300504        2.000000        0.00000478        0.00002192        0.00000030
     240         -0.300347        2.000000        0.00000856        0.00002684        0.00000047
     241         -0.300010        2.000000        0.00000025        0.00000061        0.00000002
     242         -0.298878        2.000000        0.00000743        0.00002952        0.00000040
     243         -0.298505        2.000000        0.00000099        0.00000525        0.00000006
     244         -0.297847        2.000000        0.00000051        0.00000149        0.00000001
     245         -0.297156        2.000000        0.00000465        0.00001634        0.00000026
     246         -0.297046        2.000000        0.00000235        0.00000833        0.00000010
     247         -0.296671        2.000000        0.00000568        0.00002233        0.00000029
     248         -0.296618        2.000000        0.00000007        0.00000114        0.00000001
     249         -0.295969        2.000000        0.00000885        0.00003526        0.00000051
     250         -0.295348        2.000000        0.00000758        0.00003913        0.00000045
     251         -0.295087        2.000000        0.00000175        0.00000629        0.00000007
     252         -0.294369        2.000000        0.00001547        0.00005321        0.00000060
     253         -0.294183        2.000000        0.00000393        0.00001629        0.00000021
     254         -0.293640        2.000000        0.00001179        0.00004078        0.00000049
     255         -0.293246        2.000000        0.00000093        0.00000308        0.00000003
     256         -0.292577        2.000000        0.00000554        0.00002026        0.00000023
     257         -0.291994        2.000000        0.00000060        0.00000182        0.00000007
     258         -0.291705        2.000000        0.00000644        0.00002254        0.00000027
     259         -0.290928        2.000000        0.00000178        0.00000771        0.00000012
     260         -0.290306        2.000000        0.00000290        0.00001440        0.00000007
     261         -0.289901        2.000000        0.00001305        0.00004217        0.00000066
     262         -0.289451        2.000000        0.00000567        0.00002095        0.00000010
     263         -0.289043        2.000000        0.00000386        0.00001690        0.00000023
     264         -0.288015        2.000000        0.00002238        0.00008929        0.00000054
     265         -0.287861        2.000000        0.00006449        0.00026136        0.00000249
     266         -0.286936        2.000000        0.00000545        0.00002018        0.00000022
     267         -0.286667        2.000000        0.00001677        0.00006074        0.00000055
     268         -0.286302        2.000000        0.00000528        0.00002288        0.00000032
     269         -0.285607        2.000000        0.00000458        0.00001878        0.00000017
     270         -0.285328        2.000000        0.00000080        0.00000369        0.00000002
     271         -0.285085        2.000000        0.00000402        0.00001884        0.00000019
     272         -0.284841        2.000000        0.00000440        0.00001945        0.00000015
     273         -0.284131        2.000000        0.00000327        0.00001228        0.00000010
     274         -0.283572        2.000000        0.00000582        0.00002328        0.00000012
     275         -0.283249        2.000000        0.00000184        0.00000698        0.00000009
     276         -0.283050        2.000000        0.00000888        0.00003356        0.00000036
     277         -0.282957        2.000000        0.00001906        0.00007372        0.00000062
     278         -0.282638        2.000000        0.00000831        0.00003149        0.00000028
     279         -0.282393        2.000000        0.00002466        0.00009579        0.00000091
     280         -0.282190        2.000000        0.00000158        0.00000657        0.00000005
     281         -0.281812        2.000000        0.00000273        0.00001117        0.00000009
     282         -0.281718        2.000000        0.00000106        0.00000807        0.00000003
     283         -0.281529        2.000000        0.00006964        0.00028596        0.00000185
     284         -0.281304        2.000000        0.00000845        0.00003170        0.00000030
     285         -0.281056        2.000000        0.00003081        0.00019379        0.00000061
     286         -0.280948        2.000000        0.00000866        0.00003275        0.00000040
     287         -0.280843        2.000000        0.00009174        0.00047913        0.00000195
     288         -0.280780        2.000000        0.00000124        0.00000732        0.00000002
     289         -0.280282        2.000000        0.00000017        0.00000245        0.00000001
     290         -0.279956        2.000000        0.00000066        0.00000325        0.00000002
     291         -0.279807        2.000000        0.00001301        0.00005108        0.00000044
     292         -0.279686        2.000000        0.00000400        0.00002578        0.00000023
     293         -0.279589        2.000000        0.00001740        0.00006672        0.00000048
     294         -0.279495        2.000000        0.00000941        0.00004898        0.00000048
     295         -0.279217        2.000000        0.00001143        0.00004293        0.00000029
     296         -0.279093        2.000000        0.00002242        0.00009661        0.00000052
     297         -0.278951        2.000000        0.00000092        0.00000512        0.00000004
     298         -0.278592        2.000000        0.00000739        0.00003661        0.00000031
     299         -0.278433        2.000000        0.00000152        0.00000660        0.00000002
     300         -0.278210        2.000000        0.00000133        0.00000733        0.00000003
     301         -0.278135        2.000000        0.00005811        0.00022968        0.00000160
     302         -0.278031        2.000000        0.00002790        0.00011718        0.00000070
     303         -0.277650        2.000000        0.00000699        0.00003437        0.00000043
     304         -0.277312        2.000000        0.00001368        0.00006274        0.00000094
     305         -0.276990        2.000000        0.00028511        0.00134656        0.00000552
     306         -0.276609        2.000000        0.00005133        0.00022404        0.00000110
     307         -0.276405        2.000000        0.00023516        0.00119075        0.00000481