# Projected DOS for list 21 of 3 atoms, at iteration step i = 0, E(Fermi) =    -0.060510 a.u.
#     MO Eigenvalue [a.u.]      Occupation                 s                 p                 d
       1         -0.895259        2.000000        0.00000003        0.00000008        0.00000000
       2         -0.868125        2.000000        0.00002428        0.00003973        0.00000048
       3         -0.864615        2.000000        0.00002564        0.00004483        0.00000071
       4         -0.857993        2.000000        0.00001634        0.00002251        0.00000012
       5         -0.853826        2.000000        0.00003004        0.00001997        0.00000022
       6         -0.850378        2.000000        0.00000004        0.00000123        0.00000001
       7         -0.848222        2.000000        0.00000184        0.00003752        0.00000032
       8         -0.847335        2.000000        0.00010385        0.00005454        0.00000034
       9         -0.842977        2.000000        0.00000441        0.00000302        0.00000002
      10         -0.841504        2.000000        0.00001201        0.00000495        0.00000007
      11         -0.840654        2.000000        0.00000214        0.00001447        0.00000012
      12         -0.839688        2.000000        0.00011736        0.00002562        0.00000042
      13         -0.839172        2.000000        0.00021741        0.00012545        0.00000189
      14         -0.838522        2.000000        0.00004254        0.00001900        0.00000021
      15         -0.837015        2.000000        0.00046466        0.00024297        0.00000376
      16         -0.832753        2.000000        0.00010165        0.00004068        0.00000015
      17         -0.832000        2.000000        0.00052663        0.00018513        0.00000215
      18         -0.831644        2.000000        0.00021165        0.00051573        0.00000575
      19         -0.830027        2.000000        0.00027656        0.00007481        0.00000127
      20         -0.829447        2.000000        0.00215313        0.00022271        0.00000626
      21         -0.828640        2.000000        0.00016953        0.00002983        0.00000082
      22         -0.828147        2.000000        0.00350103        0.00109073        0.00001483
      23         -0.827394        2.000000        0.02028793        0.00725424        0.00009582
      24         -0.826637        2.000000        0.00016096        0.00006048        0.00000095
      25         -0.825864        2.000000        0.00382918        0.00127549        0.00001811
      26         -0.825007        2.000000        0.00175702        0.00039888        0.00000718
      27         -0.824149        2.000000        0.00396106        0.00199909        0.00002174
      28         -0.823003        2.000000        0.00070624        0.00050628        0.00000747
      29         -0.821982        2.000000        0.00002704        0.00018382        0.00000195
      30         -0.820560        2.000000        0.00153666        0.00073796        0.00000930
      31         -0.820223        2.000000        0.00578379        0.00162214        0.00002389
      32         -0.820029        2.000000        0.00160094        0.00033735        0.00000503
      33         -0.819390        2.000000        0.00527257        0.00152363        0.00002016
      34         -0.818664        2.000000        0.00005046        0.00020808        0.00000297
      35         -0.817548        2.000000        0.00346314        0.00223045        0.00002153
      36         -0.816472        2.000000        0.00045303        0.00013500        0.00000106
      37         -0.815444        2.000000        0.00014957        0.00012114        0.00000419
      38         -0.814805        2.000000        0.00010635        0.00009984        0.00000039
      39         -0.814124        2.000000        0.00285557        0.00105023        0.00000709
      40         -0.813968        2.000000        0.00077197        0.00167974        0.00001267
      41         -0.813053        2.000000        0.00007329        0.00007110        0.00000129
      42         -0.812601        2.000000        0.00016596        0.00062641        0.00000756
      43         -0.811948        2.000000        0.00041512        0.00012560        0.00000078
      44         -0.811687        2.000000        0.00002301        0.00006810        0.00000135
      45         -0.810574        2.000000        0.00547814        0.00085744        0.00001083
      46         -0.809310        2.000000        0.00059097        0.00139223        0.00002674
      47         -0.808268        2.000000        0.00001333        0.00008138        0.00000195
      48         -0.807324        2.000000        0.00020501        0.00012831        0.00000037
      49         -0.806602        2.000000        0.00083758        0.00009296        0.00000404
      50         -0.806376        2.000000        0.00096583        0.00022091        0.00000394
      51         -0.806147        2.000000        0.00049351        0.00050826        0.00000493
      52         -0.804835        2.000000        0.01287906        0.00187305        0.00002967
      53         -0.804321        2.000000        0.00014782        0.00014159        0.00000272
      54         -0.803943        2.000000        0.00078688        0.00009755        0.00000334
      55         -0.803401        2.000000        0.01352302        0.00401630        0.00002061
      56         -0.802648        2.000000        0.01768800        0.00406565        0.00005415
      57         -0.801912        2.000000        0.01486902        0.00377969        0.00005648
      58         -0.801342        2.000000        0.01452127        0.00369721        0.00007002
      59         -0.800594        2.000000        0.00545578        0.00089277        0.00001854
      60         -0.799945        2.000000        0.00026601        0.00039675        0.00000097
      61         -0.799254        2.000000        0.00003940        0.00013568        0.00000055
      62         -0.798331        2.000000        0.00182414        0.00314989        0.00000611
      63         -0.797356        2.000000        0.00041365        0.00021793        0.00000147
      64         -0.795713        2.000000        0.00005959        0.00002567        0.00000016
      65         -0.795144        2.000000        0.00006965        0.00007582        0.00000043
      66         -0.794508        2.000000        0.00459821        0.00145243        0.00000687
      67         -0.793501        2.000000        0.00121495        0.00042376        0.00000247
      68         -0.792888        2.000000        0.00216891        0.00078820        0.00000589
      69         -0.792771        2.000000        0.00229974        0.00059731        0.00000577
      70         -0.792166        2.000000        0.00359917        0.00100840        0.00000779
      71         -0.791795        2.000000        0.00191099        0.00049121        0.00000356
      72         -0.790466        2.000000        0.00240603        0.00065283        0.00000475
      73         -0.789691        2.000000        0.00005465        0.00041663        0.00000081
      74         -0.789018        2.000000        0.00197165        0.00065850        0.00000303
      75         -0.788284        2.000000        0.50977655        0.15470879        0.00090918
      76         -0.787044        2.000000        0.00385652        0.00120761        0.00000682
      77         -0.785765        2.000000        0.06463662        0.01973759        0.00012746
      78         -0.783215        2.000000        0.00345073        0.00131587        0.00000610
      79         -0.782853        2.000000        0.01037773        0.00385784        0.00002005
      80         -0.782388        2.000000        0.00593312        0.00168238        0.00001721
      81         -0.781821        2.000000        0.00000107        0.00001247        0.00000028
      82         -0.780108        2.000000        0.00007175        0.00003266        0.00000014
      83         -0.778906        2.000000        0.00000306        0.00000142        0.00000001
      84         -0.778076        2.000000        0.00000911        0.00000317        0.00000003
      85         -0.775317        2.000000        0.00004039        0.00001139        0.00000027
      86         -0.773086        2.000000        0.00115930        0.00035183        0.00000613
      87         -0.772920        2.000000        0.00008684        0.00002669        0.00000040
      88         -0.771409        2.000000        0.00003303        0.00001013        0.00000012
      89         -0.769725        2.000000        0.00006458        0.00002532        0.00000009
      90         -0.769226        2.000000        0.00051240        0.00020565        0.00000066
      91         -0.767566        2.000000        0.00024635        0.00011164        0.00000027
      92         -0.766737        2.000000        0.00009570        0.00005960        0.00000212
      93         -0.755845        2.000000        0.00000187        0.00000101        0.00000000
      94         -0.752538        2.000000        0.00000089        0.00000167        0.00000004
      95         -0.747161        2.000000        0.00000001        0.00000000        0.00000000
      96         -0.736999        2.000000        0.00000008        0.00000018        0.00000001
      97         -0.726419        2.000000        0.00000000        0.00000001        0.00000000
      98         -0.719129        2.000000        0.00000000        0.00000000        0.00000000
      99         -0.696511        2.000000        0.00000000        0.00000000        0.00000000
     100         -0.460315        2.000000        0.00000001        0.00000004        0.00000000
     101         -0.427906        2.000000        0.00000540        0.00003714        0.00000058
     102         -0.424376        2.000000        0.00000074        0.00000502        0.00000001
     103         -0.405781        2.000000        0.00000748        0.00009588        0.00000078
     104         -0.401299        2.000000        0.00000010        0.00000077        0.00000001
     105         -0.398347        2.000000        0.00000020        0.00000199        0.00000004
     106         -0.398267        2.000000        0.00000401        0.00001976        0.00000043
     107         -0.397295        2.000000        0.00000020        0.00000235        0.00000001
     108         -0.395753        2.000000        0.00000248        0.00001461        0.00000034
     109         -0.395158        2.000000        0.00000010        0.00000044        0.00000001
     110         -0.394493        2.000000        0.00000100        0.00000182        0.00000008
     111         -0.394192        2.000000        0.00000226        0.00001735        0.00000036
     112         -0.393919        2.000000        0.00000110        0.00000843        0.00000022
     113         -0.393017        2.000000        0.00000789        0.00004139        0.00000091
     114         -0.391793        2.000000        0.00000039        0.00000500        0.00000005
     115         -0.389280        2.000000        0.00000480        0.00003937        0.00000021
     116         -0.388145        2.000000        0.00000560        0.00004907        0.00000035
     117         -0.387090        2.000000        0.00000289        0.00005236        0.00000083
     118         -0.386138        2.000000        0.00047587        0.00376858        0.00003121
     119         -0.385161        2.000000        0.00025891        0.00407799        0.00002549
     120         -0.384984        2.000000        0.00002981        0.00066046        0.00000764
     121         -0.383823        2.000000        0.00007620        0.00044738        0.00000751
     122         -0.383101        2.000000        0.00013363        0.00087732        0.00001614
     123         -0.383025        2.000000        0.00077483        0.00484920        0.00008630
     124         -0.381208        2.000000        0.00071382        0.00453255        0.00007604
     125         -0.380660        2.000000        0.00032948        0.00209941        0.00003550
     126         -0.380323        2.000000        0.00029560        0.00183051        0.00003166
     127         -0.379623        2.000000        0.00007589        0.00048304        0.00000791
     128         -0.379161        2.000000        0.00001132        0.00006899        0.00000117
     129         -0.378115        2.000000        0.00002178        0.00011085        0.00000210
     130         -0.377757        2.000000        0.00000012        0.00000158        0.00000001
     131         -0.377213        2.000000        0.00007186        0.00043607        0.00000563
     132         -0.376655        2.000000        0.00007314        0.00041548        0.00000645
     133         -0.376089        2.000000        0.00000251        0.00001657        0.00000015
     134         -0.375522        2.000000        0.00001719        0.00008955        0.00000294
     135         -0.373953        2.000000        0.00009795        0.00057796        0.00000539
     136         -0.373564        2.000000        0.00000425        0.00002680        0.00000061
     137         -0.372991        2.000000        0.00002711        0.00014018        0.00000143
     138         -0.372433        2.000000        0.00020419        0.00091899        0.00000894
     139         -0.372037        2.000000        0.00000385        0.00006090        0.00000080
     140         -0.371632        2.000000        0.00001642        0.00008044        0.00000192
     141         -0.371006        2.000000        0.00007500        0.00019724        0.00000858
     142         -0.369840        2.000000        0.00000246        0.00001225        0.00000021
     143         -0.369635        2.000000        0.00000679        0.00003652        0.00000058
     144         -0.369153        2.000000        0.00000062        0.00000579        0.00000009
     145         -0.369131        2.000000        0.00000244        0.00001010        0.00000019
     146         -0.368498        2.000000        0.00001170        0.00008446        0.00000088
     147         -0.367984        2.000000        0.00008056        0.00051817        0.00000545
     148         -0.367257        2.000000        0.00000156        0.00001695        0.00000020
     149         -0.366951        2.000000        0.00000045        0.00000322        0.00000007
     150         -0.366882        2.000000        0.00000512        0.00003285        0.00000022
     151         -0.366558        2.000000        0.00000396        0.00002374        0.00000018
     152         -0.366087        2.000000        0.00000649        0.00003756        0.00000039
     153         -0.365532        2.000000        0.00001429        0.00015599        0.00000163
     154         -0.365292        2.000000        0.00000715        0.00006765        0.00000123
     155         -0.364873        2.000000        0.00005945        0.00024066        0.00000436
     156         -0.364499        2.000000        0.00000231        0.00001576        0.00000017
     157         -0.364385        2.000000        0.00013065        0.00058220        0.00000614
     158         -0.363409        2.000000        0.00019279        0.00087320        0.00002576
     159         -0.362731        2.000000        0.00033556        0.00133776        0.00001755
     160         -0.361690        2.000000        0.00024844        0.00157892        0.00002132
     161         -0.361463        2.000000        0.00096394        0.00398360        0.00005041
     162         -0.360695        2.000000        0.00000328        0.00001613        0.00000021
     163         -0.359909        2.000000        0.00077413        0.00340048        0.00003392
     164         -0.358869        2.000000        0.00005935        0.00024746        0.00000260
     165         -0.358762        2.000000        0.00001267        0.00005005        0.00000136
     166         -0.358424        2.000000        0.00000180        0.00000553        0.00000083
     167         -0.357749        2.000000        0.00009358        0.00037679        0.00000553
     168         -0.357432        2.000000        0.00029107        0.00111374        0.00001435
     169         -0.356226        2.000000        0.00000232        0.00000841        0.00000010
     170         -0.355206        2.000000        0.00006399        0.00032021        0.00000331
     171         -0.354151        2.000000        0.00017619        0.00053829        0.00001124
     172         -0.353675        2.000000        0.00171905        0.00695485        0.00010025
     173         -0.353241        2.000000        0.00002851        0.00013123        0.00000146
     174         -0.352384        2.000000        0.00001577        0.00010133        0.00000087
     175         -0.349281        2.000000        0.00004144        0.00018225        0.00000325
     176         -0.348101        2.000000        0.00091593        0.00373943        0.00004548
     177         -0.347056        2.000000        0.00031190        0.00144116        0.00001872
     178         -0.346421        2.000000        0.00001214        0.00008935        0.00000110
     179         -0.346099        2.000000        0.00011921        0.00089554        0.00000316
     180         -0.344626        2.000000        0.00000673        0.00002414        0.00000039
     181         -0.344227        2.000000        0.00000392        0.00002220        0.00000014
     182         -0.344158        2.000000        0.00000921        0.00003355        0.00000044
     183         -0.343279        2.000000        0.00000044        0.00000810        0.00000008
     184         -0.342186        2.000000        0.00001646        0.00008125        0.00000087
     185         -0.341638        2.000000        0.00000043        0.00000191        0.00000005
     186         -0.341223        2.000000        0.00000798        0.00003014        0.00000048
     187         -0.341051        2.000000        0.00003945        0.00013956        0.00000254
     188         -0.340810        2.000000        0.00000070        0.00000217        0.00000005
     189         -0.340344        2.000000        0.00000994        0.00003386        0.00000068
     190         -0.340103        2.000000        0.00081845        0.00349030        0.00005011
     191         -0.339538        2.000000        0.00001986        0.00007833        0.00000121
     192         -0.338904        2.000000        0.00000457        0.00001348        0.00000045
     193         -0.338737        2.000000        0.00021134        0.00063398        0.00001577
     194         -0.337951        2.000000        0.00156089        0.00620478        0.00014251
     195         -0.337180        2.000000        0.00013465        0.00054630        0.00001049
     196         -0.336960        2.000000        0.00001791        0.00029677        0.00000191
     197         -0.336163        2.000000        0.00148549        0.00512031        0.00011668
     198         -0.335733        2.000000        0.00152993        0.00508320        0.00011646
     199         -0.334956        2.000000        0.00012415        0.00046976        0.00000691
     200         -0.333834        2.000000        0.00011501        0.00046436        0.00000916
     201         -0.331670        2.000000        0.00087092        0.00326534        0.00006055
     202         -0.330715        2.000000        0.00013394        0.00084051        0.00000568
     203         -0.327469        2.000000        0.00001103        0.00006020        0.00000146
     204         -0.326924        2.000000        0.00033523        0.00157379        0.00002452
     205         -0.319799        2.000000        0.00000300        0.00001060        0.00000013
     206         -0.319625        2.000000        0.00001206        0.00004022        0.00000083
     207         -0.318771        2.000000        0.00315861        0.01025886        0.00022414
     208         -0.318487        2.000000        0.00000381        0.00001146        0.00000028
     209         -0.318151        2.000000        0.00000015        0.00000090        0.00000001
     210         -0.317254        2.000000        0.00000201        0.00000629        0.00000015
     211         -0.316615        2.000000        0.00000780        0.00002330        0.00000060
     212         -0.316317        2.000000        0.00148977        0.00487271        0.00010276
     213         -0.315885        2.000000        0.00000102        0.00000332        0.00000003
     214         -0.315512        2.000000        0.00000039        0.00000152        0.00000002
     215         -0.314742        2.000000        0.00001132        0.00003455        0.00000089
     216         -0.314240        2.000000        0.00000662        0.00001857        0.00000053
     217         -0.313093        2.000000        0.00001974        0.00005706        0.00000146
     218         -0.312538        2.000000        0.00000083        0.00000277        0.00000003
     219         -0.312396        2.000000        0.00000665        0.00002021        0.00000047
     220         -0.312037        2.000000        0.00001482        0.00004286        0.00000112
     221         -0.310598        2.000000        0.00000051        0.00000225        0.00000002
     222         -0.310221        2.000000        0.00000455        0.00001391        0.00000038
     223         -0.309408        2.000000        0.00001350        0.00004117        0.00000098
     224         -0.309395        2.000000        0.00000231        0.00000831        0.00000015
     225         -0.309234        2.000000        0.00000027        0.00000073        0.00000000
     226         -0.308381        2.000000        0.00555420        0.01667981        0.00041239
     227         -0.308250        2.000000        0.16513432        0.49487978        0.01227602
     228         -0.308097        2.000000        0.00321335        0.00960187        0.00024004
     229         -0.307179        2.000000        0.00060712        0.00180436        0.00004629
     230         -0.305966        2.000000        0.00001083        0.00003523        0.00000078
     231         -0.305190        2.000000        0.00009894        0.00031623        0.00000874
     232         -0.305170        2.000000        0.00043606        0.00127082        0.00003334
     233         -0.303881        2.000000        0.00000762        0.00002108        0.00000112
     234         -0.303186        2.000000        0.00000080        0.00000206        0.00000006
     235         -0.302644        2.000000        0.00000411        0.00001514        0.00000029
     236         -0.302137        2.000000        0.00001081        0.00003097        0.00000088
     237         -0.301410        2.000000        0.00000253        0.00000742        0.00000017
     238         -0.301270        2.000000        0.00003545        0.00010503        0.00000314
     239         -0.300504        2.000000        0.00005604        0.00028816        0.00000339
     240         -0.300347        2.000000        0.00018685        0.00058551        0.00001668
     241         -0.300010        2.000000        0.00000593        0.00003142        0.00000075
     242         -0.298878        2.000000        0.00001388        0.00004621        0.00000105
     243         -0.298505        2.000000        0.00019524        0.00063512        0.00001697
     244         -0.297847        2.000000        0.00003826        0.00014281        0.00000333
     245         -0.297156        2.000000        0.00013300        0.00041769        0.00001075
     246         -0.297046        2.000000        0.00003783        0.00011717        0.00000305
     247         -0.296671        2.000000        0.00010445        0.00032132        0.00000822
     248         -0.296618        2.000000        0.00001041        0.00004720        0.00000086
     249         -0.295969        2.000000        0.00000691        0.00003086        0.00000066
     250         -0.295348        2.000000        0.00005719        0.00015436        0.00000518
     251         -0.295087        2.000000        0.00000922        0.00002731        0.00000059
     252         -0.294369        2.000000        0.00002302        0.00006675        0.00000166
     253         -0.294183        2.000000        0.00000463        0.00001497        0.00000036
     254         -0.293640        2.000000        0.00005281        0.00016598        0.00000281
     255         -0.293246        2.000000        0.00000493        0.00001550        0.00000028
     256         -0.292577        2.000000        0.00000438        0.00002116        0.00000030
     257         -0.291994        2.000000        0.00009842        0.00043057        0.00000537
     258         -0.291705        2.000000        0.00002119        0.00006233        0.00000131
     259         -0.290928        2.000000        0.00020311        0.00064269        0.00001857
     260         -0.290306        2.000000        0.00031464        0.00114328        0.00002820
     261         -0.289901        2.000000        0.00060690        0.00175282        0.00005042
     262         -0.289451        2.000000        0.00030312        0.00090356        0.00002678
     263         -0.289043        2.000000        0.00012351        0.00036146        0.00001032
     264         -0.288015        2.000000        0.00011690        0.00039492        0.00000322
     265         -0.287861        2.000000        0.00109204        0.00354489        0.00004007
     266         -0.286936        2.000000        0.00000127        0.00000445        0.00000009
     267         -0.286667        2.000000        0.00004892        0.00014761        0.00000172
     268         -0.286302        2.000000        0.00000946        0.00003450        0.00000058
     269         -0.285607        2.000000        0.00001737        0.00005122        0.00000094
     270         -0.285328        2.000000        0.00007541        0.00027038        0.00000222
     271         -0.285085        2.000000        0.00001473        0.00005433        0.00000051
     272         -0.284841        2.000000        0.00001818        0.00006917        0.00000157
     273         -0.284131        2.000000        0.00003013        0.00010902        0.00000095
     274         -0.283572        2.000000        0.00002259        0.00009790        0.00000204
     275         -0.283249        2.000000        0.00005844        0.00024222        0.00000300
     276         -0.283050        2.000000        0.00004146        0.00017536        0.00000254
     277         -0.282957        2.000000        0.00000157        0.00000592        0.00000006
     278         -0.282638        2.000000        0.00002667        0.00008342        0.00000224
     279         -0.282393        2.000000        0.00070096        0.00254824        0.00005982
     280         -0.282190        2.000000        0.00000239        0.00000841        0.00000025
     281         -0.281812        2.000000        0.00000160        0.00000405        0.00000005
     282         -0.281718        2.000000        0.00003272        0.00012250        0.00000205
     283         -0.281529        2.000000        0.00007272        0.00027370        0.00000416
     284         -0.281304        2.000000        0.00006673        0.00024762        0.00000542
     285         -0.281056        2.000000        0.00000645        0.00002245        0.00000040
     286         -0.280948        2.000000        0.00001096        0.00004262        0.00000053
     287         -0.280843        2.000000        0.00004368        0.00019925        0.00000292
     288         -0.280780        2.000000        0.00001778        0.00007633        0.00000102
     289         -0.280282        2.000000        0.00004553        0.00018738        0.00000274
     290         -0.279956        2.000000        0.00000087        0.00000353        0.00000006
     291         -0.279807        2.000000        0.00004001        0.00015889        0.00000240
     292         -0.279686        2.000000        0.00027983        0.00108760        0.00001273
     293         -0.279589        2.000000        0.00000329        0.00001504        0.00000016
     294         -0.279495        2.000000        0.00001668        0.00006679        0.00000108
     295         -0.279217        2.000000        0.00024025        0.00091874        0.00001152
     296         -0.279093        2.000000        0.00206260        0.00820817        0.00011578
     297         -0.278951        2.000000        0.00035919        0.00138451        0.00001543
     298         -0.278592        2.000000        0.00012375        0.00050271        0.00000759
     299         -0.278433        2.000000        0.00003916        0.00017376        0.00000246
     300         -0.278210        2.000000        0.00000565        0.00001487        0.00000036
     301         -0.278135        2.000000        0.00001325        0.00006006        0.00000079
     302         -0.278031        2.000000        0.00002746        0.00011907        0.00000169
     303         -0.277650        2.000000        0.00011122        0.00047470        0.00000567
     304         -0.277312        2.000000        0.00006854        0.00031074        0.00000408
     305         -0.276990        2.000000        0.00016795        0.00077219        0.00000666
     306         -0.276609        2.000000        0.00001517        0.00005663        0.00000104
     307         -0.276405        2.000000        0.00007706        0.00037028        0.00000274