# Projected DOS for list 73 of 3 atoms, at iteration step i = 0, E(Fermi) =    -0.060510 a.u.
#     MO Eigenvalue [a.u.]      Occupation                 s                 p                 d
       1         -0.895259        2.000000        0.00000008        0.00000011        0.00000000
       2         -0.868125        2.000000        0.00056876        0.00031786        0.00000260
       3         -0.864615        2.000000        0.00208883        0.00093321        0.00000898
       4         -0.857993        2.000000        0.00000011        0.00000005        0.00000000
       5         -0.853826        2.000000        0.00053512        0.00010001        0.00000214
       6         -0.850378        2.000000        0.01048167        0.00232223        0.00002813
       7         -0.848222        2.000000        0.10179131        0.01911669        0.00030359
       8         -0.847335        2.000000        0.00029237        0.00007198        0.00000107
       9         -0.842977        2.000000        0.00055864        0.00016983        0.00000146
      10         -0.841504        2.000000        0.06717239        0.02093202        0.00016823
      11         -0.840654        2.000000        0.08229047        0.02454906        0.00019583
      12         -0.839688        2.000000        0.01573166        0.00446509        0.00003367
      13         -0.839172        2.000000        0.00347107        0.00094099        0.00000516
      14         -0.838522        2.000000        0.00923987        0.00242237        0.00001801
      15         -0.837015        2.000000        0.04520273        0.01246714        0.00008885
      16         -0.832753        2.000000        0.31393148        0.08021102        0.00062268
      17         -0.832000        2.000000        0.02977942        0.00783715        0.00005902
      18         -0.831644        2.000000        0.02923554        0.00727256        0.00005734
      19         -0.830027        2.000000        0.00149389        0.00038905        0.00000415
      20         -0.829447        2.000000        0.00388268        0.00103544        0.00001034
      21         -0.828640        2.000000        0.00078302        0.00018708        0.00000438
      22         -0.828147        2.000000        0.00196538        0.00046940        0.00000545
      23         -0.827394        2.000000        0.00005389        0.00003993        0.00000068
      24         -0.826637        2.000000        0.02465205        0.00659284        0.00006691
      25         -0.825864        2.000000        0.00619756        0.00175920        0.00001677
      26         -0.825007        2.000000        0.00720662        0.00198302        0.00002234
      27         -0.824149        2.000000        0.00069417        0.00049948        0.00000127
      28         -0.823003        2.000000        0.00279654        0.00086601        0.00001699
      29         -0.821982        2.000000        0.00036257        0.00014974        0.00000087
      30         -0.820560        2.000000        0.00065774        0.00019190        0.00000330
      31         -0.820223        2.000000        0.00052610        0.00016267        0.00000628
      32         -0.820029        2.000000        0.00314742        0.00085963        0.00001454
      33         -0.819390        2.000000        0.00089421        0.00039633        0.00000820
      34         -0.818664        2.000000        0.00004917        0.00003533        0.00000145
      35         -0.817548        2.000000        0.00092720        0.00029971        0.00000350
      36         -0.816472        2.000000        0.00026033        0.00012801        0.00000112
      37         -0.815444        2.000000        0.00021510        0.00010770        0.00000149
      38         -0.814805        2.000000        0.00042374        0.00065460        0.00000770
      39         -0.814124        2.000000        0.00000276        0.00000644        0.00000042
      40         -0.813968        2.000000        0.00000690        0.00001206        0.00000035
      41         -0.813053        2.000000        0.00027183        0.00030785        0.00000202
      42         -0.812601        2.000000        0.00023352        0.00015116        0.00001183
      43         -0.811948        2.000000        0.00012375        0.00006268        0.00000258
      44         -0.811687        2.000000        0.00002643        0.00001411        0.00000029
      45         -0.810574        2.000000        0.00004402        0.00011796        0.00000534
      46         -0.809310        2.000000        0.00009495        0.00003109        0.00000196
      47         -0.808268        2.000000        0.00001041        0.00016421        0.00001150
      48         -0.807324        2.000000        0.00078619        0.00043221        0.00002387
      49         -0.806602        2.000000        0.00103529        0.00041688        0.00000993
      50         -0.806376        2.000000        0.00031734        0.00023291        0.00000299
      51         -0.806147        2.000000        0.00032125        0.00008704        0.00000552
      52         -0.804835        2.000000        0.00005839        0.00007033        0.00000027
      53         -0.804321        2.000000        0.00020688        0.00011188        0.00000199
      54         -0.803943        2.000000        0.00021278        0.00009823        0.00000236
      55         -0.803401        2.000000        0.00003068        0.00028348        0.00000125
      56         -0.802648        2.000000        0.00001602        0.00001624        0.00000093
      57         -0.801912        2.000000        0.00012863        0.00008051        0.00000079
      58         -0.801342        2.000000        0.00000407        0.00002274        0.00000004
      59         -0.800594        2.000000        0.00011459        0.00004671        0.00000138
      60         -0.799945        2.000000        0.00006584        0.00011011        0.00000025
      61         -0.799254        2.000000        0.00002352        0.00013978        0.00000248
      62         -0.798331        2.000000        0.00574352        0.01079105        0.00001200
      63         -0.797356        2.000000        0.00011049        0.00028736        0.00001233
      64         -0.795713        2.000000        0.00001523        0.00002810        0.00000226
      65         -0.795144        2.000000        0.00001011        0.00000929        0.00000040
      66         -0.794508        2.000000        0.00028943        0.00021731        0.00001131
      67         -0.793501        2.000000        0.00001788        0.00000896        0.00000086
      68         -0.792888        2.000000        0.00001218        0.00004526        0.00000043
      69         -0.792771        2.000000        0.00010978        0.00006750        0.00000622
      70         -0.792166        2.000000        0.00000794        0.00008965        0.00000080
      71         -0.791795        2.000000        0.00000029        0.00001785        0.00000054
      72         -0.790466        2.000000        0.00003086        0.00002771        0.00000070
      73         -0.789691        2.000000        0.00001214        0.00001002        0.00000084
      74         -0.789018        2.000000        0.00001112        0.00000784        0.00000031
      75         -0.788284        2.000000        0.00007055        0.00013121        0.00000027
      76         -0.787044        2.000000        0.00000220        0.00000430        0.00000025
      77         -0.785765        2.000000        0.00000559        0.00001150        0.00000006
      78         -0.783215        2.000000        0.00000087        0.00000252        0.00000007
      79         -0.782853        2.000000        0.00000047        0.00000215        0.00000001
      80         -0.782388        2.000000        0.00001363        0.00001726        0.00000077
      81         -0.781821        2.000000        0.00000067        0.00000215        0.00000001
      82         -0.780108        2.000000        0.00000067        0.00000467        0.00000004
      83         -0.778906        2.000000        0.00000034        0.00000203        0.00000001
      84         -0.778076        2.000000        0.00003423        0.00022875        0.00000105
      85         -0.775317        2.000000        0.00000034        0.00000157        0.00000003
      86         -0.773086        2.000000        0.00000772        0.00000655        0.00000056
      87         -0.772920        2.000000        0.00000007        0.00000247        0.00000003
      88         -0.771409        2.000000        0.00000563        0.00000412        0.00000027
      89         -0.769725        2.000000        0.00000006        0.00000040        0.00000001
      90         -0.769226        2.000000        0.00000064        0.00000070        0.00000001
      91         -0.767566        2.000000        0.00000034        0.00000027        0.00000001
      92         -0.766737        2.000000        0.00000123        0.00000597        0.00000002
      93         -0.755845        2.000000        0.00000008        0.00000033        0.00000000
      94         -0.752538        2.000000        0.00000003        0.00000004        0.00000000
      95         -0.747161        2.000000        0.00000000        0.00000000        0.00000000
      96         -0.736999        2.000000        0.00000000        0.00000001        0.00000000
      97         -0.726419        2.000000        0.00000011        0.00000058        0.00000000
      98         -0.719129        2.000000        0.00000007        0.00000004        0.00000000
      99         -0.696511        2.000000        0.00000029        0.00000020        0.00000002
     100         -0.460315        2.000000        0.00000002        0.00000005        0.00000000
     101         -0.427906        2.000000        0.00004934        0.00014542        0.00000373
     102         -0.424376        2.000000        0.00000334        0.00001210        0.00000028
     103         -0.405781        2.000000        0.00000022        0.00000069        0.00000001
     104         -0.401299        2.000000        0.00001174        0.00005260        0.00000039
     105         -0.398347        2.000000        0.00163930        0.00652807        0.00005839
     106         -0.398267        2.000000        0.02056886        0.08153619        0.00073704
     107         -0.397295        2.000000        0.00019187        0.00075591        0.00000669
     108         -0.395753        2.000000        0.01219599        0.04461176        0.00051227
     109         -0.395158        2.000000        0.00003260        0.00011225        0.00000169
     110         -0.394493        2.000000        0.00020475        0.00069279        0.00001035
     111         -0.394192        2.000000        0.00001338        0.00002580        0.00000005
     112         -0.393919        2.000000        0.00010362        0.00030772        0.00000274
     113         -0.393017        2.000000        0.00398433        0.01449954        0.00012054
     114         -0.391793        2.000000        0.00016333        0.00071120        0.00000558
     115         -0.389280        2.000000        0.00000034        0.00000116        0.00000002
     116         -0.388145        2.000000        0.00001460        0.00007296        0.00000088
     117         -0.387090        2.000000        0.00028057        0.00091723        0.00001314
     118         -0.386138        2.000000        0.00091169        0.00299931        0.00009326
     119         -0.385161        2.000000        0.00083880        0.00262661        0.00007412
     120         -0.384984        2.000000        0.00001412        0.00004927        0.00000060
     121         -0.383823        2.000000        0.00382417        0.01158565        0.00020950
     122         -0.383101        2.000000        0.02020817        0.06250984        0.00125211
     123         -0.383025        2.000000        0.00194664        0.00615229        0.00011329
     124         -0.381208        2.000000        0.00719056        0.02246601        0.00056328
     125         -0.380660        2.000000        0.00284705        0.00878865        0.00022923
     126         -0.380323        2.000000        0.00003512        0.00025890        0.00001451
     127         -0.379623        2.000000        0.00003257        0.00011512        0.00000181
     128         -0.379161        2.000000        0.00031287        0.00095935        0.00001877
     129         -0.378115        2.000000        0.00009648        0.00030800        0.00001001
     130         -0.377757        2.000000        0.00313482        0.00916021        0.00020090
     131         -0.377213        2.000000        0.00883265        0.02519791        0.00063863
     132         -0.376655        2.000000        0.00756529        0.02174447        0.00055435
     133         -0.376089        2.000000        0.00069018        0.00202187        0.00003417
     134         -0.375522        2.000000        0.01006378        0.02841763        0.00066868
     135         -0.373953        2.000000        0.00843768        0.02350825        0.00058266
     136         -0.373564        2.000000        0.03294244        0.09185337        0.00232642
     137         -0.372991        2.000000        0.00130486        0.00373183        0.00010001
     138         -0.372433        2.000000        0.05764107        0.15943411        0.00413100
     139         -0.372037        2.000000        0.01030813        0.02851029        0.00074161
     140         -0.371632        2.000000        0.00777509        0.02142980        0.00056634
     141         -0.371006        2.000000        0.01495714        0.04121081        0.00116893
     142         -0.369840        2.000000        0.00001532        0.00006395        0.00000076
     143         -0.369635        2.000000        0.00192034        0.00525105        0.00015173
     144         -0.369153        2.000000        0.00000610        0.00001969        0.00000057
     145         -0.369131        2.000000        0.00002206        0.00010069        0.00000046
     146         -0.368498        2.000000        0.00059665        0.00165831        0.00004857
     147         -0.367984        2.000000        0.00121121        0.00344903        0.00010199
     148         -0.367257        2.000000        0.00002409        0.00006535        0.00000191
     149         -0.366951        2.000000        0.00000199        0.00000653        0.00000019
     150         -0.366882        2.000000        0.00002938        0.00008984        0.00000173
     151         -0.366558        2.000000        0.00000174        0.00001255        0.00000006
     152         -0.366087        2.000000        0.00000783        0.00002265        0.00000065
     153         -0.365532        2.000000        0.00000361        0.00002470        0.00000026
     154         -0.365292        2.000000        0.00000604        0.00002563        0.00000025
     155         -0.364873        2.000000        0.00016080        0.00050174        0.00001347
     156         -0.364499        2.000000        0.00005535        0.00017211        0.00000539
     157         -0.364385        2.000000        0.00006133        0.00028084        0.00000225
     158         -0.363409        2.000000        0.00003257        0.00016496        0.00000388
     159         -0.362731        2.000000        0.00012195        0.00038030        0.00000776
     160         -0.361690        2.000000        0.00005863        0.00041030        0.00000955
     161         -0.361463        2.000000        0.00034836        0.00107356        0.00002138
     162         -0.360695        2.000000        0.00000441        0.00001241        0.00000048
     163         -0.359909        2.000000        0.00000411        0.00003114        0.00000042
     164         -0.358869        2.000000        0.00006237        0.00016849        0.00000437
     165         -0.358762        2.000000        0.00002343        0.00007305        0.00000118
     166         -0.358424        2.000000        0.00000322        0.00001990        0.00000024
     167         -0.357749        2.000000        0.00089947        0.00272753        0.00005547
     168         -0.357432        2.000000        0.00000366        0.00001209        0.00000067
     169         -0.356226        2.000000        0.00001882        0.00005557        0.00000113
     170         -0.355206        2.000000        0.00059011        0.00155662        0.00005846
     171         -0.354151        2.000000        0.00012260        0.00081529        0.00000770
     172         -0.353675        2.000000        0.00000543        0.00002165        0.00000028
     173         -0.353241        2.000000        0.00002411        0.00006446        0.00000166
     174         -0.352384        2.000000        0.00002239        0.00013458        0.00000125
     175         -0.349281        2.000000        0.00002484        0.00008478        0.00000205
     176         -0.348101        2.000000        0.00005432        0.00025791        0.00000338
     177         -0.347056        2.000000        0.00000018        0.00000112        0.00000001
     178         -0.346421        2.000000        0.00033715        0.00156807        0.00002474
     179         -0.346099        2.000000        0.00000235        0.00000952        0.00000006
     180         -0.344626        2.000000        0.00000231        0.00000654        0.00000022
     181         -0.344227        2.000000        0.00000212        0.00000970        0.00000008
     182         -0.344158        2.000000        0.00000138        0.00000585        0.00000009
     183         -0.343279        2.000000        0.00000055        0.00000260        0.00000003
     184         -0.342186        2.000000        0.00002388        0.00011101        0.00000164
     185         -0.341638        2.000000        0.00000022        0.00000096        0.00000001
     186         -0.341223        2.000000        0.00000021        0.00000297        0.00000004
     187         -0.341051        2.000000        0.00000829        0.00005088        0.00000038
     188         -0.340810        2.000000        0.00000015        0.00000127        0.00000002
     189         -0.340344        2.000000        0.00000491        0.00002154        0.00000031
     190         -0.340103        2.000000        0.00005927        0.00025818        0.00000246
     191         -0.339538        2.000000        0.00000493        0.00002576        0.00000024
     192         -0.338904        2.000000        0.00000365        0.00002459        0.00000028
     193         -0.338737        2.000000        0.00012433        0.00081803        0.00001009
     194         -0.337951        2.000000        0.00002080        0.00057071        0.00000468
     195         -0.337180        2.000000        0.00004096        0.00011838        0.00000245
     196         -0.336960        2.000000        0.00002938        0.00017411        0.00000256
     197         -0.336163        2.000000        0.00043655        0.00166443        0.00003544
     198         -0.335733        2.000000        0.00090619        0.00268299        0.00006234
     199         -0.334956        2.000000        0.00000496        0.00002572        0.00000039
     200         -0.333834        2.000000        0.00001184        0.00003822        0.00000066
     201         -0.331670        2.000000        0.00002914        0.00016153        0.00000103
     202         -0.330715        2.000000        0.00000133        0.00000750        0.00000004
     203         -0.327469        2.000000        0.00000030        0.00000285        0.00000001
     204         -0.326924        2.000000        0.00000074        0.00000508        0.00000004
     205         -0.319799        2.000000        0.00000114        0.00000664        0.00000003
     206         -0.319625        2.000000        0.00000057        0.00000221        0.00000003
     207         -0.318771        2.000000        0.00000017        0.00000235        0.00000002
     208         -0.318487        2.000000        0.00000000        0.00000001        0.00000000
     209         -0.318151        2.000000        0.00000151        0.00000843        0.00000006
     210         -0.317254        2.000000        0.00000006        0.00000031        0.00000000
     211         -0.316615        2.000000        0.00000241        0.00001400        0.00000008
     212         -0.316317        2.000000        0.00033961        0.00143394        0.00000928
     213         -0.315885        2.000000        0.00000306        0.00001810        0.00000011
     214         -0.315512        2.000000        0.00000621        0.00003493        0.00000022
     215         -0.314742        2.000000        0.00001595        0.00009153        0.00000056
     216         -0.314240        2.000000        0.00000002        0.00000013        0.00000000
     217         -0.313093        2.000000        0.00001473        0.00008276        0.00000045
     218         -0.312538        2.000000        0.00001093        0.00006306        0.00000029
     219         -0.312396        2.000000        0.00001079        0.00006012        0.00000030
     220         -0.312037        2.000000        0.00000161        0.00000921        0.00000003
     221         -0.310598        2.000000        0.00003961        0.00022036        0.00000116
     222         -0.310221        2.000000        0.00001869        0.00010408        0.00000052
     223         -0.309408        2.000000        0.00000705        0.00003832        0.00000018
     224         -0.309395        2.000000        0.00001933        0.00010526        0.00000053
     225         -0.309234        2.000000        0.00000247        0.00001312        0.00000005
     226         -0.308381        2.000000        0.00020344        0.00108951        0.00000554
     227         -0.308250        2.000000        0.00001443        0.00012068        0.00000046
     228         -0.308097        2.000000        0.00007491        0.00041236        0.00000196
     229         -0.307179        2.000000        0.00050718        0.00267321        0.00001322
     230         -0.305966        2.000000        0.00110068        0.00546040        0.00002512
     231         -0.305190        2.000000        0.00759568        0.03443624        0.00018624
     232         -0.305170        2.000000        0.00175571        0.00827039        0.00004163
     233         -0.303881        2.000000        0.00190165        0.00873706        0.00004563
     234         -0.303186        2.000000        0.00000169        0.00001217        0.00000003
     235         -0.302644        2.000000        0.00005417        0.00034087        0.00000109
     236         -0.302137        2.000000        0.00038399        0.00227680        0.00000781
     237         -0.301410        2.000000        0.00033293        0.00183641        0.00000736
     238         -0.301270        2.000000        0.00042074        0.00234529        0.00000881
     239         -0.300504        2.000000        0.01156066        0.05790475        0.00026589
     240         -0.300347        2.000000        0.00068618        0.00371640        0.00001423
     241         -0.300010        2.000000        0.00003317        0.00017419        0.00000056
     242         -0.298878        2.000000        0.00007796        0.00029638        0.00000226
     243         -0.298505        2.000000        0.00006500        0.00036820        0.00000174
     244         -0.297847        2.000000        0.00006817        0.00047300        0.00000137
     245         -0.297156        2.000000        0.00021912        0.00159223        0.00000361
     246         -0.297046        2.000000        0.00002024        0.00013577        0.00000033
     247         -0.296671        2.000000        0.00016911        0.00119355        0.00000269
     248         -0.296618        2.000000        0.00004767        0.00033429        0.00000074
     249         -0.295969        2.000000        0.00155635        0.01085828        0.00002502
     250         -0.295348        2.000000        0.00195460        0.01322553        0.00003189
     251         -0.295087        2.000000        0.00000096        0.00000658        0.00000003
     252         -0.294369        2.000000        0.00008244        0.00052791        0.00000139
     253         -0.294183        2.000000        0.00000849        0.00005557        0.00000015
     254         -0.293640        2.000000        0.00000411        0.00002402        0.00000008
     255         -0.293246        2.000000        0.00002542        0.00015196        0.00000045
     256         -0.292577        2.000000        0.00001131        0.00006654        0.00000019
     257         -0.291994        2.000000        0.00021824        0.00118500        0.00000502
     258         -0.291705        2.000000        0.00000062        0.00000350        0.00000002
     259         -0.290928        2.000000        0.00065725        0.00325478        0.00001654
     260         -0.290306        2.000000        0.00064095        0.00286986        0.00001942
     261         -0.289901        2.000000        0.00127065        0.00560643        0.00004057
     262         -0.289451        2.000000        0.00033471        0.00151930        0.00001348
     263         -0.289043        2.000000        0.00008145        0.00061639        0.00000270
     264         -0.288015        2.000000        0.00026813        0.00194589        0.00000355
     265         -0.287861        2.000000        0.00025922        0.00158646        0.00000405
     266         -0.286936        2.000000        0.00001726        0.00012376        0.00000023
     267         -0.286667        2.000000        0.00003764        0.00024776        0.00000058
     268         -0.286302        2.000000        0.00034589        0.00233932        0.00000481
     269         -0.285607        2.000000        0.00000221        0.00000939        0.00000011
     270         -0.285328        2.000000        0.00009846        0.00057683        0.00000176
     271         -0.285085        2.000000        0.00004386        0.00027794        0.00000061
     272         -0.284841        2.000000        0.00000449        0.00001813        0.00000023
     273         -0.284131        2.000000        0.00013508        0.00080780        0.00000236
     274         -0.283572        2.000000        0.00001074        0.00004569        0.00000032
     275         -0.283249        2.000000        0.00012626        0.00068182        0.00000242
     276         -0.283050        2.000000        0.00032901        0.00189035        0.00000561
     277         -0.282957        2.000000        0.00000706        0.00004094        0.00000011
     278         -0.282638        2.000000        0.00013779        0.00076866        0.00000256
     279         -0.282393        2.000000        0.00327879        0.01808059        0.00006060
     280         -0.282190        2.000000        0.00006750        0.00039891        0.00000103
     281         -0.281812        2.000000        0.00000023        0.00000116        0.00000001
     282         -0.281718        2.000000        0.00043248        0.00253629        0.00000765
     283         -0.281529        2.000000        0.00014407        0.00076243        0.00000322
     284         -0.281304        2.000000        0.00017610        0.00089988        0.00000407
     285         -0.281056        2.000000        0.00023134        0.00132531        0.00000401
     286         -0.280948        2.000000        0.00003134        0.00016713        0.00000075
     287         -0.280843        2.000000        0.00012188        0.00065686        0.00000336
     288         -0.280780        2.000000        0.00000643        0.00005068        0.00000006
     289         -0.280282        2.000000        0.00002596        0.00021085        0.00000039
     290         -0.279956        2.000000        0.00001620        0.00010949        0.00000028
     291         -0.279807        2.000000        0.00002150        0.00010273        0.00000058
     292         -0.279686        2.000000        0.00022469        0.00117106        0.00000534
     293         -0.279589        2.000000        0.00007277        0.00043693        0.00000122
     294         -0.279495        2.000000        0.00011164        0.00070553        0.00000223
     295         -0.279217        2.000000        0.00029008        0.00149569        0.00000689
     296         -0.279093        2.000000        0.00036652        0.00138065        0.00001610
     297         -0.278951        2.000000        0.00012756        0.00057441        0.00000406
     298         -0.278592        2.000000        0.00050553        0.00270230        0.00001274
     299         -0.278433        2.000000        0.00005775        0.00043344        0.00000090
     300         -0.278210        2.000000        0.00012423        0.00080105        0.00000182
     301         -0.278135        2.000000        0.00010618        0.00057833        0.00000229
     302         -0.278031        2.000000        0.00013588        0.00072575        0.00000275
     303         -0.277650        2.000000        0.00017016        0.00122308        0.00000207
     304         -0.277312        2.000000        0.00049043        0.00320386        0.00000731
     305         -0.276990        2.000000        0.00062628        0.00429269        0.00000777
     306         -0.276609        2.000000        0.00002547        0.00014821        0.00000037
     307         -0.276405        2.000000        0.00023289        0.00171057        0.00000209