# Projected DOS for list 17 of 3 atoms, at iteration step i = 0, E(Fermi) =    -0.060510 a.u.
#     MO Eigenvalue [a.u.]      Occupation                 s                 p                 d
       1         -0.895259        2.000000        0.00000003        0.00000006        0.00000000
       2         -0.868125        2.000000        0.00003919        0.00008540        0.00000017
       3         -0.864615        2.000000        0.00000315        0.00001719        0.00000003
       4         -0.857993        2.000000        0.00000000        0.00000000        0.00000000
       5         -0.853826        2.000000        0.00000017        0.00000019        0.00000000
       6         -0.850378        2.000000        0.00000052        0.00000037        0.00000000
       7         -0.848222        2.000000        0.00000933        0.00001607        0.00000003
       8         -0.847335        2.000000        0.00000048        0.00000062        0.00000000
       9         -0.842977        2.000000        0.00001326        0.00001655        0.00000008
      10         -0.841504        2.000000        0.00000941        0.00002427        0.00000012
      11         -0.840654        2.000000        0.00000550        0.00000309        0.00000003
      12         -0.839688        2.000000        0.00002469        0.00004494        0.00000024
      13         -0.839172        2.000000        0.00002354        0.00002416        0.00000016
      14         -0.838522        2.000000        0.00000451        0.00000738        0.00000004
      15         -0.837015        2.000000        0.00000310        0.00000644        0.00000002
      16         -0.832753        2.000000        0.00001376        0.00000727        0.00000006
      17         -0.832000        2.000000        0.00000904        0.00000366        0.00000003
      18         -0.831644        2.000000        0.00000876        0.00000362        0.00000003
      19         -0.830027        2.000000        0.00112012        0.00110048        0.00000657
      20         -0.829447        2.000000        0.00012101        0.00009502        0.00000064
      21         -0.828640        2.000000        0.00001016        0.00000824        0.00000004
      22         -0.828147        2.000000        0.00002570        0.00001158        0.00000010
      23         -0.827394        2.000000        0.00000449        0.00000164        0.00000000
      24         -0.826637        2.000000        0.00000079        0.00000058        0.00000000
      25         -0.825864        2.000000        0.00002519        0.00001619        0.00000021
      26         -0.825007        2.000000        0.00001804        0.00002513        0.00000017
      27         -0.824149        2.000000        0.00085744        0.00014592        0.00000371
      28         -0.823003        2.000000        0.00012607        0.00002176        0.00000056
      29         -0.821982        2.000000        0.00004762        0.00025725        0.00000099
      30         -0.820560        2.000000        0.00383711        0.00277833        0.00002454
      31         -0.820223        2.000000        0.00257556        0.00198014        0.00001668
      32         -0.820029        2.000000        0.00347439        0.00220510        0.00002090
      33         -0.819390        2.000000        0.00003953        0.00000970        0.00000017
      34         -0.818664        2.000000        0.00098073        0.00030559        0.00000505
      35         -0.817548        2.000000        0.00155758        0.00035155        0.00000935
      36         -0.816472        2.000000        0.00013605        0.00002658        0.00000067
      37         -0.815444        2.000000        0.00007528        0.00001190        0.00000028
      38         -0.814805        2.000000        0.00014641        0.00005479        0.00000062
      39         -0.814124        2.000000        0.00034464        0.00050142        0.00000183
      40         -0.813968        2.000000        0.00080763        0.00112400        0.00000400
      41         -0.813053        2.000000        0.00000017        0.00000323        0.00000002
      42         -0.812601        2.000000        0.00016747        0.00016813        0.00000110
      43         -0.811948        2.000000        0.00002310        0.00002017        0.00000017
      44         -0.811687        2.000000        0.00005790        0.00001774        0.00000026
      45         -0.810574        2.000000        0.00001576        0.00003129        0.00000015
      46         -0.809310        2.000000        0.00001960        0.00021180        0.00000026
      47         -0.808268        2.000000        0.00002475        0.00001365        0.00000011
      48         -0.807324        2.000000        0.00032501        0.00007417        0.00000151
      49         -0.806602        2.000000        0.00000774        0.00002165        0.00000007
      50         -0.806376        2.000000        0.00017965        0.00003899        0.00000080
      51         -0.806147        2.000000        0.00059539        0.00012705        0.00000190
      52         -0.804835        2.000000        0.00031739        0.00003389        0.00000089
      53         -0.804321        2.000000        0.00052450        0.00005550        0.00000165
      54         -0.803943        2.000000        0.00065342        0.00008473        0.00000174
      55         -0.803401        2.000000        0.00024688        0.00053286        0.00000245
      56         -0.802648        2.000000        0.00101768        0.00029443        0.00000414
      57         -0.801912        2.000000        0.00148928        0.00027520        0.00000447
      58         -0.801342        2.000000        0.00161944        0.00058156        0.00000705
      59         -0.800594        2.000000        0.00064580        0.00020552        0.00000201
      60         -0.799945        2.000000        0.00017600        0.00002612        0.00000045
      61         -0.799254        2.000000        0.00090351        0.00014168        0.00000260
      62         -0.798331        2.000000        0.00000788        0.00000177        0.00000002
      63         -0.797356        2.000000        0.00006433        0.00004664        0.00000024
      64         -0.795713        2.000000        0.00004420        0.00000824        0.00000009
      65         -0.795144        2.000000        0.00006667        0.00004049        0.00000020
      66         -0.794508        2.000000        0.00056166        0.00012506        0.00000058
      67         -0.793501        2.000000        0.00000309        0.00003879        0.00000118
      68         -0.792888        2.000000        0.00005995        0.00001471        0.00000007
      69         -0.792771        2.000000        0.00079487        0.00012320        0.00000230
      70         -0.792166        2.000000        0.00001130        0.00000610        0.00000033
      71         -0.791795        2.000000        0.00007263        0.00000930        0.00000033
      72         -0.790466        2.000000        0.00006251        0.00001096        0.00000014
      73         -0.789691        2.000000        0.00121349        0.00042950        0.00000316
      74         -0.789018        2.000000        0.00002995        0.00001296        0.00000010
      75         -0.788284        2.000000        0.00015590        0.00003567        0.00000021
      76         -0.787044        2.000000        0.00087070        0.00016161        0.00000163
      77         -0.785765        2.000000        0.00264695        0.00050076        0.00000561
      78         -0.783215        2.000000        0.00212236        0.00061132        0.00000305
      79         -0.782853        2.000000        0.00003156        0.00001582        0.00000023
      80         -0.782388        2.000000        0.01005018        0.00215938        0.00001474
      81         -0.781821        2.000000        0.61212864        0.14098103        0.00090212
      82         -0.780108        2.000000        0.00113545        0.00026038        0.00000202
      83         -0.778906        2.000000        0.00665583        0.00147181        0.00001594
      84         -0.778076        2.000000        0.00007005        0.00001630        0.00000015
      85         -0.775317        2.000000        0.00015591        0.00004461        0.00000025
      86         -0.773086        2.000000        0.00049841        0.00021599        0.00000034
      87         -0.772920        2.000000        0.00057073        0.00014208        0.00000370
      88         -0.771409        2.000000        0.00006611        0.00002451        0.00000006
      89         -0.769725        2.000000        0.00003221        0.00000961        0.00000040
      90         -0.769226        2.000000        0.00027602        0.00010078        0.00000051
      91         -0.767566        2.000000        0.00140225        0.00078289        0.00000140
      92         -0.766737        2.000000        0.08033625        0.04946865        0.00007712
      93         -0.755845        2.000000        0.00047572        0.00016089        0.00000576
      94         -0.752538        2.000000        0.00475313        0.00168375        0.00007679
      95         -0.747161        2.000000        0.00000880        0.00000774        0.00000040
      96         -0.736999        2.000000        0.00948838        0.00515072        0.00033212
      97         -0.726419        2.000000        0.00856276        0.00636204        0.00030279
      98         -0.719129        2.000000        0.00000202        0.00000308        0.00000018
      99         -0.696511        2.000000        0.00000002        0.00000003        0.00000000
     100         -0.460315        2.000000        0.00000001        0.00000005        0.00000000
     101         -0.427906        2.000000        0.00000750        0.00002453        0.00000063
     102         -0.424376        2.000000        0.00000481        0.00006574        0.00000014
     103         -0.405781        2.000000        0.00000000        0.00000000        0.00000000
     104         -0.401299        2.000000        0.00000004        0.00000010        0.00000000
     105         -0.398347        2.000000        0.00000040        0.00000137        0.00000001
     106         -0.398267        2.000000        0.00000591        0.00002119        0.00000026
     107         -0.397295        2.000000        0.00000126        0.00000421        0.00000023
     108         -0.395753        2.000000        0.00000943        0.00003066        0.00000029
     109         -0.395158        2.000000        0.00000708        0.00002529        0.00000051
     110         -0.394493        2.000000        0.00000447        0.00001267        0.00000016
     111         -0.394192        2.000000        0.00000119        0.00000392        0.00000007
     112         -0.393919        2.000000        0.00000708        0.00002708        0.00000072
     113         -0.393017        2.000000        0.00003407        0.00012411        0.00000160
     114         -0.391793        2.000000        0.00003271        0.00012933        0.00000182
     115         -0.389280        2.000000        0.00000001        0.00000008        0.00000000
     116         -0.388145        2.000000        0.00002897        0.00009141        0.00000229
     117         -0.387090        2.000000        0.00000812        0.00002908        0.00000058
     118         -0.386138        2.000000        0.00008789        0.00033597        0.00000576
     119         -0.385161        2.000000        0.00002453        0.00010361        0.00000157
     120         -0.384984        2.000000        0.00000057        0.00000141        0.00000004
     121         -0.383823        2.000000        0.00000141        0.00000461        0.00000010
     122         -0.383101        2.000000        0.00000412        0.00001701        0.00000028
     123         -0.383025        2.000000        0.00000138        0.00000418        0.00000004
     124         -0.381208        2.000000        0.00018873        0.00060902        0.00001159
     125         -0.380660        2.000000        0.00033998        0.00114838        0.00002179
     126         -0.380323        2.000000        0.00007358        0.00024493        0.00000460
     127         -0.379623        2.000000        0.00359647        0.01190224        0.00022644
     128         -0.379161        2.000000        0.00000137        0.00000417        0.00000009
     129         -0.378115        2.000000        0.00014582        0.00048733        0.00000955
     130         -0.377757        2.000000        0.00003940        0.00011178        0.00000257
     131         -0.377213        2.000000        0.00004372        0.00014776        0.00000291
     132         -0.376655        2.000000        0.00004094        0.00015266        0.00000251
     133         -0.376089        2.000000        0.00002343        0.00010640        0.00000161
     134         -0.375522        2.000000        0.00001639        0.00006022        0.00000118
     135         -0.373953        2.000000        0.00000146        0.00000658        0.00000003
     136         -0.373564        2.000000        0.00004061        0.00013714        0.00000281
     137         -0.372991        2.000000        0.00001509        0.00004365        0.00000099
     138         -0.372433        2.000000        0.00001472        0.00003504        0.00000063
     139         -0.372037        2.000000        0.00000199        0.00000911        0.00000013
     140         -0.371632        2.000000        0.00000058        0.00000185        0.00000004
     141         -0.371006        2.000000        0.00001592        0.00004814        0.00000106
     142         -0.369840        2.000000        0.00001198        0.00003508        0.00000068
     143         -0.369635        2.000000        0.00008713        0.00025534        0.00000541
     144         -0.369153        2.000000        0.00000138        0.00000420        0.00000008
     145         -0.369131        2.000000        0.00001932        0.00005713        0.00000137
     146         -0.368498        2.000000        0.00000006        0.00000049        0.00000000
     147         -0.367984        2.000000        0.00000707        0.00002350        0.00000038
     148         -0.367257        2.000000        0.00005087        0.00015562        0.00000299
     149         -0.366951        2.000000        0.00008556        0.00026049        0.00000514
     150         -0.366882        2.000000        0.00123381        0.00377935        0.00007165
     151         -0.366558        2.000000        0.00034375        0.00104888        0.00002069
     152         -0.366087        2.000000        0.00045623        0.00139836        0.00002748
     153         -0.365532        2.000000        0.00003780        0.00011254        0.00000245
     154         -0.365292        2.000000        0.00000029        0.00000054        0.00000000
     155         -0.364873        2.000000        0.00003383        0.00009490        0.00000243
     156         -0.364499        2.000000        0.00000153        0.00000735        0.00000008
     157         -0.364385        2.000000        0.00001793        0.00005953        0.00000089
     158         -0.363409        2.000000        0.00001202        0.00003675        0.00000078
     159         -0.362731        2.000000        0.00004203        0.00013635        0.00000086
     160         -0.361690        2.000000        0.00001025        0.00002903        0.00000064
     161         -0.361463        2.000000        0.00032126        0.00081270        0.00001998
     162         -0.360695        2.000000        0.00000329        0.00000808        0.00000020
     163         -0.359909        2.000000        0.00004192        0.00011913        0.00000338
     164         -0.358869        2.000000        0.00005189        0.00018042        0.00000342
     165         -0.358762        2.000000        0.00007527        0.00052123        0.00000978
     166         -0.358424        2.000000        0.00004856        0.00015117        0.00000329
     167         -0.357749        2.000000        0.00001526        0.00005090        0.00000090
     168         -0.357432        2.000000        0.00000767        0.00001772        0.00000036
     169         -0.356226        2.000000        0.00000504        0.00001531        0.00000030
     170         -0.355206        2.000000        0.00000117        0.00000357        0.00000004
     171         -0.354151        2.000000        0.00000160        0.00000685        0.00000009
     172         -0.353675        2.000000        0.00033689        0.00091262        0.00002400
     173         -0.353241        2.000000        0.00000730        0.00001806        0.00000056
     174         -0.352384        2.000000        0.00000356        0.00000811        0.00000028
     175         -0.349281        2.000000        0.00023145        0.00068634        0.00001341
     176         -0.348101        2.000000        0.00002271        0.00011888        0.00000079
     177         -0.347056        2.000000        0.00248054        0.00694150        0.00016637
     178         -0.346421        2.000000        0.00003475        0.00015303        0.00000158
     179         -0.346099        2.000000        0.00231558        0.00612974        0.00016501
     180         -0.344626        2.000000        0.00004868        0.00013560        0.00000334
     181         -0.344227        2.000000        0.00005449        0.00017852        0.00000330
     182         -0.344158        2.000000        0.00002421        0.00006643        0.00000164
     183         -0.343279        2.000000        0.00001324        0.00003520        0.00000094
     184         -0.342186        2.000000        0.00019227        0.00049129        0.00001444
     185         -0.341638        2.000000        0.00000440        0.00001238        0.00000018
     186         -0.341223        2.000000        0.00003005        0.00008174        0.00000219
     187         -0.341051        2.000000        0.00046260        0.00117056        0.00003388
     188         -0.340810        2.000000        0.00000074        0.00000197        0.00000002
     189         -0.340344        2.000000        0.00012257        0.00032152        0.00000908
     190         -0.340103        2.000000        0.01518118        0.04034412        0.00112487
     191         -0.339538        2.000000        0.00034287        0.00086655        0.00002689
     192         -0.338904        2.000000        0.00000246        0.00000660        0.00000008
     193         -0.338737        2.000000        0.00034231        0.00081006        0.00002512
     194         -0.337951        2.000000        0.00028836        0.00086849        0.00001841
     195         -0.337180        2.000000        0.00078660        0.00248138        0.00006643
     196         -0.336960        2.000000        0.00074062        0.00214290        0.00004410
     197         -0.336163        2.000000        0.00008180        0.00026649        0.00000547
     198         -0.335733        2.000000        0.00025229        0.00075211        0.00001516
     199         -0.334956        2.000000        0.00003909        0.00013257        0.00000257
     200         -0.333834        2.000000        0.00009133        0.00074488        0.00001344
     201         -0.331670        2.000000        0.00010341        0.00038425        0.00000486
     202         -0.330715        2.000000        0.00043126        0.00110519        0.00003082
     203         -0.327469        2.000000        0.00005586        0.00031185        0.00000871
     204         -0.326924        2.000000        0.00078717        0.00262219        0.00005031
     205         -0.319799        2.000000        0.00000730        0.00002288        0.00000048
     206         -0.319625        2.000000        0.00025536        0.00074843        0.00001668
     207         -0.318771        2.000000        0.00253171        0.00800348        0.00016471
     208         -0.318487        2.000000        0.00001066        0.00003119        0.00000066
     209         -0.318151        2.000000        0.00000008        0.00000040        0.00000001
     210         -0.317254        2.000000        0.00000433        0.00001277        0.00000027
     211         -0.316615        2.000000        0.00000262        0.00000743        0.00000017
     212         -0.316317        2.000000        0.19206589        0.55274112        0.01211931
     213         -0.315885        2.000000        0.00004229        0.00012182        0.00000267
     214         -0.315512        2.000000        0.00000089        0.00000253        0.00000006
     215         -0.314742        2.000000        0.00001324        0.00003825        0.00000084
     216         -0.314240        2.000000        0.00000031        0.00000094        0.00000002
     217         -0.313093        2.000000        0.00000144        0.00000434        0.00000008
     218         -0.312538        2.000000        0.00000000        0.00000007        0.00000000
     219         -0.312396        2.000000        0.00000275        0.00000772        0.00000019
     220         -0.312037        2.000000        0.00000438        0.00001289        0.00000028
     221         -0.310598        2.000000        0.00000583        0.00001741        0.00000035
     222         -0.310221        2.000000        0.00000629        0.00001830        0.00000039
     223         -0.309408        2.000000        0.00000018        0.00000069        0.00000001
     224         -0.309395        2.000000        0.00000072        0.00000270        0.00000004
     225         -0.309234        2.000000        0.00000011        0.00000041        0.00000001
     226         -0.308381        2.000000        0.00006869        0.00021272        0.00000389
     227         -0.308250        2.000000        0.00076012        0.00230418        0.00004431
     228         -0.308097        2.000000        0.00000282        0.00001029        0.00000018
     229         -0.307179        2.000000        0.00002413        0.00009764        0.00000120
     230         -0.305966        2.000000        0.00012636        0.00062863        0.00000631
     231         -0.305190        2.000000        0.00357435        0.02015462        0.00017471
     232         -0.305170        2.000000        0.00055584        0.00170466        0.00003319
     233         -0.303881        2.000000        0.01128247        0.06202408        0.00064530
     234         -0.303186        2.000000        0.00000317        0.00001250        0.00000020
     235         -0.302644        2.000000        0.00000073        0.00000249        0.00000002
     236         -0.302137        2.000000        0.00000192        0.00000725        0.00000014
     237         -0.301410        2.000000        0.00000073        0.00000270        0.00000004
     238         -0.301270        2.000000        0.00000409        0.00001391        0.00000033
     239         -0.300504        2.000000        0.00025413        0.00099885        0.00001574
     240         -0.300347        2.000000        0.00002897        0.00012046        0.00000303
     241         -0.300010        2.000000        0.00169852        0.02784812        0.00077549
     242         -0.298878        2.000000        0.00001792        0.00005531        0.00000095
     243         -0.298505        2.000000        0.00002247        0.00006739        0.00000093
     244         -0.297847        2.000000        0.00002059        0.00006423        0.00000099
     245         -0.297156        2.000000        0.00002556        0.00008042        0.00000118
     246         -0.297046        2.000000        0.00000036        0.00000068        0.00000000
     247         -0.296671        2.000000        0.00001145        0.00003528        0.00000051
     248         -0.296618        2.000000        0.00000719        0.00002173        0.00000039
     249         -0.295969        2.000000        0.00007323        0.00023441        0.00000386
     250         -0.295348        2.000000        0.00006500        0.00020784        0.00000380
     251         -0.295087        2.000000        0.00000010        0.00000031        0.00000001
     252         -0.294369        2.000000        0.00000115        0.00000378        0.00000008
     253         -0.294183        2.000000        0.00000075        0.00000209        0.00000006
     254         -0.293640        2.000000        0.00000068        0.00000176        0.00000005
     255         -0.293246        2.000000        0.00000026        0.00000082        0.00000002
     256         -0.292577        2.000000        0.00000018        0.00000051        0.00000001
     257         -0.291994        2.000000        0.00000627        0.00001993        0.00000033
     258         -0.291705        2.000000        0.00000004        0.00000014        0.00000000
     259         -0.290928        2.000000        0.00002391        0.00008022        0.00000121
     260         -0.290306        2.000000        0.00008857        0.00027662        0.00000489
     261         -0.289901        2.000000        0.00013828        0.00045938        0.00000706
     262         -0.289451        2.000000        0.00009477        0.00030078        0.00000518
     263         -0.289043        2.000000        0.00003253        0.00010525        0.00000168
     264         -0.288015        2.000000        0.00000889        0.00003115        0.00000033
     265         -0.287861        2.000000        0.00000178        0.00000622        0.00000004
     266         -0.286936        2.000000        0.00000067        0.00000223        0.00000003
     267         -0.286667        2.000000        0.00000022        0.00000093        0.00000000
     268         -0.286302        2.000000        0.00000599        0.00002091        0.00000026
     269         -0.285607        2.000000        0.00000031        0.00000071        0.00000003
     270         -0.285328        2.000000        0.00000024        0.00000126        0.00000000
     271         -0.285085        2.000000        0.00000086        0.00000274        0.00000004
     272         -0.284841        2.000000        0.00000022        0.00000053        0.00000003
     273         -0.284131        2.000000        0.00000038        0.00000219        0.00000000
     274         -0.283572        2.000000        0.00000006        0.00000104        0.00000003
     275         -0.283249        2.000000        0.00000026        0.00000329        0.00000001
     276         -0.283050        2.000000        0.00000130        0.00000981        0.00000001
     277         -0.282957        2.000000        0.00000003        0.00000028        0.00000000
     278         -0.282638        2.000000        0.00000061        0.00000559        0.00000000
     279         -0.282393        2.000000        0.00001991        0.00016906        0.00000021
     280         -0.282190        2.000000        0.00000030        0.00000286        0.00000001
     281         -0.281812        2.000000        0.00000009        0.00000038        0.00000000
     282         -0.281718        2.000000        0.00000409        0.00002458        0.00000010
     283         -0.281529        2.000000        0.00000498        0.00002998        0.00000010
     284         -0.281304        2.000000        0.00001143        0.00006429        0.00000027
     285         -0.281056        2.000000        0.00004366        0.00020843        0.00000169
     286         -0.280948        2.000000        0.00000930        0.00004174        0.00000042
     287         -0.280843        2.000000        0.00007607        0.00032203        0.00000369
     288         -0.280780        2.000000        0.00000110        0.00000490        0.00000008
     289         -0.280282        2.000000        0.00000167        0.00000659        0.00000005
     290         -0.279956        2.000000        0.00000036        0.00000105        0.00000002
     291         -0.279807        2.000000        0.00001254        0.00004859        0.00000051
     292         -0.279686        2.000000        0.00016354        0.00060982        0.00000714
     293         -0.279589        2.000000        0.00002615        0.00009985        0.00000114
     294         -0.279495        2.000000        0.00009003        0.00030102        0.00000449
     295         -0.279217        2.000000        0.00000716        0.00002446        0.00000023
     296         -0.279093        2.000000        0.00008603        0.00033476        0.00000327
     297         -0.278951        2.000000        0.00000596        0.00002176        0.00000021
     298         -0.278592        2.000000        0.00001100        0.00002683        0.00000102
     299         -0.278433        2.000000        0.00000044        0.00000225        0.00000002
     300         -0.278210        2.000000        0.00000170        0.00000523        0.00000018
     301         -0.278135        2.000000        0.00000043        0.00000161        0.00000002
     302         -0.278031        2.000000        0.00000159        0.00000488        0.00000010
     303         -0.277650        2.000000        0.00000071        0.00000405        0.00000016
     304         -0.277312        2.000000        0.00000050        0.00000166        0.00000003
     305         -0.276990        2.000000        0.00000995        0.00004858        0.00000025
     306         -0.276609        2.000000        0.00000141        0.00000616        0.00000005
     307         -0.276405        2.000000        0.00002575        0.00011035        0.00000061