# Projected DOS for list 71 of 3 atoms, at iteration step i = 0, E(Fermi) =    -0.060510 a.u.
#     MO Eigenvalue [a.u.]      Occupation                 s                 p                 d
       1         -0.895259        2.000000        0.00003338        0.00012222        0.00000067
       2         -0.868125        2.000000        0.00000015        0.00000014        0.00000000
       3         -0.864615        2.000000        0.00000009        0.00000010        0.00000000
       4         -0.857993        2.000000        0.00000000        0.00000000        0.00000000
       5         -0.853826        2.000000        0.00000001        0.00000000        0.00000000
       6         -0.850378        2.000000        0.00000055        0.00000073        0.00000001
       7         -0.848222        2.000000        0.00000021        0.00000097        0.00000000
       8         -0.847335        2.000000        0.00000001        0.00000001        0.00000000
       9         -0.842977        2.000000        0.01068601        0.01201291        0.00009965
      10         -0.841504        2.000000        0.00009613        0.00010229        0.00000087
      11         -0.840654        2.000000        0.00000677        0.00000623        0.00000006
      12         -0.839688        2.000000        0.00000014        0.00000050        0.00000000
      13         -0.839172        2.000000        0.00000132        0.00000203        0.00000001
      14         -0.838522        2.000000        0.00000001        0.00000013        0.00000000
      15         -0.837015        2.000000        0.00000053        0.00000025        0.00000000
      16         -0.832753        2.000000        0.00002327        0.00002293        0.00000020
      17         -0.832000        2.000000        0.00000029        0.00000098        0.00000000
      18         -0.831644        2.000000        0.00000023        0.00000070        0.00000000
      19         -0.830027        2.000000        0.00006982        0.00056651        0.00000046
      20         -0.829447        2.000000        0.00009483        0.00009932        0.00000082
      21         -0.828640        2.000000        0.00005368        0.00004623        0.00000047
      22         -0.828147        2.000000        0.00004863        0.00004760        0.00000064
      23         -0.827394        2.000000        0.00004696        0.00004290        0.00000063
      24         -0.826637        2.000000        0.00000058        0.00000016        0.00000001
      25         -0.825864        2.000000        0.00000162        0.00000128        0.00000001
      26         -0.825007        2.000000        0.00036167        0.00027962        0.00000390
      27         -0.824149        2.000000        0.00007887        0.00003431        0.00000041
      28         -0.823003        2.000000        0.00011572        0.00019069        0.00000286
      29         -0.821982        2.000000        0.00000957        0.00001636        0.00000004
      30         -0.820560        2.000000        0.00004288        0.00001190        0.00000016
      31         -0.820223        2.000000        0.00004149        0.00004532        0.00000055
      32         -0.820029        2.000000        0.00001721        0.00001574        0.00000022
      33         -0.819390        2.000000        0.00006881        0.00002863        0.00000070
      34         -0.818664        2.000000        0.00000287        0.00001557        0.00000005
      35         -0.817548        2.000000        0.00011224        0.00006756        0.00000046
      36         -0.816472        2.000000        0.00000947        0.00000345        0.00000006
      37         -0.815444        2.000000        0.00000154        0.00000446        0.00000006
      38         -0.814805        2.000000        0.00000241        0.00002113        0.00000057
      39         -0.814124        2.000000        0.00000133        0.00000199        0.00000001
      40         -0.813968        2.000000        0.00000216        0.00000220        0.00000004
      41         -0.813053        2.000000        0.00000251        0.00000191        0.00000002
      42         -0.812601        2.000000        0.00001750        0.00000839        0.00000014
      43         -0.811948        2.000000        0.00000078        0.00000113        0.00000002
      44         -0.811687        2.000000        0.00000263        0.00000073        0.00000001
      45         -0.810574        2.000000        0.00014930        0.00013211        0.00000275
      46         -0.809310        2.000000        0.00000028        0.00000053        0.00000001
      47         -0.808268        2.000000        0.00020470        0.00009769        0.00000210
      48         -0.807324        2.000000        0.00005552        0.00000779        0.00000023
      49         -0.806602        2.000000        0.00000344        0.00000574        0.00000008
      50         -0.806376        2.000000        0.00042366        0.00012902        0.00000244
      51         -0.806147        2.000000        0.00028173        0.00007487        0.00000138
      52         -0.804835        2.000000        0.00000090        0.00000399        0.00000002
      53         -0.804321        2.000000        0.00000158        0.00000763        0.00000013
      54         -0.803943        2.000000        0.00000051        0.00000201        0.00000001
      55         -0.803401        2.000000        0.00007963        0.00003337        0.00000026
      56         -0.802648        2.000000        0.00000452        0.00000105        0.00000002
      57         -0.801912        2.000000        0.00000076        0.00000050        0.00000001
      58         -0.801342        2.000000        0.00002980        0.00000679        0.00000012
      59         -0.800594        2.000000        0.00000403        0.00000530        0.00000006
      60         -0.799945        2.000000        0.00000036        0.00000025        0.00000000
      61         -0.799254        2.000000        0.00000051        0.00000259        0.00000008
      62         -0.798331        2.000000        0.00000013        0.00000008        0.00000000
      63         -0.797356        2.000000        0.00003026        0.00000426        0.00000012
      64         -0.795713        2.000000        0.00000204        0.00000041        0.00000001
      65         -0.795144        2.000000        0.00002009        0.00000453        0.00000007
      66         -0.794508        2.000000        0.00000613        0.00000124        0.00000002
      67         -0.793501        2.000000        0.00011198        0.00004016        0.00000042
      68         -0.792888        2.000000        0.00006036        0.00001470        0.00000015
      69         -0.792771        2.000000        0.00005064        0.00001164        0.00000010
      70         -0.792166        2.000000        0.00049397        0.00013636        0.00000138
      71         -0.791795        2.000000        0.00003565        0.00001031        0.00000011
      72         -0.790466        2.000000        0.00004414        0.00001584        0.00000015
      73         -0.789691        2.000000        0.00000063        0.00000033        0.00000000
      74         -0.789018        2.000000        0.00000338        0.00000076        0.00000001
      75         -0.788284        2.000000        0.00000323        0.00000131        0.00000001
      76         -0.787044        2.000000        0.00004884        0.00001008        0.00000009
      77         -0.785765        2.000000        0.00002544        0.00000667        0.00000006
      78         -0.783215        2.000000        0.01504990        0.00415144        0.00002853
      79         -0.782853        2.000000        0.00557199        0.00155347        0.00001051
      80         -0.782388        2.000000        0.00213380        0.00052756        0.00000402
      81         -0.781821        2.000000        0.00775268        0.00144813        0.00001589
      82         -0.780108        2.000000        0.00099174        0.00023297        0.00000186
      83         -0.778906        2.000000        0.69674888        0.16952290        0.00130208
      84         -0.778076        2.000000        0.00440433        0.00106045        0.00000841
      85         -0.775317        2.000000        0.00000434        0.00000133        0.00000001
      86         -0.773086        2.000000        0.00000531        0.00000196        0.00000002
      87         -0.772920        2.000000        0.00031962        0.00007105        0.00000097
      88         -0.771409        2.000000        0.00001240        0.00000586        0.00000008
      89         -0.769725        2.000000        0.00001177        0.00000270        0.00000005
      90         -0.769226        2.000000        0.00002494        0.00000596        0.00000010
      91         -0.767566        2.000000        0.00001865        0.00000532        0.00000008
      92         -0.766737        2.000000        0.00008818        0.00006172        0.00000014
      93         -0.755845        2.000000        0.00000014        0.00000026        0.00000000
      94         -0.752538        2.000000        0.00001484        0.00000775        0.00000007
      95         -0.747161        2.000000        0.03130591        0.01150747        0.00053419
      96         -0.736999        2.000000        0.00003710        0.00005556        0.00000010
      97         -0.726419        2.000000        0.00554478        0.01331610        0.00002204
      98         -0.719129        2.000000        0.00000161        0.00000803        0.00000021
      99         -0.696511        2.000000        0.00000004        0.00000020        0.00000001
     100         -0.460315        2.000000        0.00002429        0.00017105        0.00000052
     101         -0.427906        2.000000        0.00000023        0.00000162        0.00000001
     102         -0.424376        2.000000        0.00000000        0.00000001        0.00000000
     103         -0.405781        2.000000        0.00000007        0.00000018        0.00000001
     104         -0.401299        2.000000        0.00000002        0.00000005        0.00000000
     105         -0.398347        2.000000        0.00000271        0.00000754        0.00000020
     106         -0.398267        2.000000        0.00002900        0.00008078        0.00000214
     107         -0.397295        2.000000        0.00237428        0.00658034        0.00017643
     108         -0.395753        2.000000        0.00000995        0.00002727        0.00000076
     109         -0.395158        2.000000        0.00000173        0.00000697        0.00000011
     110         -0.394493        2.000000        0.00000005        0.00000043        0.00000000
     111         -0.394192        2.000000        0.00000455        0.00002205        0.00000028
     112         -0.393919        2.000000        0.00002506        0.00012862        0.00000155
     113         -0.393017        2.000000        0.00000402        0.00001338        0.00000026
     114         -0.391793        2.000000        0.00000245        0.00000712        0.00000019
     115         -0.389280        2.000000        0.00000143        0.00000455        0.00000010
     116         -0.388145        2.000000        0.00143417        0.00443208        0.00010486
     117         -0.387090        2.000000        0.00000024        0.00000069        0.00000002
     118         -0.386138        2.000000        0.00006749        0.00019555        0.00000490
     119         -0.385161        2.000000        0.00000387        0.00001055        0.00000027
     120         -0.384984        2.000000        0.00000129        0.00000401        0.00000009
     121         -0.383823        2.000000        0.00000027        0.00000078        0.00000002
     122         -0.383101        2.000000        0.00000092        0.00000242        0.00000006
     123         -0.383025        2.000000        0.00000297        0.00000831        0.00000021
     124         -0.381208        2.000000        0.00000017        0.00000082        0.00000001
     125         -0.380660        2.000000        0.00000047        0.00000518        0.00000004
     126         -0.380323        2.000000        0.00000177        0.00000673        0.00000013
     127         -0.379623        2.000000        0.00000163        0.00001693        0.00000013
     128         -0.379161        2.000000        0.00000045        0.00000184        0.00000003
     129         -0.378115        2.000000        0.00000738        0.00003199        0.00000058
     130         -0.377757        2.000000        0.00000084        0.00000311        0.00000005
     131         -0.377213        2.000000        0.00000011        0.00000040        0.00000000
     132         -0.376655        2.000000        0.00000020        0.00000190        0.00000001
     133         -0.376089        2.000000        0.00000490        0.00001929        0.00000037
     134         -0.375522        2.000000        0.00000746        0.00003616        0.00000059
     135         -0.373953        2.000000        0.00000047        0.00001197        0.00000005
     136         -0.373564        2.000000        0.00000027        0.00000853        0.00000003
     137         -0.372991        2.000000        0.00000374        0.00002012        0.00000021
     138         -0.372433        2.000000        0.00003810        0.00016239        0.00000242
     139         -0.372037        2.000000        0.00000502        0.00002369        0.00000034
     140         -0.371632        2.000000        0.00001879        0.00006291        0.00000112
     141         -0.371006        2.000000        0.00003095        0.00007555        0.00000182
     142         -0.369840        2.000000        0.00009179        0.00062991        0.00000963
     143         -0.369635        2.000000        0.00001158        0.00007038        0.00000176
     144         -0.369153        2.000000        0.00000023        0.00000101        0.00000002
     145         -0.369131        2.000000        0.00000682        0.00003371        0.00000063
     146         -0.368498        2.000000        0.00000112        0.00000271        0.00000008
     147         -0.367984        2.000000        0.00000126        0.00000339        0.00000009
     148         -0.367257        2.000000        0.00000077        0.00000203        0.00000005
     149         -0.366951        2.000000        0.00000012        0.00000072        0.00000001
     150         -0.366882        2.000000        0.00003377        0.00008175        0.00000219
     151         -0.366558        2.000000        0.00000196        0.00000583        0.00000013
     152         -0.366087        2.000000        0.00000051        0.00000286        0.00000003
     153         -0.365532        2.000000        0.00002094        0.00005643        0.00000133
     154         -0.365292        2.000000        0.00000127        0.00000531        0.00000008
     155         -0.364873        2.000000        0.00009364        0.00025433        0.00000565
     156         -0.364499        2.000000        0.00001030        0.00002844        0.00000063
     157         -0.364385        2.000000        0.00001935        0.00020771        0.00000166
     158         -0.363409        2.000000        0.00000422        0.00001049        0.00000029
     159         -0.362731        2.000000        0.00002514        0.00009770        0.00000155
     160         -0.361690        2.000000        0.00000249        0.00000764        0.00000014
     161         -0.361463        2.000000        0.00013743        0.00037356        0.00000831
     162         -0.360695        2.000000        0.00000019        0.00000107        0.00000002
     163         -0.359909        2.000000        0.00004176        0.00010417        0.00000272
     164         -0.358869        2.000000        0.00001373        0.00003260        0.00000103
     165         -0.358762        2.000000        0.00048740        0.00120627        0.00003359
     166         -0.358424        2.000000        0.00000408        0.00001022        0.00000023
     167         -0.357749        2.000000        0.00000427        0.00002688        0.00000015
     168         -0.357432        2.000000        0.00000701        0.00003644        0.00000059
     169         -0.356226        2.000000        0.00000002        0.00000009        0.00000000
     170         -0.355206        2.000000        0.00004979        0.00012531        0.00000311
     171         -0.354151        2.000000        0.00000081        0.00000228        0.00000004
     172         -0.353675        2.000000        0.00001708        0.00004457        0.00000106
     173         -0.353241        2.000000        0.00002480        0.00006149        0.00000153
     174         -0.352384        2.000000        0.00052832        0.00133210        0.00003219
     175         -0.349281        2.000000        0.00000051        0.00000210        0.00000003
     176         -0.348101        2.000000        0.00042120        0.00107696        0.00002517
     177         -0.347056        2.000000        0.00000407        0.00001289        0.00000029
     178         -0.346421        2.000000        0.00007978        0.00020368        0.00000480
     179         -0.346099        2.000000        0.00456698        0.01174685        0.00026970
     180         -0.344626        2.000000        0.00077981        0.00203965        0.00004507
     181         -0.344227        2.000000        0.18202283        0.47629775        0.01052066
     182         -0.344158        2.000000        0.00059250        0.00154155        0.00003456
     183         -0.343279        2.000000        0.00022289        0.00059259        0.00001265
     184         -0.342186        2.000000        0.00002417        0.00006350        0.00000140
     185         -0.341638        2.000000        0.00002368        0.00006177        0.00000138
     186         -0.341223        2.000000        0.00016192        0.00041030        0.00001044
     187         -0.341051        2.000000        0.03700732        0.09449128        0.00231693
     188         -0.340810        2.000000        0.00000032        0.00000082        0.00000002
     189         -0.340344        2.000000        0.00000405        0.00001160        0.00000022
     190         -0.340103        2.000000        0.00052281        0.00136181        0.00003212
     191         -0.339538        2.000000        0.00001158        0.00003136        0.00000079
     192         -0.338904        2.000000        0.00000158        0.00000478        0.00000008
     193         -0.338737        2.000000        0.00002734        0.00008785        0.00000242
     194         -0.337951        2.000000        0.00004321        0.00011074        0.00000261
     195         -0.337180        2.000000        0.00000039        0.00000126        0.00000003
     196         -0.336960        2.000000        0.00004890        0.00012721        0.00000299
     197         -0.336163        2.000000        0.00000718        0.00001919        0.00000039
     198         -0.335733        2.000000        0.00000563        0.00001517        0.00000037
     199         -0.334956        2.000000        0.00000834        0.00002429        0.00000044
     200         -0.333834        2.000000        0.00000512        0.00001497        0.00000038
     201         -0.331670        2.000000        0.00000396        0.00001303        0.00000020
     202         -0.330715        2.000000        0.00007619        0.00021905        0.00000396
     203         -0.327469        2.000000        0.00000705        0.00005981        0.00000106
     204         -0.326924        2.000000        0.00000008        0.00000046        0.00000001
     205         -0.319799        2.000000        0.00000332        0.00002128        0.00000043
     206         -0.319625        2.000000        0.01266469        0.07562082        0.00157805
     207         -0.318771        2.000000        0.00012973        0.00068345        0.00001467
     208         -0.318487        2.000000        0.00000006        0.00000036        0.00000001
     209         -0.318151        2.000000        0.00000003        0.00000019        0.00000000
     210         -0.317254        2.000000        0.00000006        0.00000022        0.00000001
     211         -0.316615        2.000000        0.00000007        0.00000024        0.00000001
     212         -0.316317        2.000000        0.00001269        0.00005547        0.00000090
     213         -0.315885        2.000000        0.00000005        0.00000015        0.00000000
     214         -0.315512        2.000000        0.00000002        0.00000006        0.00000000
     215         -0.314742        2.000000        0.00000004        0.00000012        0.00000000
     216         -0.314240        2.000000        0.00000000        0.00000000        0.00000000
     217         -0.313093        2.000000        0.00000006        0.00000018        0.00000000
     218         -0.312538        2.000000        0.00000004        0.00000014        0.00000000
     219         -0.312396        2.000000        0.00000004        0.00000014        0.00000000
     220         -0.312037        2.000000        0.00000000        0.00000001        0.00000000
     221         -0.310598        2.000000        0.00000007        0.00000021        0.00000000
     222         -0.310221        2.000000        0.00000001        0.00000003        0.00000000
     223         -0.309408        2.000000        0.00000001        0.00000003        0.00000000
     224         -0.309395        2.000000        0.00000004        0.00000013        0.00000000
     225         -0.309234        2.000000        0.00000002        0.00000007        0.00000000
     226         -0.308381        2.000000        0.00000031        0.00000095        0.00000002
     227         -0.308250        2.000000        0.00000228        0.00000668        0.00000011
     228         -0.308097        2.000000        0.00000001        0.00000007        0.00000000
     229         -0.307179        2.000000        0.00000052        0.00000179        0.00000005
     230         -0.305966        2.000000        0.00000306        0.00001075        0.00000030
     231         -0.305190        2.000000        0.00011762        0.00040298        0.00001020
     232         -0.305170        2.000000        0.00001490        0.00005246        0.00000079
     233         -0.303881        2.000000        0.00005126        0.00114195        0.00000300
     234         -0.303186        2.000000        0.00000011        0.00000079        0.00000001
     235         -0.302644        2.000000        0.00000100        0.00000408        0.00000005
     236         -0.302137        2.000000        0.00000730        0.00002650        0.00000039
     237         -0.301410        2.000000        0.00000641        0.00002228        0.00000033
     238         -0.301270        2.000000        0.00000722        0.00002406        0.00000037
     239         -0.300504        2.000000        0.00036239        0.00118315        0.00001773
     240         -0.300347        2.000000        0.00001332        0.00004164        0.00000067
     241         -0.300010        2.000000        0.00002294        0.00040087        0.00000160
     242         -0.298878        2.000000        0.00001293        0.00004269        0.00000057
     243         -0.298505        2.000000        0.00001364        0.00004574        0.00000060
     244         -0.297847        2.000000        0.00001478        0.00004983        0.00000064
     245         -0.297156        2.000000        0.00002353        0.00008045        0.00000100
     246         -0.297046        2.000000        0.00000033        0.00000119        0.00000001
     247         -0.296671        2.000000        0.00001156        0.00003997        0.00000048
     248         -0.296618        2.000000        0.00000422        0.00001453        0.00000018
     249         -0.295969        2.000000        0.00011431        0.00039772        0.00000472
     250         -0.295348        2.000000        0.00013371        0.00046948        0.00000544
     251         -0.295087        2.000000        0.00000016        0.00000054        0.00000001
     252         -0.294369        2.000000        0.00000470        0.00001677        0.00000019
     253         -0.294183        2.000000        0.00000165        0.00000586        0.00000007
     254         -0.293640        2.000000        0.00000002        0.00000007        0.00000000
     255         -0.293246        2.000000        0.00000118        0.00000431        0.00000005
     256         -0.292577        2.000000        0.00000005        0.00000019        0.00000000
     257         -0.291994        2.000000        0.00001397        0.00005262        0.00000055
     258         -0.291705        2.000000        0.00000000        0.00000001        0.00000000
     259         -0.290928        2.000000        0.00004756        0.00018241        0.00000190
     260         -0.290306        2.000000        0.00006270        0.00024681        0.00000260
     261         -0.289901        2.000000        0.00015974        0.00062671        0.00000653
     262         -0.289451        2.000000        0.00004932        0.00019844        0.00000211
     263         -0.289043        2.000000        0.00001706        0.00006862        0.00000073
     264         -0.288015        2.000000        0.00000377        0.00001524        0.00000016
     265         -0.287861        2.000000        0.00000055        0.00000213        0.00000002
     266         -0.286936        2.000000        0.00000010        0.00000042        0.00000000
     267         -0.286667        2.000000        0.00000014        0.00000056        0.00000001
     268         -0.286302        2.000000        0.00000121        0.00000507        0.00000005
     269         -0.285607        2.000000        0.00000044        0.00000163        0.00000002
     270         -0.285328        2.000000        0.00000058        0.00000215        0.00000002
     271         -0.285085        2.000000        0.00000002        0.00000009        0.00000000
     272         -0.284841        2.000000        0.00000027        0.00000105        0.00000001
     273         -0.284131        2.000000        0.00000124        0.00000468        0.00000004
     274         -0.283572        2.000000        0.00000165        0.00000620        0.00000006
     275         -0.283249        2.000000        0.00000532        0.00001996        0.00000019
     276         -0.283050        2.000000        0.00001101        0.00004148        0.00000039
     277         -0.282957        2.000000        0.00000057        0.00000214        0.00000002
     278         -0.282638        2.000000        0.00001334        0.00005039        0.00000047
     279         -0.282393        2.000000        0.00039145        0.00147947        0.00001380
     280         -0.282190        2.000000        0.00000079        0.00000296        0.00000003
     281         -0.281812        2.000000        0.00000259        0.00000988        0.00000009
     282         -0.281718        2.000000        0.00005739        0.00021823        0.00000201
     283         -0.281529        2.000000        0.00015659        0.00059501        0.00000549
     284         -0.281304        2.000000        0.00034093        0.00129902        0.00001191
     285         -0.281056        2.000000        0.00108787        0.00416087        0.00003794
     286         -0.280948        2.000000        0.00022491        0.00086250        0.00000780
     287         -0.280843        2.000000        0.00209578        0.00805383        0.00007289
     288         -0.280780        2.000000        0.00001369        0.00005333        0.00000049
     289         -0.280282        2.000000        0.00007452        0.00028365        0.00000263
     290         -0.279956        2.000000        0.00001509        0.00005767        0.00000053
     291         -0.279807        2.000000        0.00035024        0.00133360        0.00001235
     292         -0.279686        2.000000        0.00451825        0.01722121        0.00015918
     293         -0.279589        2.000000        0.00067826        0.00258643        0.00002390
     294         -0.279495        2.000000        0.00280592        0.01071280        0.00009876
     295         -0.279217        2.000000        0.00024748        0.00094406        0.00000881
     296         -0.279093        2.000000        0.00271474        0.01033657        0.00009718
     297         -0.278951        2.000000        0.00018494        0.00070415        0.00000666
     298         -0.278592        2.000000        0.00057244        0.00219245        0.00002038
     299         -0.278433        2.000000        0.00001231        0.00004660        0.00000046
     300         -0.278210        2.000000        0.00002605        0.00009944        0.00000096
     301         -0.278135        2.000000        0.00000156        0.00000591        0.00000007
     302         -0.278031        2.000000        0.00000005        0.00000033        0.00000000
     303         -0.277650        2.000000        0.00003400        0.00012948        0.00000140
     304         -0.277312        2.000000        0.00000038        0.00000309        0.00000006
     305         -0.276990        2.000000        0.00000658        0.00004078        0.00000044
     306         -0.276609        2.000000        0.00000094        0.00000444        0.00000003
     307         -0.276405        2.000000        0.00006339        0.00028381        0.00000204