# Projected DOS for list 32 of 3 atoms, at iteration step i = 0, E(Fermi) =    -0.060510 a.u.
#     MO Eigenvalue [a.u.]      Occupation                 s                 p                 d
       1         -0.895259        2.000000        0.00000000        0.00000000        0.00000000
       2         -0.868125        2.000000        0.00000000        0.00000000        0.00000000
       3         -0.864615        2.000000        0.00000000        0.00000000        0.00000000
       4         -0.857993        2.000000        0.00000275        0.00000236        0.00000001
       5         -0.853826        2.000000        0.00003235        0.00000787        0.00000008
       6         -0.850378        2.000000        0.00000000        0.00000000        0.00000000
       7         -0.848222        2.000000        0.00000313        0.00000059        0.00000000
       8         -0.847335        2.000000        0.00193774        0.00045490        0.00000232
       9         -0.842977        2.000000        0.00001633        0.00000167        0.00000003
      10         -0.841504        2.000000        0.00894222        0.00101149        0.00001745
      11         -0.840654        2.000000        0.01986669        0.00264989        0.00003841
      12         -0.839688        2.000000        0.00919041        0.00195716        0.00001939
      13         -0.839172        2.000000        0.00192903        0.00019818        0.00000312
      14         -0.838522        2.000000        0.00040732        0.00004364        0.00000064
      15         -0.837015        2.000000        0.00031734        0.00010367        0.00000095
      16         -0.832753        2.000000        0.04512629        0.00908361        0.00005598
      17         -0.832000        2.000000        0.22590899        0.04510561        0.00027877
      18         -0.831644        2.000000        0.12666367        0.02875952        0.00014528
      19         -0.830027        2.000000        0.00549003        0.00137448        0.00000582
      20         -0.829447        2.000000        0.13998488        0.03691173        0.00014296
      21         -0.828640        2.000000        0.05706368        0.01620508        0.00005618
      22         -0.828147        2.000000        0.00004127        0.00003961        0.00000018
      23         -0.827394        2.000000        0.01179517        0.00302305        0.00001542
      24         -0.826637        2.000000        0.00027833        0.00011426        0.00000073
      25         -0.825864        2.000000        0.00403475        0.00113337        0.00000499
      26         -0.825007        2.000000        0.00132807        0.00060911        0.00000138
      27         -0.824149        2.000000        0.00000598        0.00002284        0.00000028
      28         -0.823003        2.000000        0.00326262        0.00115833        0.00000374
      29         -0.821982        2.000000        0.00177721        0.00061606        0.00000324
      30         -0.820560        2.000000        0.00010473        0.00004910        0.00000073
      31         -0.820223        2.000000        0.00053713        0.00023173        0.00000067
      32         -0.820029        2.000000        0.00122545        0.00066891        0.00000165
      33         -0.819390        2.000000        0.00018779        0.00006381        0.00000037
      34         -0.818664        2.000000        0.00005505        0.00002097        0.00000010
      35         -0.817548        2.000000        0.00001914        0.00011777        0.00000123
      36         -0.816472        2.000000        0.00357425        0.00305683        0.00001326
      37         -0.815444        2.000000        0.00504921        0.00451414        0.00001178
      38         -0.814805        2.000000        0.00099079        0.00081804        0.00000185
      39         -0.814124        2.000000        0.00049121        0.00043301        0.00000280
      40         -0.813968        2.000000        0.00000550        0.00006157        0.00000009
      41         -0.813053        2.000000        0.00000269        0.00002683        0.00000015
      42         -0.812601        2.000000        0.00015565        0.00015563        0.00000029
      43         -0.811948        2.000000        0.00093057        0.00126619        0.00000496
      44         -0.811687        2.000000        0.00011674        0.00063537        0.00000412
      45         -0.810574        2.000000        0.00000783        0.00004012        0.00000081
      46         -0.809310        2.000000        0.00002404        0.00002494        0.00000002
      47         -0.808268        2.000000        0.00008286        0.00012151        0.00000044
      48         -0.807324        2.000000        0.00125955        0.00151143        0.00000164
      49         -0.806602        2.000000        0.00404260        0.00408127        0.00000245
      50         -0.806376        2.000000        0.00421428        0.00499206        0.00000546
      51         -0.806147        2.000000        0.00809740        0.00987903        0.00001070
      52         -0.804835        2.000000        0.00031928        0.00028763        0.00002004
      53         -0.804321        2.000000        0.00055639        0.00134141        0.00000743
      54         -0.803943        2.000000        0.00003413        0.00015485        0.00000312
      55         -0.803401        2.000000        0.00513632        0.00295507        0.00001483
      56         -0.802648        2.000000        0.00435542        0.00405508        0.00011097
      57         -0.801912        2.000000        0.00837607        0.00451543        0.00011769
      58         -0.801342        2.000000        0.01765456        0.00728941        0.00014122
      59         -0.800594        2.000000        0.00605096        0.00377602        0.00002292
      60         -0.799945        2.000000        0.00102171        0.00050721        0.00000649
      61         -0.799254        2.000000        0.00023014        0.00010205        0.00000167
      62         -0.798331        2.000000        0.00024031        0.00009311        0.00000453
      63         -0.797356        2.000000        0.00001423        0.00001105        0.00000048
      64         -0.795713        2.000000        0.00004291        0.00005139        0.00000027
      65         -0.795144        2.000000        0.00023745        0.00021960        0.00000055
      66         -0.794508        2.000000        0.00013313        0.00031822        0.00000121
      67         -0.793501        2.000000        0.00035854        0.00038429        0.00000106
      68         -0.792888        2.000000        0.00027907        0.00032781        0.00000475
      69         -0.792771        2.000000        0.00065211        0.00085701        0.00000119
      70         -0.792166        2.000000        0.00012544        0.00007728        0.00000163
      71         -0.791795        2.000000        0.00012134        0.00015457        0.00000025
      72         -0.790466        2.000000        0.00167088        0.00236331        0.00000349
      73         -0.789691        2.000000        0.00001535        0.00010301        0.00000013
      74         -0.789018        2.000000        0.00008832        0.00016947        0.00000019
      75         -0.788284        2.000000        0.00162787        0.00074496        0.00002765
      76         -0.787044        2.000000        0.00118964        0.00146164        0.00000277
      77         -0.785765        2.000000        0.00001780        0.00004689        0.00000201
      78         -0.783215        2.000000        0.00000050        0.00000449        0.00000010
      79         -0.782853        2.000000        0.00000350        0.00000651        0.00000023
      80         -0.782388        2.000000        0.00000212        0.00000431        0.00000012
      81         -0.781821        2.000000        0.00000006        0.00000051        0.00000000
      82         -0.780108        2.000000        0.00003389        0.00005669        0.00000017
      83         -0.778906        2.000000        0.00000001        0.00000003        0.00000000
      84         -0.778076        2.000000        0.00000006        0.00000003        0.00000000
      85         -0.775317        2.000000        0.00000388        0.00000695        0.00000000
      86         -0.773086        2.000000        0.00000183        0.00000140        0.00000001
      87         -0.772920        2.000000        0.00000031        0.00000030        0.00000000
      88         -0.771409        2.000000        0.00000048        0.00000122        0.00000000
      89         -0.769725        2.000000        0.00000301        0.00000872        0.00000008
      90         -0.769226        2.000000        0.00000492        0.00001012        0.00000005
      91         -0.767566        2.000000        0.00001081        0.00002335        0.00000013
      92         -0.766737        2.000000        0.00000026        0.00000043        0.00000000
      93         -0.755845        2.000000        0.00000000        0.00000002        0.00000000
      94         -0.752538        2.000000        0.00000001        0.00000005        0.00000000
      95         -0.747161        2.000000        0.00000000        0.00000000        0.00000000
      96         -0.736999        2.000000        0.00000000        0.00000000        0.00000000
      97         -0.726419        2.000000        0.00000000        0.00000000        0.00000000
      98         -0.719129        2.000000        0.00000000        0.00000000        0.00000000
      99         -0.696511        2.000000        0.00000000        0.00000000        0.00000000
     100         -0.460315        2.000000        0.00000000        0.00000000        0.00000000
     101         -0.427906        2.000000        0.00000000        0.00000001        0.00000000
     102         -0.424376        2.000000        0.00000000        0.00000000        0.00000000
     103         -0.405781        2.000000        0.00000012        0.00000028        0.00000001
     104         -0.401299        2.000000        0.00000897        0.00002853        0.00000056
     105         -0.398347        2.000000        0.00000613        0.00004433        0.00000050
     106         -0.398267        2.000000        0.00001891        0.00006855        0.00000120
     107         -0.397295        2.000000        0.00000011        0.00000053        0.00000001
     108         -0.395753        2.000000        0.00001792        0.00007423        0.00000092
     109         -0.395158        2.000000        0.00081845        0.00244795        0.00004870
     110         -0.394493        2.000000        0.00081898        0.00239883        0.00005180
     111         -0.394192        2.000000        0.00184419        0.00540914        0.00011023
     112         -0.393919        2.000000        0.00055916        0.00161706        0.00003372
     113         -0.393017        2.000000        0.00017766        0.00052397        0.00001053
     114         -0.391793        2.000000        0.00067816        0.00187936        0.00004199
     115         -0.389280        2.000000        0.00045946        0.00136354        0.00002584
     116         -0.388145        2.000000        0.00000038        0.00000130        0.00000003
     117         -0.387090        2.000000        0.00693902        0.01936175        0.00041059
     118         -0.386138        2.000000        0.00220138        0.00626210        0.00012625
     119         -0.385161        2.000000        0.00978665        0.02735676        0.00056352
     120         -0.384984        2.000000        0.15887064        0.44273495        0.00920505
     121         -0.383823        2.000000        0.00014508        0.00039018        0.00000894
     122         -0.383101        2.000000        0.00161393        0.00449308        0.00009367
     123         -0.383025        2.000000        0.01833703        0.05058813        0.00105992
     124         -0.381208        2.000000        0.00064717        0.00239139        0.00003860
     125         -0.380660        2.000000        0.00137858        0.00463018        0.00007449
     126         -0.380323        2.000000        0.00370470        0.01146166        0.00019977
     127         -0.379623        2.000000        0.00083069        0.00264541        0.00004399
     128         -0.379161        2.000000        0.00024042        0.00078933        0.00001361
     129         -0.378115        2.000000        0.00021481        0.00098102        0.00001069
     130         -0.377757        2.000000        0.00009660        0.00045874        0.00000444
     131         -0.377213        2.000000        0.00071339        0.00227945        0.00004603
     132         -0.376655        2.000000        0.00014721        0.00079457        0.00001488
     133         -0.376089        2.000000        0.00096725        0.00395093        0.00004699
     134         -0.375522        2.000000        0.00060635        0.00325438        0.00002951
     135         -0.373953        2.000000        0.00464454        0.01321125        0.00027922
     136         -0.373564        2.000000        0.00013595        0.00054580        0.00000715
     137         -0.372991        2.000000        0.00070062        0.00209996        0.00004471
     138         -0.372433        2.000000        0.00006165        0.00017206        0.00000428
     139         -0.372037        2.000000        0.00022629        0.00196989        0.00002414
     140         -0.371632        2.000000        0.00189834        0.00507876        0.00011771
     141         -0.371006        2.000000        0.00023844        0.00080515        0.00001741
     142         -0.369840        2.000000        0.00011205        0.00036834        0.00000712
     143         -0.369635        2.000000        0.00063011        0.00212110        0.00003971
     144         -0.369153        2.000000        0.00002074        0.00027890        0.00000247
     145         -0.369131        2.000000        0.00019745        0.00070325        0.00001417
     146         -0.368498        2.000000        0.00013724        0.00136856        0.00002069
     147         -0.367984        2.000000        0.00114768        0.00727363        0.00013812
     148         -0.367257        2.000000        0.00017418        0.00050133        0.00001152
     149         -0.366951        2.000000        0.00004829        0.00014996        0.00000191
     150         -0.366882        2.000000        0.00009369        0.00025261        0.00000585
     151         -0.366558        2.000000        0.00005501        0.00018928        0.00000333
     152         -0.366087        2.000000        0.00094982        0.00298687        0.00006351
     153         -0.365532        2.000000        0.00024092        0.00191315        0.00004254
     154         -0.365292        2.000000        0.00021222        0.00234552        0.00002210
     155         -0.364873        2.000000        0.00020181        0.00140265        0.00002388
     156         -0.364499        2.000000        0.00005142        0.00118813        0.00000816
     157         -0.364385        2.000000        0.00001022        0.00011883        0.00000106
     158         -0.363409        2.000000        0.00688215        0.04742200        0.00077305
     159         -0.362731        2.000000        0.00000440        0.00003556        0.00000036
     160         -0.361690        2.000000        0.00025027        0.00078631        0.00001323
     161         -0.361463        2.000000        0.00000644        0.00007535        0.00000093
     162         -0.360695        2.000000        0.00009127        0.00054168        0.00000598
     163         -0.359909        2.000000        0.00002821        0.00009873        0.00000106
     164         -0.358869        2.000000        0.00253776        0.00774527        0.00012025
     165         -0.358762        2.000000        0.00007368        0.00023438        0.00000356
     166         -0.358424        2.000000        0.00328275        0.01026650        0.00015442
     167         -0.357749        2.000000        0.00000229        0.00000798        0.00000003
     168         -0.357432        2.000000        0.00004927        0.00015996        0.00000260
     169         -0.356226        2.000000        0.00190322        0.00621641        0.00009218
     170         -0.355206        2.000000        0.00013370        0.00046256        0.00000897
     171         -0.354151        2.000000        0.00000759        0.00006857        0.00000138
     172         -0.353675        2.000000        0.00000073        0.00000944        0.00000006
     173         -0.353241        2.000000        0.00177474        0.00616353        0.00015638
     174         -0.352384        2.000000        0.00002239        0.00010529        0.00000251
     175         -0.349281        2.000000        0.00000844        0.00007330        0.00000072
     176         -0.348101        2.000000        0.00025647        0.00072418        0.00002421
     177         -0.347056        2.000000        0.00032214        0.00089234        0.00002219
     178         -0.346421        2.000000        0.00003282        0.00010543        0.00000306
     179         -0.346099        2.000000        0.00019670        0.00051614        0.00001499
     180         -0.344626        2.000000        0.00003470        0.00016648        0.00000286
     181         -0.344227        2.000000        0.00000040        0.00000086        0.00000004
     182         -0.344158        2.000000        0.00003622        0.00010984        0.00000292
     183         -0.343279        2.000000        0.00003008        0.00010667        0.00000607
     184         -0.342186        2.000000        0.00006711        0.00018618        0.00000265
     185         -0.341638        2.000000        0.00009694        0.00052478        0.00001123
     186         -0.341223        2.000000        0.00000333        0.00001403        0.00000029
     187         -0.341051        2.000000        0.00000006        0.00000049        0.00000000
     188         -0.340810        2.000000        0.00003272        0.00010354        0.00000115
     189         -0.340344        2.000000        0.00005710        0.00029210        0.00000607
     190         -0.340103        2.000000        0.00000379        0.00000801        0.00000019
     191         -0.339538        2.000000        0.00000556        0.00001479        0.00000013
     192         -0.338904        2.000000        0.00002224        0.00007388        0.00000088
     193         -0.338737        2.000000        0.00002930        0.00008396        0.00000108
     194         -0.337951        2.000000        0.00002809        0.00008271        0.00000111
     195         -0.337180        2.000000        0.00000014        0.00000073        0.00000001
     196         -0.336960        2.000000        0.00001506        0.00004469        0.00000053
     197         -0.336163        2.000000        0.00000756        0.00002156        0.00000032
     198         -0.335733        2.000000        0.00001321        0.00003661        0.00000052
     199         -0.334956        2.000000        0.00000801        0.00004584        0.00000086
     200         -0.333834        2.000000        0.00000143        0.00000388        0.00000014
     201         -0.331670        2.000000        0.00001424        0.00007746        0.00000054
     202         -0.330715        2.000000        0.00001329        0.00003100        0.00000073
     203         -0.327469        2.000000        0.00000115        0.00000594        0.00000002
     204         -0.326924        2.000000        0.00008857        0.00042281        0.00000183
     205         -0.319799        2.000000        0.00000371        0.00002600        0.00000021
     206         -0.319625        2.000000        0.00000003        0.00000011        0.00000000
     207         -0.318771        2.000000        0.00000186        0.00001148        0.00000004
     208         -0.318487        2.000000        0.00002216        0.00011662        0.00000092
     209         -0.318151        2.000000        0.00006533        0.00025558        0.00000118
     210         -0.317254        2.000000        0.00000123        0.00001382        0.00000021
     211         -0.316615        2.000000        0.00000222        0.00001052        0.00000008
     212         -0.316317        2.000000        0.00000287        0.00001413        0.00000006
     213         -0.315885        2.000000        0.00006214        0.00058357        0.00000667
     214         -0.315512        2.000000        0.00001497        0.00012856        0.00000112
     215         -0.314742        2.000000        0.00000204        0.00002373        0.00000033
     216         -0.314240        2.000000        0.00005255        0.00039469        0.00000382
     217         -0.313093        2.000000        0.00010638        0.00090387        0.00000872
     218         -0.312538        2.000000        0.00006972        0.00038152        0.00000216
     219         -0.312396        2.000000        0.00013808        0.00107491        0.00001204
     220         -0.312037        2.000000        0.00007196        0.00051031        0.00000496
     221         -0.310598        2.000000        0.00004201        0.00032828        0.00000181
     222         -0.310221        2.000000        0.00005985        0.00038762        0.00000411
     223         -0.309408        2.000000        0.00001723        0.00013037        0.00000154
     224         -0.309395        2.000000        0.00001929        0.00008396        0.00000024
     225         -0.309234        2.000000        0.00000952        0.00003668        0.00000015
     226         -0.308381        2.000000        0.00007000        0.00044754        0.00000465
     227         -0.308250        2.000000        0.00030256        0.00198747        0.00000917
     228         -0.308097        2.000000        0.00003929        0.00034656        0.00000317
     229         -0.307179        2.000000        0.00001707        0.00004760        0.00000025
     230         -0.305966        2.000000        0.00040702        0.00160836        0.00001050
     231         -0.305190        2.000000        0.00004598        0.00019101        0.00000116
     232         -0.305170        2.000000        0.00001838        0.00008386        0.00000050
     233         -0.303881        2.000000        0.00000259        0.00001232        0.00000005
     234         -0.303186        2.000000        0.00001806        0.00009796        0.00000040
     235         -0.302644        2.000000        0.00003996        0.00019587        0.00000073
     236         -0.302137        2.000000        0.00019150        0.00133016        0.00000911
     237         -0.301410        2.000000        0.00004744        0.00012802        0.00000056
     238         -0.301270        2.000000        0.00006837        0.00062504        0.00000437
     239         -0.300504        2.000000        0.00008393        0.00046193        0.00000372
     240         -0.300347        2.000000        0.00008899        0.00030256        0.00000147
     241         -0.300010        2.000000        0.00000020        0.00000108        0.00000000
     242         -0.298878        2.000000        0.00003380        0.00036624        0.00000370
     243         -0.298505        2.000000        0.00003877        0.00023430        0.00000095
     244         -0.297847        2.000000        0.00001076        0.00003890        0.00000049
     245         -0.297156        2.000000        0.00028933        0.00229931        0.00002105
     246         -0.297046        2.000000        0.00003053        0.00037585        0.00000247
     247         -0.296671        2.000000        0.00037305        0.00210863        0.00001674
     248         -0.296618        2.000000        0.00000327        0.00002688        0.00000015
     249         -0.295969        2.000000        0.00003325        0.00017488        0.00000103
     250         -0.295348        2.000000        0.00000743        0.00006605        0.00000022
     251         -0.295087        2.000000        0.00008463        0.00055048        0.00000430
     252         -0.294369        2.000000        0.00007082        0.00053862        0.00000485
     253         -0.294183        2.000000        0.00000658        0.00005840        0.00000082
     254         -0.293640        2.000000        0.00027009        0.00150009        0.00000889
     255         -0.293246        2.000000        0.00000841        0.00003509        0.00000014
     256         -0.292577        2.000000        0.00001996        0.00024527        0.00000232
     257         -0.291994        2.000000        0.00196224        0.01054301        0.00006996
     258         -0.291705        2.000000        0.00041407        0.00189389        0.00001155
     259         -0.290928        2.000000        0.00009790        0.00090483        0.00000545
     260         -0.290306        2.000000        0.00047980        0.00192954        0.00000802
     261         -0.289901        2.000000        0.00050204        0.00262123        0.00001142
     262         -0.289451        2.000000        0.00055099        0.00319952        0.00002936
     263         -0.289043        2.000000        0.00038827        0.00151887        0.00000571
     264         -0.288015        2.000000        0.00341848        0.01694578        0.00008929
     265         -0.287861        2.000000        0.02810957        0.13397757        0.00078724
     266         -0.286936        2.000000        0.00000614        0.00003826        0.00000022
     267         -0.286667        2.000000        0.00115699        0.00656922        0.00003903
     268         -0.286302        2.000000        0.00002349        0.00017619        0.00000096
     269         -0.285607        2.000000        0.00053734        0.00309761        0.00002145
     270         -0.285328        2.000000        0.00091283        0.00393864        0.00001335
     271         -0.285085        2.000000        0.00016367        0.00084457        0.00000114
     272         -0.284841        2.000000        0.00003790        0.00025511        0.00000157
     273         -0.284131        2.000000        0.00011609        0.00071476        0.00000029
     274         -0.283572        2.000000        0.00003158        0.00017158        0.00000110
     275         -0.283249        2.000000        0.00007446        0.00044403        0.00000059
     276         -0.283050        2.000000        0.00004827        0.00037690        0.00000072
     277         -0.282957        2.000000        0.00007244        0.00023419        0.00000089
     278         -0.282638        2.000000        0.00019833        0.00087671        0.00000523
     279         -0.282393        2.000000        0.00225452        0.01034187        0.00007221
     280         -0.282190        2.000000        0.00001679        0.00005884        0.00000024
     281         -0.281812        2.000000        0.00001060        0.00007899        0.00000057
     282         -0.281718        2.000000        0.00006250        0.00055955        0.00000401
     283         -0.281529        2.000000        0.00001633        0.00004616        0.00000087
     284         -0.281304        2.000000        0.00010274        0.00046707        0.00000037
     285         -0.281056        2.000000        0.00004110        0.00018744        0.00000178
     286         -0.280948        2.000000        0.00004117        0.00040784        0.00000289
     287         -0.280843        2.000000        0.00000799        0.00008138        0.00000041
     288         -0.280780        2.000000        0.00004549        0.00056245        0.00000256
     289         -0.280282        2.000000        0.00003130        0.00016626        0.00000126
     290         -0.279956        2.000000        0.00001284        0.00016504        0.00000099
     291         -0.279807        2.000000        0.00001850        0.00012624        0.00000021
     292         -0.279686        2.000000        0.00007538        0.00044845        0.00000284
     293         -0.279589        2.000000        0.00001618        0.00008648        0.00000067
     294         -0.279495        2.000000        0.00000781        0.00004363        0.00000046
     295         -0.279217        2.000000        0.00000421        0.00010526        0.00000065
     296         -0.279093        2.000000        0.00006258        0.00036646        0.00000314
     297         -0.278951        2.000000        0.00014890        0.00119703        0.00000792
     298         -0.278592        2.000000        0.00013809        0.00090300        0.00000147
     299         -0.278433        2.000000        0.00006293        0.00023513        0.00000056
     300         -0.278210        2.000000        0.00000292        0.00007389        0.00000014
     301         -0.278135        2.000000        0.00001552        0.00005003        0.00000004
     302         -0.278031        2.000000        0.00008689        0.00016687        0.00000155
     303         -0.277650        2.000000        0.00010289        0.00037652        0.00000313
     304         -0.277312        2.000000        0.00003506        0.00031548        0.00000147
     305         -0.276990        2.000000        0.00064061        0.00408794        0.00002650
     306         -0.276609        2.000000        0.00011632        0.00059477        0.00000464
     307         -0.276405        2.000000        0.00028322        0.00114046        0.00000384