# Projected DOS for list 69 of 3 atoms, at iteration step i = 0, E(Fermi) =    -0.060510 a.u.
#     MO Eigenvalue [a.u.]      Occupation                 s                 p                 d
       1         -0.895259        2.000000        0.00000001        0.00000002        0.00000000
       2         -0.868125        2.000000        0.00000229        0.00000359        0.00000001
       3         -0.864615        2.000000        0.00000632        0.00000900        0.00000003
       4         -0.857993        2.000000        0.00000026        0.00000013        0.00000000
       5         -0.853826        2.000000        0.00005121        0.00004745        0.00000099
       6         -0.850378        2.000000        0.00000696        0.00000630        0.00000005
       7         -0.848222        2.000000        0.00000293        0.00001091        0.00000004
       8         -0.847335        2.000000        0.00000035        0.00000488        0.00000012
       9         -0.842977        2.000000        0.00011853        0.00002320        0.00000058
      10         -0.841504        2.000000        0.01698943        0.00414520        0.00009440
      11         -0.840654        2.000000        0.00696175        0.00215076        0.00003826
      12         -0.839688        2.000000        0.03548014        0.00904238        0.00019414
      13         -0.839172        2.000000        0.02700457        0.00689662        0.00016378
      14         -0.838522        2.000000        0.00308293        0.00128460        0.00003250
      15         -0.837015        2.000000        0.00040948        0.00006479        0.00000181
      16         -0.832753        2.000000        0.00003066        0.00002555        0.00000029
      17         -0.832000        2.000000        0.00091954        0.00014611        0.00000360
      18         -0.831644        2.000000        0.00033794        0.00005265        0.00000105
      19         -0.830027        2.000000        0.00085006        0.00014310        0.00000277
      20         -0.829447        2.000000        0.00093967        0.00014132        0.00000345
      21         -0.828640        2.000000        0.00065691        0.00013175        0.00000317
      22         -0.828147        2.000000        0.00005669        0.00050418        0.00001591
      23         -0.827394        2.000000        0.00003489        0.00021778        0.00000611
      24         -0.826637        2.000000        0.00134817        0.00102247        0.00002167
      25         -0.825864        2.000000        0.00039136        0.00201793        0.00006009
      26         -0.825007        2.000000        0.00002188        0.00007243        0.00000226
      27         -0.824149        2.000000        0.00006912        0.00004441        0.00000091
      28         -0.823003        2.000000        0.00004292        0.00017684        0.00000220
      29         -0.821982        2.000000        0.00012905        0.00002042        0.00000122
      30         -0.820560        2.000000        0.00524709        0.00059130        0.00001505
      31         -0.820223        2.000000        0.00103452        0.00031516        0.00000781
      32         -0.820029        2.000000        0.00021013        0.00020255        0.00000197
      33         -0.819390        2.000000        0.00133809        0.00071818        0.00000975
      34         -0.818664        2.000000        0.00039102        0.00015228        0.00000188
      35         -0.817548        2.000000        0.00010864        0.00016336        0.00000442
      36         -0.816472        2.000000        0.00493249        0.00093796        0.00000627
      37         -0.815444        2.000000        0.00242691        0.00045618        0.00000864
      38         -0.814805        2.000000        0.01191636        0.00540283        0.00007891
      39         -0.814124        2.000000        0.00012997        0.00012359        0.00000244
      40         -0.813968        2.000000        0.00021265        0.00012501        0.00000152
      41         -0.813053        2.000000        0.00043537        0.00087741        0.00003188
      42         -0.812601        2.000000        0.00071333        0.00273252        0.00002789
      43         -0.811948        2.000000        0.00006457        0.00007369        0.00000240
      44         -0.811687        2.000000        0.00004021        0.00004946        0.00000079
      45         -0.810574        2.000000        0.00993729        0.00543728        0.00006081
      46         -0.809310        2.000000        0.00261133        0.00066142        0.00001071
      47         -0.808268        2.000000        0.00073780        0.00063304        0.00000777
      48         -0.807324        2.000000        0.00057736        0.00024019        0.00000152
      49         -0.806602        2.000000        0.01604035        0.00381528        0.00003520
      50         -0.806376        2.000000        0.00195383        0.00072021        0.00001622
      51         -0.806147        2.000000        0.00155614        0.00161613        0.00000458
      52         -0.804835        2.000000        0.00069396        0.00033794        0.00000184
      53         -0.804321        2.000000        0.05839501        0.01757691        0.00016987
      54         -0.803943        2.000000        0.00007006        0.00022074        0.00000652
      55         -0.803401        2.000000        0.00009924        0.00011550        0.00000350
      56         -0.802648        2.000000        0.00656496        0.00203700        0.00001554
      57         -0.801912        2.000000        0.00008351        0.00035686        0.00001203
      58         -0.801342        2.000000        0.02260047        0.00586971        0.00004498
      59         -0.800594        2.000000        0.01397135        0.00690451        0.00010032
      60         -0.799945        2.000000        0.00085251        0.00046492        0.00000586
      61         -0.799254        2.000000        0.00078691        0.00013309        0.00000601
      62         -0.798331        2.000000        0.00002090        0.00001426        0.00000058
      63         -0.797356        2.000000        0.00019029        0.00008283        0.00000116
      64         -0.795713        2.000000        0.00001026        0.00000209        0.00000005
      65         -0.795144        2.000000        0.00279641        0.00059013        0.00000812
      66         -0.794508        2.000000        0.00232656        0.00054945        0.00000725
      67         -0.793501        2.000000        0.02219139        0.00522588        0.00005353
      68         -0.792888        2.000000        0.00054047        0.00036099        0.00000149
      69         -0.792771        2.000000        0.00584849        0.00187479        0.00001374
      70         -0.792166        2.000000        0.00122866        0.00069931        0.00001522
      71         -0.791795        2.000000        0.00120460        0.00025251        0.00000682
      72         -0.790466        2.000000        0.10503778        0.03123006        0.00019301
      73         -0.789691        2.000000        0.00006160        0.00002506        0.00000011
      74         -0.789018        2.000000        0.00093186        0.00045774        0.00000411
      75         -0.788284        2.000000        0.00034478        0.00012124        0.00000052
      76         -0.787044        2.000000        0.07039293        0.02619378        0.00015071
      77         -0.785765        2.000000        0.00965285        0.00327536        0.00001623
      78         -0.783215        2.000000        0.00058679        0.00018760        0.00000117
      79         -0.782853        2.000000        0.00054906        0.00014964        0.00000150
      80         -0.782388        2.000000        0.00331980        0.00103150        0.00000699
      81         -0.781821        2.000000        0.00120887        0.00034689        0.00000310
      82         -0.780108        2.000000        0.23596922        0.07255560        0.00055463
      83         -0.778906        2.000000        0.00009835        0.00002995        0.00000029
      84         -0.778076        2.000000        0.00002619        0.00000921        0.00000007
      85         -0.775317        2.000000        0.03503908        0.01071986        0.00011031
      86         -0.773086        2.000000        0.00035008        0.00010957        0.00000158
      87         -0.772920        2.000000        0.00033820        0.00010375        0.00000068
      88         -0.771409        2.000000        0.00006843        0.00002131        0.00000025
      89         -0.769725        2.000000        0.00662097        0.00308055        0.00002029
      90         -0.769226        2.000000        0.00007496        0.00002779        0.00000077
      91         -0.767566        2.000000        0.00027780        0.00028109        0.00000463
      92         -0.766737        2.000000        0.00000069        0.00000202        0.00000006
      93         -0.755845        2.000000        0.00000183        0.00000064        0.00000004
      94         -0.752538        2.000000        0.00000671        0.00000264        0.00000015
      95         -0.747161        2.000000        0.00000003        0.00000006        0.00000000
      96         -0.736999        2.000000        0.00000075        0.00000024        0.00000001
      97         -0.726419        2.000000        0.00000000        0.00000000        0.00000000
      98         -0.719129        2.000000        0.00000000        0.00000001        0.00000000
      99         -0.696511        2.000000        0.00000000        0.00000000        0.00000000
     100         -0.460315        2.000000        0.00000000        0.00000000        0.00000000
     101         -0.427906        2.000000        0.00000070        0.00000593        0.00000011
     102         -0.424376        2.000000        0.00000018        0.00000133        0.00000003
     103         -0.405781        2.000000        0.00000014        0.00000070        0.00000001
     104         -0.401299        2.000000        0.00001633        0.00010563        0.00000178
     105         -0.398347        2.000000        0.00001329        0.00003604        0.00000077
     106         -0.398267        2.000000        0.00018184        0.00049601        0.00001029
     107         -0.397295        2.000000        0.00001999        0.00005055        0.00000110
     108         -0.395753        2.000000        0.00022333        0.00049904        0.00001293
     109         -0.395158        2.000000        0.00026160        0.00052150        0.00001697
     110         -0.394493        2.000000        0.00398037        0.00768956        0.00026148
     111         -0.394192        2.000000        0.00068219        0.00131136        0.00004742
     112         -0.393919        2.000000        0.00011179        0.00023434        0.00000781
     113         -0.393017        2.000000        0.00101725        0.00226318        0.00007049
     114         -0.391793        2.000000        0.03262969        0.06380053        0.00208864
     115         -0.389280        2.000000        0.00006641        0.00017379        0.00000447
     116         -0.388145        2.000000        0.00011451        0.00021632        0.00000768
     117         -0.387090        2.000000        0.00005736        0.00013570        0.00000512
     118         -0.386138        2.000000        0.00038331        0.00133552        0.00002737
     119         -0.385161        2.000000        0.00060650        0.00196947        0.00003630
     120         -0.384984        2.000000        0.00006639        0.00012700        0.00000459
     121         -0.383823        2.000000        0.00005027        0.00013991        0.00000421
     122         -0.383101        2.000000        0.00013236        0.00033302        0.00000893
     123         -0.383025        2.000000        0.00005182        0.00026509        0.00000365
     124         -0.381208        2.000000        0.00054430        0.00143810        0.00003436
     125         -0.380660        2.000000        0.00044880        0.00104556        0.00002459
     126         -0.380323        2.000000        0.00008708        0.00030584        0.00000488
     127         -0.379623        2.000000        0.00522702        0.01190416        0.00030445
     128         -0.379161        2.000000        0.00022678        0.00080024        0.00001074
     129         -0.378115        2.000000        0.00413816        0.01301466        0.00021727
     130         -0.377757        2.000000        0.00017126        0.00044366        0.00000911
     131         -0.377213        2.000000        0.00079747        0.00243206        0.00004656
     132         -0.376655        2.000000        0.00277666        0.00889569        0.00015890
     133         -0.376089        2.000000        0.00082593        0.00280514        0.00004666
     134         -0.375522        2.000000        0.00222786        0.00647366        0.00011517
     135         -0.373953        2.000000        0.00145989        0.00507558        0.00007276
     136         -0.373564        2.000000        0.00631535        0.02069272        0.00031269
     137         -0.372991        2.000000        0.02615543        0.08061830        0.00133153
     138         -0.372433        2.000000        0.00227455        0.00739387        0.00011316
     139         -0.372037        2.000000        0.00076937        0.00249608        0.00003633
     140         -0.371632        2.000000        0.00091615        0.00276019        0.00004820
     141         -0.371006        2.000000        0.00006351        0.00020309        0.00000332
     142         -0.369840        2.000000        0.00006136        0.00014936        0.00000543
     143         -0.369635        2.000000        0.00001118        0.00002746        0.00000015
     144         -0.369153        2.000000        0.00071251        0.00198096        0.00003788
     145         -0.369131        2.000000        0.04159059        0.11664512        0.00220579
     146         -0.368498        2.000000        0.00001201        0.00003722        0.00000064
     147         -0.367984        2.000000        0.00017187        0.00042394        0.00001059
     148         -0.367257        2.000000        0.00002847        0.00008409        0.00000132
     149         -0.366951        2.000000        0.00002347        0.00007764        0.00000083
     150         -0.366882        2.000000        0.00058991        0.00168876        0.00003269
     151         -0.366558        2.000000        0.00004842        0.00016666        0.00000236
     152         -0.366087        2.000000        0.00001522        0.00009023        0.00000071
     153         -0.365532        2.000000        0.00016684        0.00038333        0.00001135
     154         -0.365292        2.000000        0.00071927        0.00164909        0.00004712
     155         -0.364873        2.000000        0.00263641        0.00674698        0.00016233
     156         -0.364499        2.000000        0.00023978        0.00065351        0.00001453
     157         -0.364385        2.000000        0.00845270        0.02151380        0.00052988
     158         -0.363409        2.000000        0.00000773        0.00001588        0.00000061
     159         -0.362731        2.000000        0.00365448        0.00915605        0.00022696
     160         -0.361690        2.000000        0.00005630        0.00013348        0.00000379
     161         -0.361463        2.000000        0.00034149        0.00083834        0.00004246
     162         -0.360695        2.000000        0.00005983        0.00012349        0.00000404
     163         -0.359909        2.000000        0.00640579        0.01616114        0.00039069
     164         -0.358869        2.000000        0.00320713        0.00921679        0.00016874
     165         -0.358762        2.000000        0.00002124        0.00006997        0.00000102
     166         -0.358424        2.000000        0.00416534        0.01094899        0.00022957
     167         -0.357749        2.000000        0.01670173        0.04351145        0.00089791
     168         -0.357432        2.000000        0.00077095        0.00174368        0.00005831
     169         -0.356226        2.000000        0.00053170        0.00148084        0.00003012
     170         -0.355206        2.000000        0.00015646        0.00037859        0.00001160
     171         -0.354151        2.000000        0.00049319        0.00306693        0.00009903
     172         -0.353675        2.000000        0.00014907        0.00044398        0.00001246
     173         -0.353241        2.000000        0.00000332        0.00002477        0.00000105
     174         -0.352384        2.000000        0.00003490        0.00009389        0.00000231
     175         -0.349281        2.000000        0.00181824        0.00484533        0.00013070
     176         -0.348101        2.000000        0.00001267        0.00004976        0.00000144
     177         -0.347056        2.000000        0.00027280        0.00077438        0.00002336
     178         -0.346421        2.000000        0.00034959        0.00100545        0.00002410
     179         -0.346099        2.000000        0.00000278        0.00001794        0.00000026
     180         -0.344626        2.000000        0.00000347        0.00001326        0.00000037
     181         -0.344227        2.000000        0.00000147        0.00000366        0.00000016
     182         -0.344158        2.000000        0.00001250        0.00003984        0.00000102
     183         -0.343279        2.000000        0.00005772        0.00013055        0.00000493
     184         -0.342186        2.000000        0.00228317        0.00531387        0.00019037
     185         -0.341638        2.000000        0.00000160        0.00001254        0.00000028
     186         -0.341223        2.000000        0.00044658        0.00116502        0.00004345
     187         -0.341051        2.000000        0.00000620        0.00001968        0.00000069
     188         -0.340810        2.000000        0.00029131        0.00074243        0.00002773
     189         -0.340344        2.000000        0.00002266        0.00006021        0.00000207
     190         -0.340103        2.000000        0.00004860        0.00012534        0.00000420
     191         -0.339538        2.000000        0.00000412        0.00001209        0.00000022
     192         -0.338904        2.000000        0.00000033        0.00000184        0.00000004
     193         -0.338737        2.000000        0.00001221        0.00003129        0.00000141
     194         -0.337951        2.000000        0.00606452        0.01778941        0.00058052
     195         -0.337180        2.000000        0.00082138        0.00207565        0.00008964
     196         -0.336960        2.000000        0.02302750        0.06465854        0.00242745
     197         -0.336163        2.000000        0.00268386        0.00704353        0.00029705
     198         -0.335733        2.000000        0.00123183        0.00314812        0.00014403
     199         -0.334956        2.000000        0.00002532        0.00007034        0.00000290
     200         -0.333834        2.000000        0.00045139        0.00151856        0.00005013
     201         -0.331670        2.000000        0.00001748        0.00006204        0.00000121
     202         -0.330715        2.000000        0.00000854        0.00002664        0.00000101
     203         -0.327469        2.000000        0.00011079        0.00053770        0.00001173
     204         -0.326924        2.000000        0.00011386        0.00033584        0.00000856
     205         -0.319799        2.000000        0.00000291        0.00001367        0.00000032
     206         -0.319625        2.000000        0.00000016        0.00000171        0.00000003
     207         -0.318771        2.000000        0.00000307        0.00000857        0.00000021
     208         -0.318487        2.000000        0.00000064        0.00000211        0.00000003
     209         -0.318151        2.000000        0.00000040        0.00000172        0.00000003
     210         -0.317254        2.000000        0.00000020        0.00000146        0.00000002
     211         -0.316615        2.000000        0.00000059        0.00000311        0.00000006
     212         -0.316317        2.000000        0.00001825        0.00006685        0.00000083
     213         -0.315885        2.000000        0.00000225        0.00000937        0.00000023
     214         -0.315512        2.000000        0.00000138        0.00000608        0.00000013
     215         -0.314742        2.000000        0.00000284        0.00001295        0.00000028
     216         -0.314240        2.000000        0.00000016        0.00000080        0.00000001
     217         -0.313093        2.000000        0.00000050        0.00000236        0.00000004
     218         -0.312538        2.000000        0.00000622        0.00002410        0.00000050
     219         -0.312396        2.000000        0.00001524        0.00005418        0.00000109
     220         -0.312037        2.000000        0.00000213        0.00000536        0.00000015
     221         -0.310598        2.000000        0.00000116        0.00000716        0.00000012
     222         -0.310221        2.000000        0.00000142        0.00000616        0.00000011
     223         -0.309408        2.000000        0.00000258        0.00000929        0.00000018
     224         -0.309395        2.000000        0.00000709        0.00002627        0.00000056
     225         -0.309234        2.000000        0.00000369        0.00001494        0.00000033
     226         -0.308381        2.000000        0.00002722        0.00009582        0.00000170
     227         -0.308250        2.000000        0.00000025        0.00000550        0.00000011
     228         -0.308097        2.000000        0.00000415        0.00001678        0.00000022
     229         -0.307179        2.000000        0.00001886        0.00007044        0.00000117
     230         -0.305966        2.000000        0.00019905        0.00074984        0.00001434
     231         -0.305190        2.000000        0.00000855        0.00002593        0.00000081
     232         -0.305170        2.000000        0.00000324        0.00000898        0.00000031
     233         -0.303881        2.000000        0.00001454        0.00003689        0.00000136
     234         -0.303186        2.000000        0.00000241        0.00000930        0.00000016
     235         -0.302644        2.000000        0.00001098        0.00004049        0.00000061
     236         -0.302137        2.000000        0.00007267        0.00028081        0.00000475
     237         -0.301410        2.000000        0.00001139        0.00003964        0.00000076
     238         -0.301270        2.000000        0.00002145        0.00008190        0.00000137
     239         -0.300504        2.000000        0.00001573        0.00005260        0.00000111
     240         -0.300347        2.000000        0.00000617        0.00003222        0.00000030
     241         -0.300010        2.000000        0.00000339        0.00001447        0.00000030
     242         -0.298878        2.000000        0.00000780        0.00003342        0.00000051
     243         -0.298505        2.000000        0.00001013        0.00004442        0.00000072
     244         -0.297847        2.000000        0.00001974        0.00007968        0.00000117
     245         -0.297156        2.000000        0.00002036        0.00009048        0.00000135
     246         -0.297046        2.000000        0.00000304        0.00001564        0.00000014
     247         -0.296671        2.000000        0.00000341        0.00001939        0.00000027
     248         -0.296618        2.000000        0.00000242        0.00001116        0.00000015
     249         -0.295969        2.000000        0.00012015        0.00048850        0.00000674
     250         -0.295348        2.000000        0.00011360        0.00044971        0.00000586
     251         -0.295087        2.000000        0.00000082        0.00000372        0.00000003
     252         -0.294369        2.000000        0.00000627        0.00002343        0.00000025
     253         -0.294183        2.000000        0.00000127        0.00000752        0.00000008
     254         -0.293640        2.000000        0.00000114        0.00000573        0.00000005
     255         -0.293246        2.000000        0.00000045        0.00000117        0.00000001
     256         -0.292577        2.000000        0.00000223        0.00000933        0.00000010
     257         -0.291994        2.000000        0.00004392        0.00018438        0.00000176
     258         -0.291705        2.000000        0.00000609        0.00002615        0.00000024
     259         -0.290928        2.000000        0.00001386        0.00004966        0.00000067
     260         -0.290306        2.000000        0.00001061        0.00003467        0.00000071
     261         -0.289901        2.000000        0.00031090        0.00122850        0.00001560
     262         -0.289451        2.000000        0.00002162        0.00007124        0.00000129
     263         -0.289043        2.000000        0.00002661        0.00011847        0.00000107
     264         -0.288015        2.000000        0.00002297        0.00008734        0.00000101
     265         -0.287861        2.000000        0.00008752        0.00035026        0.00000378
     266         -0.286936        2.000000        0.00000196        0.00000989        0.00000012
     267         -0.286667        2.000000        0.00000290        0.00001287        0.00000017
     268         -0.286302        2.000000        0.00002930        0.00011360        0.00000144
     269         -0.285607        2.000000        0.00000543        0.00002403        0.00000020
     270         -0.285328        2.000000        0.00003429        0.00014413        0.00000150
     271         -0.285085        2.000000        0.00003982        0.00016181        0.00000152
     272         -0.284841        2.000000        0.00002772        0.00011761        0.00000096
     273         -0.284131        2.000000        0.00002898        0.00011838        0.00000152
     274         -0.283572        2.000000        0.00057779        0.00243794        0.00001933
     275         -0.283249        2.000000        0.00031854        0.00130369        0.00001140
     276         -0.283050        2.000000        0.00048941        0.00198782        0.00001758
     277         -0.282957        2.000000        0.00002546        0.00010803        0.00000087
     278         -0.282638        2.000000        0.00019021        0.00076949        0.00000690
     279         -0.282393        2.000000        0.00684528        0.02811910        0.00024201
     280         -0.282190        2.000000        0.00069256        0.00291591        0.00002322
     281         -0.281812        2.000000        0.00001383        0.00006422        0.00000054
     282         -0.281718        2.000000        0.00018075        0.00074222        0.00000771
     283         -0.281529        2.000000        0.00001295        0.00005492        0.00000072
     284         -0.281304        2.000000        0.00004959        0.00019066        0.00000206
     285         -0.281056        2.000000        0.00003311        0.00017802        0.00000108
     286         -0.280948        2.000000        0.00015484        0.00069009        0.00000465
     287         -0.280843        2.000000        0.00118243        0.00513847        0.00003960
     288         -0.280780        2.000000        0.00000353        0.00001458        0.00000017
     289         -0.280282        2.000000        0.00011461        0.00048653        0.00000442
     290         -0.279956        2.000000        0.00017804        0.00079625        0.00000659
     291         -0.279807        2.000000        0.00007736        0.00032446        0.00000241
     292         -0.279686        2.000000        0.00156681        0.00676469        0.00004796
     293         -0.279589        2.000000        0.00000017        0.00000352        0.00000005
     294         -0.279495        2.000000        0.00204108        0.00880390        0.00006887
     295         -0.279217        2.000000        0.00091243        0.00407550        0.00002671
     296         -0.279093        2.000000        0.01219905        0.05370304        0.00037987
     297         -0.278951        2.000000        0.00142069        0.00630495        0.00004315
     298         -0.278592        2.000000        0.00192560        0.00879012        0.00006940
     299         -0.278433        2.000000        0.00007248        0.00032863        0.00000316
     300         -0.278210        2.000000        0.00053453        0.00258870        0.00001715
     301         -0.278135        2.000000        0.00000339        0.00002104        0.00000018
     302         -0.278031        2.000000        0.00016416        0.00077677        0.00000510
     303         -0.277650        2.000000        0.00039905        0.00214438        0.00001456
     304         -0.277312        2.000000        0.00008423        0.00050911        0.00000382
     305         -0.276990        2.000000        0.00132303        0.00716874        0.00004786
     306         -0.276609        2.000000        0.00022187        0.00114123        0.00000786
     307         -0.276405        2.000000        0.00070390        0.00398926        0.00002625