# Projected DOS for list 35 of 3 atoms, at iteration step i = 0, E(Fermi) =    -0.060510 a.u.
#     MO Eigenvalue [a.u.]      Occupation                 s                 p                 d
       1         -0.895259        2.000000        0.00000002        0.00000005        0.00000000
       2         -0.868125        2.000000        0.00000002        0.00000001        0.00000000
       3         -0.864615        2.000000        0.00000001        0.00000002        0.00000000
       4         -0.857993        2.000000        0.00000000        0.00000000        0.00000000
       5         -0.853826        2.000000        0.00000000        0.00000000        0.00000000
       6         -0.850378        2.000000        0.00000296        0.00000718        0.00000003
       7         -0.848222        2.000000        0.00000013        0.00000057        0.00000002
       8         -0.847335        2.000000        0.00000000        0.00000000        0.00000000
       9         -0.842977        2.000000        0.00000012        0.00000013        0.00000000
      10         -0.841504        2.000000        0.00000002        0.00000015        0.00000000
      11         -0.840654        2.000000        0.00000007        0.00000008        0.00000000
      12         -0.839688        2.000000        0.00000002        0.00000006        0.00000000
      13         -0.839172        2.000000        0.00000010        0.00000005        0.00000000
      14         -0.838522        2.000000        0.00000000        0.00000001        0.00000000
      15         -0.837015        2.000000        0.00000012        0.00000023        0.00000001
      16         -0.832753        2.000000        0.00000020        0.00000016        0.00000000
      17         -0.832000        2.000000        0.00000017        0.00000041        0.00000002
      18         -0.831644        2.000000        0.00000036        0.00000028        0.00000001
      19         -0.830027        2.000000        0.00000017        0.00000006        0.00000000
      20         -0.829447        2.000000        0.00000023        0.00000012        0.00000000
      21         -0.828640        2.000000        0.00000038        0.00000009        0.00000000
      22         -0.828147        2.000000        0.00000171        0.00000128        0.00000001
      23         -0.827394        2.000000        0.00000049        0.00000029        0.00000001
      24         -0.826637        2.000000        0.00000330        0.00000407        0.00000003
      25         -0.825864        2.000000        0.00000726        0.00001239        0.00000010
      26         -0.825007        2.000000        0.00000037        0.00000115        0.00000001
      27         -0.824149        2.000000        0.00007172        0.00008478        0.00000336
      28         -0.823003        2.000000        0.00000991        0.00001568        0.00000057
      29         -0.821982        2.000000        0.00003959        0.00003271        0.00000137
      30         -0.820560        2.000000        0.00000624        0.00001245        0.00000041
      31         -0.820223        2.000000        0.00001495        0.00001588        0.00000065
      32         -0.820029        2.000000        0.00000018        0.00000103        0.00000002
      33         -0.819390        2.000000        0.00000069        0.00000412        0.00000007
      34         -0.818664        2.000000        0.00001658        0.00001413        0.00000059
      35         -0.817548        2.000000        0.00021014        0.00020834        0.00000820
      36         -0.816472        2.000000        0.00001100        0.00000678        0.00000026
      37         -0.815444        2.000000        0.00000828        0.00000722        0.00000027
      38         -0.814805        2.000000        0.00000345        0.00000774        0.00000020
      39         -0.814124        2.000000        0.00000542        0.00001263        0.00000038
      40         -0.813968        2.000000        0.00000071        0.00000742        0.00000014
      41         -0.813053        2.000000        0.00000855        0.00000657        0.00000024
      42         -0.812601        2.000000        0.00003523        0.00004511        0.00000142
      43         -0.811948        2.000000        0.00000854        0.00000324        0.00000009
      44         -0.811687        2.000000        0.00000971        0.00000402        0.00000015
      45         -0.810574        2.000000        0.00000320        0.00001773        0.00000029
      46         -0.809310        2.000000        0.00000005        0.00000066        0.00000002
      47         -0.808268        2.000000        0.00008556        0.00003011        0.00000084
      48         -0.807324        2.000000        0.00001857        0.00001837        0.00000071
      49         -0.806602        2.000000        0.00001401        0.00002419        0.00000076
      50         -0.806376        2.000000        0.00000046        0.00001158        0.00000013
      51         -0.806147        2.000000        0.00000122        0.00002104        0.00000043
      52         -0.804835        2.000000        0.00003691        0.00001670        0.00000060
      53         -0.804321        2.000000        0.00010566        0.00003045        0.00000076
      54         -0.803943        2.000000        0.00001564        0.00001521        0.00000051
      55         -0.803401        2.000000        0.00037897        0.00029501        0.00001016
      56         -0.802648        2.000000        0.00000766        0.00001802        0.00000023
      57         -0.801912        2.000000        0.00000147        0.00000641        0.00000017
      58         -0.801342        2.000000        0.00001355        0.00003827        0.00000107
      59         -0.800594        2.000000        0.00002394        0.00001077        0.00000011
      60         -0.799945        2.000000        0.00000349        0.00000240        0.00000003
      61         -0.799254        2.000000        0.00000050        0.00000198        0.00000003
      62         -0.798331        2.000000        0.00000058        0.00000089        0.00000003
      63         -0.797356        2.000000        0.00007292        0.00001644        0.00000022
      64         -0.795713        2.000000        0.00000278        0.00000288        0.00000003
      65         -0.795144        2.000000        0.00005024        0.00003367        0.00000042
      66         -0.794508        2.000000        0.00032362        0.00027658        0.00000308
      67         -0.793501        2.000000        0.00167601        0.00105914        0.00001234
      68         -0.792888        2.000000        0.00004284        0.00004558        0.00000055
      69         -0.792771        2.000000        0.00004315        0.00000904        0.00000014
      70         -0.792166        2.000000        0.00014208        0.00017023        0.00000245
      71         -0.791795        2.000000        0.00002746        0.00002528        0.00000038
      72         -0.790466        2.000000        0.00000513        0.00000330        0.00000004
      73         -0.789691        2.000000        0.00014313        0.00007904        0.00000090
      74         -0.789018        2.000000        0.00000601        0.00000405        0.00000005
      75         -0.788284        2.000000        0.00017053        0.00010422        0.00000126
      76         -0.787044        2.000000        0.00001336        0.00000323        0.00000004
      77         -0.785765        2.000000        0.00206292        0.00069860        0.00000819
      78         -0.783215        2.000000        0.02181884        0.00777714        0.00018574
      79         -0.782853        2.000000        0.00509183        0.00315017        0.00008037
      80         -0.782388        2.000000        0.00132806        0.00046945        0.00001168
      81         -0.781821        2.000000        0.00002812        0.00001486        0.00000022
      82         -0.780108        2.000000        0.00004049        0.00006021        0.00000115
      83         -0.778906        2.000000        0.00151663        0.00043494        0.00000935
      84         -0.778076        2.000000        0.00016116        0.00071762        0.00000588
      85         -0.775317        2.000000        0.00002559        0.00001702        0.00000025
      86         -0.773086        2.000000        0.00141349        0.00088775        0.00001664
      87         -0.772920        2.000000        0.02035025        0.01484732        0.00030678
      88         -0.771409        2.000000        0.00000032        0.00000036        0.00000001
      89         -0.769725        2.000000        0.00207680        0.00114204        0.00002512
      90         -0.769226        2.000000        0.00444603        0.00241742        0.00005319
      91         -0.767566        2.000000        0.00406953        0.00193059        0.00004545
      92         -0.766737        2.000000        0.00017059        0.00004096        0.00000068
      93         -0.755845        2.000000        0.00028148        0.00105919        0.00000845
      94         -0.752538        2.000000        0.00205178        0.00023472        0.00001113
      95         -0.747161        2.000000        0.00112256        0.00066854        0.00000336
      96         -0.736999        2.000000        0.00024490        0.00003166        0.00000083
      97         -0.726419        2.000000        0.00040379        0.00011093        0.00000033
      98         -0.719129        2.000000        0.58495326        0.13504348        0.00102083
      99         -0.696511        2.000000        0.11196422        0.07653395        0.00013031
     100         -0.460315        2.000000        0.00000000        0.00000000        0.00000000
     101         -0.427906        2.000000        0.00000000        0.00000000        0.00000000
     102         -0.424376        2.000000        0.00000000        0.00000000        0.00000000
     103         -0.405781        2.000000        0.00000000        0.00000000        0.00000000
     104         -0.401299        2.000000        0.00000000        0.00000000        0.00000000
     105         -0.398347        2.000000        0.00000000        0.00000000        0.00000000
     106         -0.398267        2.000000        0.00000000        0.00000001        0.00000000
     107         -0.397295        2.000000        0.00000000        0.00000003        0.00000000
     108         -0.395753        2.000000        0.00000000        0.00000002        0.00000000
     109         -0.395158        2.000000        0.00000000        0.00000000        0.00000000
     110         -0.394493        2.000000        0.00000000        0.00000001        0.00000000
     111         -0.394192        2.000000        0.00000000        0.00000001        0.00000000
     112         -0.393919        2.000000        0.00000002        0.00000004        0.00000000
     113         -0.393017        2.000000        0.00000002        0.00000012        0.00000000
     114         -0.391793        2.000000        0.00000003        0.00000008        0.00000000
     115         -0.389280        2.000000        0.00000000        0.00000000        0.00000000
     116         -0.388145        2.000000        0.00000001        0.00000006        0.00000000
     117         -0.387090        2.000000        0.00000000        0.00000000        0.00000000
     118         -0.386138        2.000000        0.00000007        0.00000032        0.00000001
     119         -0.385161        2.000000        0.00000002        0.00000012        0.00000000
     120         -0.384984        2.000000        0.00000000        0.00000000        0.00000000
     121         -0.383823        2.000000        0.00000000        0.00000003        0.00000000
     122         -0.383101        2.000000        0.00000021        0.00000104        0.00000002
     123         -0.383025        2.000000        0.00000001        0.00000007        0.00000000
     124         -0.381208        2.000000        0.00000006        0.00000026        0.00000001
     125         -0.380660        2.000000        0.00000001        0.00000014        0.00000000
     126         -0.380323        2.000000        0.00000003        0.00000010        0.00000001
     127         -0.379623        2.000000        0.00000001        0.00000002        0.00000000
     128         -0.379161        2.000000        0.00000003        0.00000007        0.00000000
     129         -0.378115        2.000000        0.00000035        0.00000107        0.00000004
     130         -0.377757        2.000000        0.00000002        0.00000004        0.00000000
     131         -0.377213        2.000000        0.00000000        0.00000003        0.00000000
     132         -0.376655        2.000000        0.00000004        0.00000014        0.00000000
     133         -0.376089        2.000000        0.00000008        0.00000040        0.00000001
     134         -0.375522        2.000000        0.00000015        0.00000034        0.00000001
     135         -0.373953        2.000000        0.00000003        0.00000008        0.00000000
     136         -0.373564        2.000000        0.00000005        0.00000009        0.00000001
     137         -0.372991        2.000000        0.00000023        0.00000045        0.00000002
     138         -0.372433        2.000000        0.00000008        0.00000036        0.00000001
     139         -0.372037        2.000000        0.00000004        0.00000036        0.00000001
     140         -0.371632        2.000000        0.00000006        0.00000023        0.00000000
     141         -0.371006        2.000000        0.00000007        0.00000056        0.00000002
     142         -0.369840        2.000000        0.00000413        0.00001401        0.00000031
     143         -0.369635        2.000000        0.00000036        0.00000157        0.00000004
     144         -0.369153        2.000000        0.00000001        0.00000002        0.00000000
     145         -0.369131        2.000000        0.00000073        0.00000191        0.00000008
     146         -0.368498        2.000000        0.00000002        0.00000006        0.00000000
     147         -0.367984        2.000000        0.00000005        0.00000024        0.00000001
     148         -0.367257        2.000000        0.00000000        0.00000001        0.00000000
     149         -0.366951        2.000000        0.00000001        0.00000002        0.00000000
     150         -0.366882        2.000000        0.00000014        0.00000035        0.00000001
     151         -0.366558        2.000000        0.00000004        0.00000010        0.00000000
     152         -0.366087        2.000000        0.00000001        0.00000004        0.00000000
     153         -0.365532        2.000000        0.00000041        0.00000079        0.00000003
     154         -0.365292        2.000000        0.00000086        0.00000197        0.00000007
     155         -0.364873        2.000000        0.00000006        0.00000044        0.00000001
     156         -0.364499        2.000000        0.00000029        0.00000050        0.00000002
     157         -0.364385        2.000000        0.00000156        0.00000304        0.00000011
     158         -0.363409        2.000000        0.00000013        0.00000123        0.00000004
     159         -0.362731        2.000000        0.00014547        0.00029927        0.00001128
     160         -0.361690        2.000000        0.00000844        0.00003259        0.00000110
     161         -0.361463        2.000000        0.00005135        0.00011777        0.00000460
     162         -0.360695        2.000000        0.00000123        0.00000258        0.00000010
     163         -0.359909        2.000000        0.00000355        0.00000641        0.00000023
     164         -0.358869        2.000000        0.00000727        0.00006034        0.00000188
     165         -0.358762        2.000000        0.00028561        0.00133268        0.00004041
     166         -0.358424        2.000000        0.00000087        0.00000180        0.00000006
     167         -0.357749        2.000000        0.00000055        0.00000183        0.00000006
     168         -0.357432        2.000000        0.00000022        0.00000079        0.00000002
     169         -0.356226        2.000000        0.00000006        0.00000011        0.00000000
     170         -0.355206        2.000000        0.00000025        0.00000070        0.00000002
     171         -0.354151        2.000000        0.00000042        0.00000130        0.00000004
     172         -0.353675        2.000000        0.00001652        0.00004485        0.00000148
     173         -0.353241        2.000000        0.00000007        0.00000019        0.00000001
     174         -0.352384        2.000000        0.00000028        0.00000100        0.00000001
     175         -0.349281        2.000000        0.00002904        0.00008474        0.00000244
     176         -0.348101        2.000000        0.00004889        0.00015333        0.00000485
     177         -0.347056        2.000000        0.00017850        0.00054463        0.00001707
     178         -0.346421        2.000000        0.00000076        0.00000210        0.00000009
     179         -0.346099        2.000000        0.00003376        0.00006189        0.00000192
     180         -0.344626        2.000000        0.00001208        0.00004664        0.00000135
     181         -0.344227        2.000000        0.00120814        0.00711934        0.00019428
     182         -0.344158        2.000000        0.00000045        0.00000464        0.00000011
     183         -0.343279        2.000000        0.00000547        0.00002665        0.00000073
     184         -0.342186        2.000000        0.00000066        0.00000387        0.00000013
     185         -0.341638        2.000000        0.00000073        0.00000191        0.00000006
     186         -0.341223        2.000000        0.00004593        0.00029578        0.00000831
     187         -0.341051        2.000000        0.00667569        0.04126652        0.00117389
     188         -0.340810        2.000000        0.00000004        0.00000009        0.00000000
     189         -0.340344        2.000000        0.00000147        0.00000456        0.00000013
     190         -0.340103        2.000000        0.00029004        0.00084948        0.00002545
     191         -0.339538        2.000000        0.00001148        0.00005333        0.00000152
     192         -0.338904        2.000000        0.00000062        0.00000392        0.00000011
     193         -0.338737        2.000000        0.00007235        0.00049142        0.00001340
     194         -0.337951        2.000000        0.00001924        0.00006073        0.00000181
     195         -0.337180        2.000000        0.00015111        0.00031513        0.00000942
     196         -0.336960        2.000000        0.00002538        0.00007137        0.00000191
     197         -0.336163        2.000000        0.00004903        0.00033496        0.00000428
     198         -0.335733        2.000000        0.00006213        0.00033045        0.00000664
     199         -0.334956        2.000000        0.00005704        0.00011916        0.00000353
     200         -0.333834        2.000000        0.00364512        0.00769581        0.00022206
     201         -0.331670        2.000000        0.00011075        0.00022829        0.00000665
     202         -0.330715        2.000000        0.00020831        0.00049277        0.00001328
     203         -0.327469        2.000000        0.00446042        0.01034781        0.00028195
     204         -0.326924        2.000000        0.00002388        0.00005529        0.00000148
     205         -0.319799        2.000000        0.00000013        0.00000099        0.00000003
     206         -0.319625        2.000000        0.00039349        0.00346005        0.00012700
     207         -0.318771        2.000000        0.00000361        0.00003054        0.00000084
     208         -0.318487        2.000000        0.00000000        0.00000002        0.00000000
     209         -0.318151        2.000000        0.00000001        0.00000004        0.00000000
     210         -0.317254        2.000000        0.00000000        0.00000000        0.00000000
     211         -0.316615        2.000000        0.00000000        0.00000000        0.00000000
     212         -0.316317        2.000000        0.00000191        0.00000495        0.00000012
     213         -0.315885        2.000000        0.00000000        0.00000001        0.00000000
     214         -0.315512        2.000000        0.00000000        0.00000000        0.00000000
     215         -0.314742        2.000000        0.00000000        0.00000000        0.00000000
     216         -0.314240        2.000000        0.00000000        0.00000000        0.00000000
     217         -0.313093        2.000000        0.00000000        0.00000000        0.00000000
     218         -0.312538        2.000000        0.00000000        0.00000000        0.00000000
     219         -0.312396        2.000000        0.00000000        0.00000001        0.00000000
     220         -0.312037        2.000000        0.00000000        0.00000001        0.00000000
     221         -0.310598        2.000000        0.00000000        0.00000001        0.00000000
     222         -0.310221        2.000000        0.00000002        0.00000006        0.00000000
     223         -0.309408        2.000000        0.00000000        0.00000000        0.00000000
     224         -0.309395        2.000000        0.00000000        0.00000000        0.00000000
     225         -0.309234        2.000000        0.00000000        0.00000000        0.00000000
     226         -0.308381        2.000000        0.00000023        0.00000068        0.00000002
     227         -0.308250        2.000000        0.00000090        0.00000235        0.00000006
     228         -0.308097        2.000000        0.00000000        0.00000001        0.00000000
     229         -0.307179        2.000000        0.00000025        0.00000078        0.00000002
     230         -0.305966        2.000000        0.00000124        0.00000461        0.00000010
     231         -0.305190        2.000000        0.00000478        0.00001819        0.00000062
     232         -0.305170        2.000000        0.00030627        0.00072548        0.00002116
     233         -0.303881        2.000000        0.00000279        0.00000924        0.00000020
     234         -0.303186        2.000000        0.00000002        0.00000004        0.00000000
     235         -0.302644        2.000000        0.00000004        0.00000009        0.00000000
     236         -0.302137        2.000000        0.00000031        0.00000074        0.00000002
     237         -0.301410        2.000000        0.00000003        0.00000007        0.00000000
     238         -0.301270        2.000000        0.00000004        0.00000018        0.00000001
     239         -0.300504        2.000000        0.00000035        0.00000312        0.00000006
     240         -0.300347        2.000000        0.00000010        0.00000086        0.00000002
     241         -0.300010        2.000000        0.00001724        0.00004504        0.00000098
     242         -0.298878        2.000000        0.00000013        0.00000048        0.00000001
     243         -0.298505        2.000000        0.00000007        0.00000025        0.00000000
     244         -0.297847        2.000000        0.00000019        0.00000061        0.00000001
     245         -0.297156        2.000000        0.00000026        0.00000082        0.00000002
     246         -0.297046        2.000000        0.00000000        0.00000001        0.00000000
     247         -0.296671        2.000000        0.00000008        0.00000027        0.00000001
     248         -0.296618        2.000000        0.00000005        0.00000016        0.00000000
     249         -0.295969        2.000000        0.00000137        0.00000429        0.00000009
     250         -0.295348        2.000000        0.00000139        0.00000441        0.00000009
     251         -0.295087        2.000000        0.00000001        0.00000003        0.00000000
     252         -0.294369        2.000000        0.00000003        0.00000010        0.00000000
     253         -0.294183        2.000000        0.00000001        0.00000004        0.00000000
     254         -0.293640        2.000000        0.00000002        0.00000005        0.00000000
     255         -0.293246        2.000000        0.00000000        0.00000000        0.00000000
     256         -0.292577        2.000000        0.00000001        0.00000001        0.00000000
     257         -0.291994        2.000000        0.00000042        0.00000121        0.00000002
     258         -0.291705        2.000000        0.00000005        0.00000012        0.00000000
     259         -0.290928        2.000000        0.00000404        0.00001150        0.00000024
     260         -0.290306        2.000000        0.00001718        0.00004801        0.00000102
     261         -0.289901        2.000000        0.00005119        0.00014080        0.00000302
     262         -0.289451        2.000000        0.00002954        0.00008212        0.00000175
     263         -0.289043        2.000000        0.00001439        0.00003953        0.00000085
     264         -0.288015        2.000000        0.00000952        0.00002588        0.00000057
     265         -0.287861        2.000000        0.00000237        0.00000653        0.00000014
     266         -0.286936        2.000000        0.00000060        0.00000164        0.00000004
     267         -0.286667        2.000000        0.00000072        0.00000196        0.00000004
     268         -0.286302        2.000000        0.00001129        0.00003047        0.00000067
     269         -0.285607        2.000000        0.00000001        0.00000008        0.00000000
     270         -0.285328        2.000000        0.00000063        0.00000178        0.00000004
     271         -0.285085        2.000000        0.00000143        0.00000390        0.00000008
     272         -0.284841        2.000000        0.00000109        0.00000284        0.00000007
     273         -0.284131        2.000000        0.00000505        0.00001356        0.00000031
     274         -0.283572        2.000000        0.00000657        0.00001637        0.00000040
     275         -0.283249        2.000000        0.00000016        0.00000064        0.00000001
     276         -0.283050        2.000000        0.00001060        0.00002936        0.00000064
     277         -0.282957        2.000000        0.00000147        0.00000399        0.00000009
     278         -0.282638        2.000000        0.00001225        0.00003317        0.00000075
     279         -0.282393        2.000000        0.00029572        0.00080783        0.00001797
     280         -0.282190        2.000000        0.00000003        0.00000016        0.00000000
     281         -0.281812        2.000000        0.00000567        0.00001474        0.00000035
     282         -0.281718        2.000000        0.00040514        0.00106541        0.00002474
     283         -0.281529        2.000000        0.00067291        0.00176443        0.00004127
     284         -0.281304        2.000000        0.00150315        0.00393376        0.00009219
     285         -0.281056        2.000000        0.01807811        0.04706232        0.00110739
     286         -0.280948        2.000000        0.00517666        0.01345453        0.00031721
     287         -0.280843        2.000000        0.07810102        0.20278075        0.00478544
     288         -0.280780        2.000000        0.00225303        0.00585063        0.00013785
     289         -0.280282        2.000000        0.00088651        0.00229497        0.00005412
     290         -0.279956        2.000000        0.00009953        0.00025958        0.00000606
     291         -0.279807        2.000000        0.00303036        0.00781165        0.00018533
     292         -0.279686        2.000000        0.03159783        0.08144591        0.00193222
     293         -0.279589        2.000000        0.00379703        0.00976541        0.00023236
     294         -0.279495        2.000000        0.01171185        0.03021175        0.00071532
     295         -0.279217        2.000000        0.00009649        0.00024205        0.00000589
     296         -0.279093        2.000000        0.00465215        0.01177391        0.00028540
     297         -0.278951        2.000000        0.00017870        0.00044828        0.00001096
     298         -0.278592        2.000000        0.00114306        0.00296719        0.00006953
     299         -0.278433        2.000000        0.00014369        0.00036528        0.00000884
     300         -0.278210        2.000000        0.00043859        0.00113264        0.00002687
     301         -0.278135        2.000000        0.00000087        0.00000223        0.00000005
     302         -0.278031        2.000000        0.00000838        0.00002230        0.00000051
     303         -0.277650        2.000000        0.00081276        0.00208441        0.00004991
     304         -0.277312        2.000000        0.00053292        0.00135416        0.00003294
     305         -0.276990        2.000000        0.00294934        0.00751694        0.00018209
     306         -0.276609        2.000000        0.00019565        0.00050006        0.00001210
     307         -0.276405        2.000000        0.00364968        0.00921997        0.00022674