# Projected DOS for list 29 of 3 atoms, at iteration step i = 0, E(Fermi) =    -0.060510 a.u.
#     MO Eigenvalue [a.u.]      Occupation                 s                 p                 d
       1         -0.895259        2.000000        0.00000000        0.00000000        0.00000000
       2         -0.868125        2.000000        0.00000000        0.00000000        0.00000000
       3         -0.864615        2.000000        0.00000002        0.00000001        0.00000000
       4         -0.857993        2.000000        0.00005583        0.00005460        0.00000015
       5         -0.853826        2.000000        0.00431777        0.00122857        0.00000753
       6         -0.850378        2.000000        0.00000157        0.00000040        0.00000000
       7         -0.848222        2.000000        0.00001426        0.00000336        0.00000002
       8         -0.847335        2.000000        0.00078401        0.00019938        0.00000095
       9         -0.842977        2.000000        0.00001979        0.00000394        0.00000003
      10         -0.841504        2.000000        0.01171484        0.00241681        0.00001846
      11         -0.840654        2.000000        0.02096486        0.00479835        0.00003182
      12         -0.839688        2.000000        0.05362809        0.01240974        0.00007815
      13         -0.839172        2.000000        0.02929013        0.00647067        0.00004776
      14         -0.838522        2.000000        0.56275037        0.13875013        0.00087370
      15         -0.837015        2.000000        0.00314077        0.00058227        0.00000903
      16         -0.832753        2.000000        0.00174744        0.00067348        0.00000227
      17         -0.832000        2.000000        0.00181858        0.00067403        0.00000231
      18         -0.831644        2.000000        0.00027263        0.00016457        0.00000012
      19         -0.830027        2.000000        0.00006838        0.00002572        0.00000017
      20         -0.829447        2.000000        0.00251000        0.00119297        0.00000303
      21         -0.828640        2.000000        0.01017289        0.00473015        0.00001129
      22         -0.828147        2.000000        0.00050050        0.00015349        0.00000252
      23         -0.827394        2.000000        0.00093208        0.00051354        0.00000102
      24         -0.826637        2.000000        0.00060391        0.00075364        0.00000062
      25         -0.825864        2.000000        0.00021671        0.00008752        0.00000235
      26         -0.825007        2.000000        0.00141387        0.00071480        0.00000172
      27         -0.824149        2.000000        0.00012347        0.00006336        0.00000013
      28         -0.823003        2.000000        0.00034367        0.00023441        0.00000073
      29         -0.821982        2.000000        0.00025129        0.00021140        0.00000256
      30         -0.820560        2.000000        0.00011877        0.00023968        0.00000020
      31         -0.820223        2.000000        0.00006235        0.00023081        0.00000062
      32         -0.820029        2.000000        0.00018523        0.00007330        0.00000082
      33         -0.819390        2.000000        0.00017872        0.00021194        0.00000037
      34         -0.818664        2.000000        0.00051052        0.00012214        0.00000497
      35         -0.817548        2.000000        0.00002157        0.00007744        0.00000220
      36         -0.816472        2.000000        0.00090481        0.00093237        0.00003997
      37         -0.815444        2.000000        0.00298036        0.00173733        0.00000615
      38         -0.814805        2.000000        0.00076717        0.00045001        0.00000166
      39         -0.814124        2.000000        0.00075878        0.00048969        0.00000626
      40         -0.813968        2.000000        0.00028841        0.00013649        0.00000415
      41         -0.813053        2.000000        0.02187164        0.00843681        0.00033600
      42         -0.812601        2.000000        0.00488931        0.00123753        0.00004945
      43         -0.811948        2.000000        0.00318774        0.00078338        0.00003319
      44         -0.811687        2.000000        0.00098855        0.00023319        0.00001549
      45         -0.810574        2.000000        0.00061758        0.00018185        0.00000761
      46         -0.809310        2.000000        0.00004473        0.00001579        0.00000047
      47         -0.808268        2.000000        0.00004247        0.00001884        0.00000119
      48         -0.807324        2.000000        0.00002644        0.00003657        0.00000008
      49         -0.806602        2.000000        0.00076967        0.00023518        0.00001006
      50         -0.806376        2.000000        0.00029034        0.00007166        0.00000609
      51         -0.806147        2.000000        0.00011805        0.00010317        0.00000015
      52         -0.804835        2.000000        0.00000618        0.00001451        0.00000002
      53         -0.804321        2.000000        0.00287795        0.00114062        0.00003409
      54         -0.803943        2.000000        0.00024994        0.00007521        0.00000459
      55         -0.803401        2.000000        0.00017316        0.00011180        0.00000167
      56         -0.802648        2.000000        0.00054484        0.00067042        0.00000061
      57         -0.801912        2.000000        0.00012366        0.00010692        0.00000632
      58         -0.801342        2.000000        0.00023862        0.00007940        0.00000524
      59         -0.800594        2.000000        0.00001808        0.00001255        0.00000018
      60         -0.799945        2.000000        0.00000520        0.00000695        0.00000006
      61         -0.799254        2.000000        0.00001480        0.00000961        0.00000049
      62         -0.798331        2.000000        0.00024322        0.00008629        0.00000357
      63         -0.797356        2.000000        0.00000049        0.00000342        0.00000011
      64         -0.795713        2.000000        0.00000100        0.00000477        0.00000004
      65         -0.795144        2.000000        0.00001664        0.00000782        0.00000066
      66         -0.794508        2.000000        0.00009449        0.00005182        0.00000405
      67         -0.793501        2.000000        0.00005938        0.00002658        0.00000207
      68         -0.792888        2.000000        0.00002498        0.00006511        0.00000043
      69         -0.792771        2.000000        0.00003500        0.00004816        0.00000232
      70         -0.792166        2.000000        0.00100328        0.00031483        0.00002697
      71         -0.791795        2.000000        0.00001066        0.00006608        0.00000161
      72         -0.790466        2.000000        0.00108774        0.00050244        0.00004474
      73         -0.789691        2.000000        0.00001094        0.00000395        0.00000025
      74         -0.789018        2.000000        0.00010418        0.00003679        0.00000224
      75         -0.788284        2.000000        0.00001407        0.00000644        0.00000035
      76         -0.787044        2.000000        0.00396822        0.00185602        0.00009779
      77         -0.785765        2.000000        0.00003792        0.00001734        0.00000064
      78         -0.783215        2.000000        0.00000090        0.00000052        0.00000001
      79         -0.782853        2.000000        0.00000225        0.00000235        0.00000011
      80         -0.782388        2.000000        0.00000474        0.00000149        0.00000008
      81         -0.781821        2.000000        0.00000464        0.00000371        0.00000022
      82         -0.780108        2.000000        0.00022124        0.00025972        0.00001524
      83         -0.778906        2.000000        0.00000002        0.00000005        0.00000000
      84         -0.778076        2.000000        0.00000054        0.00000038        0.00000002
      85         -0.775317        2.000000        0.00165807        0.00106697        0.00006756
      86         -0.773086        2.000000        0.00004798        0.00002978        0.00000196
      87         -0.772920        2.000000        0.00000351        0.00000241        0.00000016
      88         -0.771409        2.000000        0.00000006        0.00000030        0.00000001
      89         -0.769725        2.000000        0.00000067        0.00000291        0.00000005
      90         -0.769226        2.000000        0.00000131        0.00000115        0.00000007
      91         -0.767566        2.000000        0.00000170        0.00000252        0.00000012
      92         -0.766737        2.000000        0.00000004        0.00000006        0.00000000
      93         -0.755845        2.000000        0.00000002        0.00000003        0.00000000
      94         -0.752538        2.000000        0.00000006        0.00000010        0.00000000
      95         -0.747161        2.000000        0.00000000        0.00000000        0.00000000
      96         -0.736999        2.000000        0.00000000        0.00000000        0.00000000
      97         -0.726419        2.000000        0.00000000        0.00000000        0.00000000
      98         -0.719129        2.000000        0.00000000        0.00000000        0.00000000
      99         -0.696511        2.000000        0.00000000        0.00000000        0.00000000
     100         -0.460315        2.000000        0.00000000        0.00000000        0.00000000
     101         -0.427906        2.000000        0.00000000        0.00000000        0.00000000
     102         -0.424376        2.000000        0.00000000        0.00000000        0.00000000
     103         -0.405781        2.000000        0.00000058        0.00000687        0.00000002
     104         -0.401299        2.000000        0.00112058        0.00325609        0.00007703
     105         -0.398347        2.000000        0.00002702        0.00006938        0.00000101
     106         -0.398267        2.000000        0.00022677        0.00064482        0.00001414
     107         -0.397295        2.000000        0.00001339        0.00003775        0.00000085
     108         -0.395753        2.000000        0.00041101        0.00118085        0.00002844
     109         -0.395158        2.000000        0.00000744        0.00003251        0.00000055
     110         -0.394493        2.000000        0.00000872        0.00002613        0.00000055
     111         -0.394192        2.000000        0.00011062        0.00031543        0.00000735
     112         -0.393919        2.000000        0.00000072        0.00000439        0.00000026
     113         -0.393017        2.000000        0.00002911        0.00009147        0.00000242
     114         -0.391793        2.000000        0.00000364        0.00001466        0.00000032
     115         -0.389280        2.000000        0.18312874        0.50826726        0.01171453
     116         -0.388145        2.000000        0.00038945        0.00107656        0.00002505
     117         -0.387090        2.000000        0.02631105        0.07316401        0.00163992
     118         -0.386138        2.000000        0.00000353        0.00002298        0.00000022
     119         -0.385161        2.000000        0.00110966        0.00310595        0.00006938
     120         -0.384984        2.000000        0.00081887        0.00230811        0.00005048
     121         -0.383823        2.000000        0.00193408        0.00538958        0.00011839
     122         -0.383101        2.000000        0.00006196        0.00017199        0.00000405
     123         -0.383025        2.000000        0.00028911        0.00082880        0.00001737
     124         -0.381208        2.000000        0.00081791        0.00226680        0.00005047
     125         -0.380660        2.000000        0.00158593        0.00437084        0.00010255
     126         -0.380323        2.000000        0.00231034        0.00656155        0.00016262
     127         -0.379623        2.000000        0.00036999        0.00100318        0.00002357
     128         -0.379161        2.000000        0.00064192        0.00185036        0.00003342
     129         -0.378115        2.000000        0.00012925        0.00072116        0.00002111
     130         -0.377757        2.000000        0.00113688        0.00316193        0.00006470
     131         -0.377213        2.000000        0.00030448        0.00085776        0.00001533
     132         -0.376655        2.000000        0.00033707        0.00127434        0.00002213
     133         -0.376089        2.000000        0.00107194        0.00306167        0.00006226
     134         -0.375522        2.000000        0.00064369        0.00242977        0.00004612
     135         -0.373953        2.000000        0.00157488        0.00597908        0.00010948
     136         -0.373564        2.000000        0.00114200        0.00442398        0.00010561
     137         -0.372991        2.000000        0.00742374        0.02182940        0.00055072
     138         -0.372433        2.000000        0.00126881        0.00381740        0.00010364
     139         -0.372037        2.000000        0.00002667        0.00015176        0.00000209
     140         -0.371632        2.000000        0.00116941        0.00313458        0.00006933
     141         -0.371006        2.000000        0.00005825        0.00017815        0.00000305
     142         -0.369840        2.000000        0.00014478        0.00048811        0.00001317
     143         -0.369635        2.000000        0.00001465        0.00004967        0.00000045
     144         -0.369153        2.000000        0.00003000        0.00015870        0.00000486
     145         -0.369131        2.000000        0.00566073        0.01902436        0.00055803
     146         -0.368498        2.000000        0.00018107        0.00066405        0.00000912
     147         -0.367984        2.000000        0.00036453        0.00089662        0.00002614
     148         -0.367257        2.000000        0.00055282        0.00156895        0.00003116
     149         -0.366951        2.000000        0.00000432        0.00003909        0.00000095
     150         -0.366882        2.000000        0.00015459        0.00034014        0.00001223
     151         -0.366558        2.000000        0.00000436        0.00002198        0.00000084
     152         -0.366087        2.000000        0.00046229        0.00121516        0.00002347
     153         -0.365532        2.000000        0.00037566        0.00110058        0.00001587
     154         -0.365292        2.000000        0.00391528        0.01122120        0.00023174
     155         -0.364873        2.000000        0.00009700        0.00033911        0.00001156
     156         -0.364499        2.000000        0.00010442        0.00034737        0.00000561
     157         -0.364385        2.000000        0.00016246        0.00067430        0.00002027
     158         -0.363409        2.000000        0.00108360        0.00302260        0.00006102
     159         -0.362731        2.000000        0.00000490        0.00001776        0.00000059
     160         -0.361690        2.000000        0.00000404        0.00001143        0.00000026
     161         -0.361463        2.000000        0.00000377        0.00003375        0.00000103
     162         -0.360695        2.000000        0.00044281        0.00125300        0.00002623
     163         -0.359909        2.000000        0.00000128        0.00001990        0.00000045
     164         -0.358869        2.000000        0.00007019        0.00049150        0.00000688
     165         -0.358762        2.000000        0.00000497        0.00003257        0.00000050
     166         -0.358424        2.000000        0.00011715        0.00049782        0.00000873
     167         -0.357749        2.000000        0.00015173        0.00045429        0.00002002
     168         -0.357432        2.000000        0.00004949        0.00034043        0.00000601
     169         -0.356226        2.000000        0.00128893        0.00396302        0.00008320
     170         -0.355206        2.000000        0.00010290        0.00054309        0.00001044
     171         -0.354151        2.000000        0.00282840        0.02606920        0.00066096
     172         -0.353675        2.000000        0.00012444        0.00128236        0.00002740
     173         -0.353241        2.000000        0.00006923        0.00057241        0.00001223
     174         -0.352384        2.000000        0.00000761        0.00002776        0.00000068
     175         -0.349281        2.000000        0.00006241        0.00058822        0.00001574
     176         -0.348101        2.000000        0.00003713        0.00027842        0.00000838
     177         -0.347056        2.000000        0.00001010        0.00002907        0.00000064
     178         -0.346421        2.000000        0.00014338        0.00170847        0.00003629
     179         -0.346099        2.000000        0.00001008        0.00003000        0.00000102
     180         -0.344626        2.000000        0.00002061        0.00009702        0.00000226
     181         -0.344227        2.000000        0.00000073        0.00000132        0.00000006
     182         -0.344158        2.000000        0.00000238        0.00002623        0.00000015
     183         -0.343279        2.000000        0.00013689        0.00040446        0.00000146
     184         -0.342186        2.000000        0.00003186        0.00014058        0.00000378
     185         -0.341638        2.000000        0.00000872        0.00005438        0.00000042
     186         -0.341223        2.000000        0.00008951        0.00086101        0.00001440
     187         -0.341051        2.000000        0.00000134        0.00000717        0.00000018
     188         -0.340810        2.000000        0.00003064        0.00031944        0.00000440
     189         -0.340344        2.000000        0.00003492        0.00013703        0.00000071
     190         -0.340103        2.000000        0.00000251        0.00000928        0.00000009
     191         -0.339538        2.000000        0.00009102        0.00048749        0.00000361
     192         -0.338904        2.000000        0.00002957        0.00009839        0.00000056
     193         -0.338737        2.000000        0.00001997        0.00014453        0.00000333
     194         -0.337951        2.000000        0.00007775        0.00052914        0.00002043
     195         -0.337180        2.000000        0.00000472        0.00003096        0.00000134
     196         -0.336960        2.000000        0.00002806        0.00014650        0.00000713
     197         -0.336163        2.000000        0.00006735        0.00064207        0.00000973
     198         -0.335733        2.000000        0.00005737        0.00053249        0.00000846
     199         -0.334956        2.000000        0.00000258        0.00001248        0.00000029
     200         -0.333834        2.000000        0.00000102        0.00001303        0.00000021
     201         -0.331670        2.000000        0.00000214        0.00001485        0.00000037
     202         -0.330715        2.000000        0.00000100        0.00000827        0.00000014
     203         -0.327469        2.000000        0.00000055        0.00000856        0.00000012
     204         -0.326924        2.000000        0.00000030        0.00000124        0.00000003
     205         -0.319799        2.000000        0.00004267        0.00024097        0.00000311
     206         -0.319625        2.000000        0.00000001        0.00000018        0.00000000
     207         -0.318771        2.000000        0.00000037        0.00000175        0.00000003
     208         -0.318487        2.000000        0.00000155        0.00000608        0.00000006
     209         -0.318151        2.000000        0.00031101        0.00143146        0.00000739
     210         -0.317254        2.000000        0.00001132        0.00006677        0.00000048
     211         -0.316615        2.000000        0.00002032        0.00012031        0.00000151
     212         -0.316317        2.000000        0.00000004        0.00000018        0.00000000
     213         -0.315885        2.000000        0.00024682        0.00115644        0.00000801
     214         -0.315512        2.000000        0.00027971        0.00132387        0.00000794
     215         -0.314742        2.000000        0.00043200        0.00215546        0.00001548
     216         -0.314240        2.000000        0.00001391        0.00007839        0.00000030
     217         -0.313093        2.000000        0.00006624        0.00039129        0.00000305
     218         -0.312538        2.000000        0.00011221        0.00040551        0.00000357
     219         -0.312396        2.000000        0.00038023        0.00173518        0.00001128
     220         -0.312037        2.000000        0.00002147        0.00006917        0.00000051
     221         -0.310598        2.000000        0.00008414        0.00050531        0.00000648
     222         -0.310221        2.000000        0.00004185        0.00011442        0.00000218
     223         -0.309408        2.000000        0.00001686        0.00008981        0.00000065
     224         -0.309395        2.000000        0.00015091        0.00076524        0.00000684
     225         -0.309234        2.000000        0.00010561        0.00039375        0.00000344
     226         -0.308381        2.000000        0.00007469        0.00060538        0.00000434
     227         -0.308250        2.000000        0.00000275        0.00003913        0.00000035
     228         -0.308097        2.000000        0.00007294        0.00059735        0.00000555
     229         -0.307179        2.000000        0.00022960        0.00170926        0.00001886
     230         -0.305966        2.000000        0.00126597        0.00396644        0.00003708
     231         -0.305190        2.000000        0.00013053        0.00048583        0.00000294
     232         -0.305170        2.000000        0.00003311        0.00012676        0.00000074
     233         -0.303881        2.000000        0.00000693        0.00003100        0.00000010
     234         -0.303186        2.000000        0.00000748        0.00004223        0.00000012
     235         -0.302644        2.000000        0.00001396        0.00005959        0.00000058
     236         -0.302137        2.000000        0.00008400        0.00046395        0.00000217
     237         -0.301410        2.000000        0.00003812        0.00014701        0.00000020
     238         -0.301270        2.000000        0.00001532        0.00012191        0.00000072
     239         -0.300504        2.000000        0.00005873        0.00029057        0.00000142
     240         -0.300347        2.000000        0.00002893        0.00021476        0.00000076
     241         -0.300010        2.000000        0.00000014        0.00000041        0.00000001
     242         -0.298878        2.000000        0.00001398        0.00006172        0.00000090
     243         -0.298505        2.000000        0.00003102        0.00020856        0.00000249
     244         -0.297847        2.000000        0.00001841        0.00012874        0.00000084
     245         -0.297156        2.000000        0.00004100        0.00030998        0.00000307
     246         -0.297046        2.000000        0.00011723        0.00081000        0.00000627
     247         -0.296671        2.000000        0.00001770        0.00010724        0.00000147
     248         -0.296618        2.000000        0.00000501        0.00005534        0.00000034
     249         -0.295969        2.000000        0.00011586        0.00059327        0.00000301
     250         -0.295348        2.000000        0.00005044        0.00017761        0.00000068
     251         -0.295087        2.000000        0.00001082        0.00002694        0.00000035
     252         -0.294369        2.000000        0.00004688        0.00013474        0.00000044
     253         -0.294183        2.000000        0.00002065        0.00015995        0.00000119
     254         -0.293640        2.000000        0.00004278        0.00028833        0.00000232
     255         -0.293246        2.000000        0.00002394        0.00004672        0.00000027
     256         -0.292577        2.000000        0.00000251        0.00003267        0.00000017
     257         -0.291994        2.000000        0.00011986        0.00095533        0.00000568
     258         -0.291705        2.000000        0.00001046        0.00009580        0.00000101
     259         -0.290928        2.000000        0.00003463        0.00022850        0.00000230
     260         -0.290306        2.000000        0.00001560        0.00012145        0.00000013
     261         -0.289901        2.000000        0.00003122        0.00039911        0.00000144
     262         -0.289451        2.000000        0.00001036        0.00014225        0.00000023
     263         -0.289043        2.000000        0.00022987        0.00145051        0.00000715
     264         -0.288015        2.000000        0.00007821        0.00027214        0.00000187
     265         -0.287861        2.000000        0.00046061        0.00187153        0.00000886
     266         -0.286936        2.000000        0.00012242        0.00074912        0.00000398
     267         -0.286667        2.000000        0.00001593        0.00008678        0.00000070
     268         -0.286302        2.000000        0.00003277        0.00009017        0.00000091
     269         -0.285607        2.000000        0.00000818        0.00007097        0.00000040
     270         -0.285328        2.000000        0.00002830        0.00024195        0.00000168
     271         -0.285085        2.000000        0.00003541        0.00021895        0.00000050
     272         -0.284841        2.000000        0.00000130        0.00003021        0.00000033
     273         -0.284131        2.000000        0.00007408        0.00054590        0.00000399
     274         -0.283572        2.000000        0.00004637        0.00060194        0.00000323
     275         -0.283249        2.000000        0.00001170        0.00009899        0.00000025
     276         -0.283050        2.000000        0.00001775        0.00014835        0.00000032
     277         -0.282957        2.000000        0.00002275        0.00012067        0.00000041
     278         -0.282638        2.000000        0.00002290        0.00012204        0.00000077
     279         -0.282393        2.000000        0.00027731        0.00197565        0.00001556
     280         -0.282190        2.000000        0.00000865        0.00024014        0.00000090
     281         -0.281812        2.000000        0.00003798        0.00024071        0.00000172
     282         -0.281718        2.000000        0.00025546        0.00170237        0.00001287
     283         -0.281529        2.000000        0.00005461        0.00038176        0.00000287
     284         -0.281304        2.000000        0.00004712        0.00027917        0.00000149
     285         -0.281056        2.000000        0.00002823        0.00020838        0.00000113
     286         -0.280948        2.000000        0.00005448        0.00044850        0.00000197
     287         -0.280843        2.000000        0.00011208        0.00073925        0.00000654
     288         -0.280780        2.000000        0.00004627        0.00028178        0.00000179
     289         -0.280282        2.000000        0.00013475        0.00091558        0.00000728
     290         -0.279956        2.000000        0.00023152        0.00148433        0.00001112
     291         -0.279807        2.000000        0.00000354        0.00004374        0.00000021
     292         -0.279686        2.000000        0.00018534        0.00161910        0.00000687
     293         -0.279589        2.000000        0.00003450        0.00021796        0.00000191
     294         -0.279495        2.000000        0.00037947        0.00237857        0.00002132
     295         -0.279217        2.000000        0.00008555        0.00087106        0.00000435
     296         -0.279093        2.000000        0.00007098        0.00178628        0.00001476
     297         -0.278951        2.000000        0.00012642        0.00114881        0.00000338
     298         -0.278592        2.000000        0.00165206        0.01045062        0.00008532
     299         -0.278433        2.000000        0.00032906        0.00202769        0.00001520
     300         -0.278210        2.000000        0.00002741        0.00030930        0.00000209
     301         -0.278135        2.000000        0.00006686        0.00042575        0.00000266
     302         -0.278031        2.000000        0.00001806        0.00016140        0.00000111
     303         -0.277650        2.000000        0.00002370        0.00043076        0.00000275
     304         -0.277312        2.000000        0.00022366        0.00172893        0.00001010
     305         -0.276990        2.000000        0.00003613        0.00117150        0.00000240
     306         -0.276609        2.000000        0.00003786        0.00025280        0.00000240
     307         -0.276405        2.000000        0.00031063        0.00212080        0.00000385