# Projected DOS for list 99 of 3 atoms, at iteration step i = 0, E(Fermi) =    -0.060510 a.u.
#     MO Eigenvalue [a.u.]      Occupation                 s                 p                 d
       1         -0.895259        2.000000        0.00000000        0.00000000        0.00000000
       2         -0.868125        2.000000        0.00000007        0.00000002        0.00000000
       3         -0.864615        2.000000        0.00000048        0.00000009        0.00000000
       4         -0.857993        2.000000        0.00006679        0.00001152        0.00000010
       5         -0.853826        2.000000        0.53474714        0.12170633        0.00052434
       6         -0.850378        2.000000        0.00025773        0.00006612        0.00000028
       7         -0.848222        2.000000        0.00163779        0.00044551        0.00000182
       8         -0.847335        2.000000        0.02662373        0.00760107        0.00003449
       9         -0.842977        2.000000        0.00009500        0.00002572        0.00000014
      10         -0.841504        2.000000        0.01285821        0.00357598        0.00002401
      11         -0.840654        2.000000        0.00397775        0.00109080        0.00000736
      12         -0.839688        2.000000        0.00104612        0.00150490        0.00001704
      13         -0.839172        2.000000        0.00238108        0.00392352        0.00006787
      14         -0.838522        2.000000        0.00262433        0.00234281        0.00001865
      15         -0.837015        2.000000        0.07002349        0.01857115        0.00013663
      16         -0.832753        2.000000        0.00094037        0.00041483        0.00001611
      17         -0.832000        2.000000        0.00010312        0.00052881        0.00000517
      18         -0.831644        2.000000        0.00120845        0.00077619        0.00001217
      19         -0.830027        2.000000        0.00013584        0.00005022        0.00000138
      20         -0.829447        2.000000        0.00080386        0.00053694        0.00001606
      21         -0.828640        2.000000        0.00035528        0.00023914        0.00001655
      22         -0.828147        2.000000        0.00016389        0.00010136        0.00000408
      23         -0.827394        2.000000        0.00023568        0.00011445        0.00000200
      24         -0.826637        2.000000        0.00091666        0.00048633        0.00000881
      25         -0.825864        2.000000        0.00027730        0.00024046        0.00000474
      26         -0.825007        2.000000        0.00040666        0.00020259        0.00000420
      27         -0.824149        2.000000        0.00036562        0.00055306        0.00000554
      28         -0.823003        2.000000        0.00002757        0.00017099        0.00000098
      29         -0.821982        2.000000        0.00631508        0.00168394        0.00006160
      30         -0.820560        2.000000        0.00014469        0.00044941        0.00000538
      31         -0.820223        2.000000        0.00234054        0.00105825        0.00001010
      32         -0.820029        2.000000        0.00018605        0.00010263        0.00000051
      33         -0.819390        2.000000        0.00011732        0.00037765        0.00000140
      34         -0.818664        2.000000        0.00191539        0.00089889        0.00002679
      35         -0.817548        2.000000        0.00009178        0.00015504        0.00000103
      36         -0.816472        2.000000        0.00337750        0.00211485        0.00009385
      37         -0.815444        2.000000        0.00318654        0.00096217        0.00005647
      38         -0.814805        2.000000        0.00000842        0.00004258        0.00000006
      39         -0.814124        2.000000        0.00046014        0.00092080        0.00000754
      40         -0.813968        2.000000        0.00008663        0.00041318        0.00000195
      41         -0.813053        2.000000        0.02406424        0.02421605        0.00007890
      42         -0.812601        2.000000        0.00095030        0.00153177        0.00000474
      43         -0.811948        2.000000        0.00115615        0.00092105        0.00000231
      44         -0.811687        2.000000        0.00004198        0.00024111        0.00000134
      45         -0.810574        2.000000        0.00004102        0.00002564        0.00000012
      46         -0.809310        2.000000        0.00000004        0.00000058        0.00000000
      47         -0.808268        2.000000        0.00006851        0.00013521        0.00000037
      48         -0.807324        2.000000        0.00003644        0.00002108        0.00000018
      49         -0.806602        2.000000        0.00097664        0.00114955        0.00000347
      50         -0.806376        2.000000        0.00015068        0.00027549        0.00000134
      51         -0.806147        2.000000        0.00023602        0.00018534        0.00000202
      52         -0.804835        2.000000        0.00010652        0.00009735        0.00000123
      53         -0.804321        2.000000        0.00052823        0.00035472        0.00000331
      54         -0.803943        2.000000        0.00002848        0.00032345        0.00000546
      55         -0.803401        2.000000        0.00000447        0.00007103        0.00000082
      56         -0.802648        2.000000        0.00020275        0.00014468        0.00000335
      57         -0.801912        2.000000        0.00005461        0.00018587        0.00000203
      58         -0.801342        2.000000        0.00018670        0.00015151        0.00000205
      59         -0.800594        2.000000        0.00028223        0.00018693        0.00000146
      60         -0.799945        2.000000        0.00000164        0.00000829        0.00000008
      61         -0.799254        2.000000        0.00006322        0.00003310        0.00000107
      62         -0.798331        2.000000        0.00019492        0.00016683        0.00000086
      63         -0.797356        2.000000        0.00001469        0.00001203        0.00000016
      64         -0.795713        2.000000        0.00148370        0.00082417        0.00002065
      65         -0.795144        2.000000        0.00010256        0.00003527        0.00000187
      66         -0.794508        2.000000        0.00028966        0.00012986        0.00000439
      67         -0.793501        2.000000        0.00000676        0.00000704        0.00000006
      68         -0.792888        2.000000        0.00057275        0.00021708        0.00000750
      69         -0.792771        2.000000        0.00093515        0.00039089        0.00002939
      70         -0.792166        2.000000        0.00296323        0.00110064        0.00007634
      71         -0.791795        2.000000        0.02209022        0.00856315        0.00060933
      72         -0.790466        2.000000        0.00000229        0.00003705        0.00000024
      73         -0.789691        2.000000        0.00002313        0.00001060        0.00000086
      74         -0.789018        2.000000        0.00038559        0.00023316        0.00001772
      75         -0.788284        2.000000        0.00001226        0.00000341        0.00000006
      76         -0.787044        2.000000        0.00006069        0.00005972        0.00000389
      77         -0.785765        2.000000        0.00000101        0.00000163        0.00000001
      78         -0.783215        2.000000        0.00000013        0.00000016        0.00000001
      79         -0.782853        2.000000        0.00000040        0.00000022        0.00000000
      80         -0.782388        2.000000        0.00000059        0.00000111        0.00000003
      81         -0.781821        2.000000        0.00000012        0.00000014        0.00000000
      82         -0.780108        2.000000        0.00005331        0.00003242        0.00000106
      83         -0.778906        2.000000        0.00000004        0.00000002        0.00000000
      84         -0.778076        2.000000        0.00000005        0.00000006        0.00000000
      85         -0.775317        2.000000        0.00001297        0.00000624        0.00000057
      86         -0.773086        2.000000        0.00000716        0.00000393        0.00000027
      87         -0.772920        2.000000        0.00000037        0.00000023        0.00000002
      88         -0.771409        2.000000        0.00000007        0.00000030        0.00000000
      89         -0.769725        2.000000        0.00000010        0.00000030        0.00000000
      90         -0.769226        2.000000        0.00000000        0.00000001        0.00000000
      91         -0.767566        2.000000        0.00000001        0.00000003        0.00000000
      92         -0.766737        2.000000        0.00000003        0.00000003        0.00000000
      93         -0.755845        2.000000        0.00000000        0.00000000        0.00000000
      94         -0.752538        2.000000        0.00000000        0.00000000        0.00000000
      95         -0.747161        2.000000        0.00000000        0.00000000        0.00000000
      96         -0.736999        2.000000        0.00000000        0.00000000        0.00000000
      97         -0.726419        2.000000        0.00000000        0.00000000        0.00000000
      98         -0.719129        2.000000        0.00000000        0.00000000        0.00000000
      99         -0.696511        2.000000        0.00000000        0.00000000        0.00000000
     100         -0.460315        2.000000        0.00000000        0.00000000        0.00000000
     101         -0.427906        2.000000        0.00000001        0.00000003        0.00000000
     102         -0.424376        2.000000        0.00000000        0.00000000        0.00000000
     103         -0.405781        2.000000        0.00003544        0.00010800        0.00000211
     104         -0.401299        2.000000        0.10049147        0.32350914        0.00530903
     105         -0.398347        2.000000        0.00016026        0.00076585        0.00001671
     106         -0.398267        2.000000        0.02039267        0.06058708        0.00129000
     107         -0.397295        2.000000        0.00071326        0.00212073        0.00004592
     108         -0.395753        2.000000        0.02774254        0.08424018        0.00175830
     109         -0.395158        2.000000        0.00277488        0.00907127        0.00017027
     110         -0.394493        2.000000        0.00087292        0.00251099        0.00005864
     111         -0.394192        2.000000        0.00244014        0.00968922        0.00017024
     112         -0.393919        2.000000        0.00098312        0.00375746        0.00006760
     113         -0.393017        2.000000        0.00083247        0.00281164        0.00005359
     114         -0.391793        2.000000        0.00004711        0.00026159        0.00000444
     115         -0.389280        2.000000        0.00266460        0.01105067        0.00023769
     116         -0.388145        2.000000        0.00000297        0.00001407        0.00000037
     117         -0.387090        2.000000        0.00665036        0.04216934        0.00066908
     118         -0.386138        2.000000        0.00012338        0.00040784        0.00001119
     119         -0.385161        2.000000        0.00002894        0.00010872        0.00000323
     120         -0.384984        2.000000        0.00042428        0.00168222        0.00003432
     121         -0.383823        2.000000        0.02126850        0.06953900        0.00190877
     122         -0.383101        2.000000        0.00035322        0.00107412        0.00002350
     123         -0.383025        2.000000        0.00029872        0.00064109        0.00001043
     124         -0.381208        2.000000        0.00012888        0.00023197        0.00001335
     125         -0.380660        2.000000        0.00037722        0.00115438        0.00001780
     126         -0.380323        2.000000        0.00098653        0.00526880        0.00008575
     127         -0.379623        2.000000        0.00002316        0.00006286        0.00000123
     128         -0.379161        2.000000        0.00791718        0.02780619        0.00077844
     129         -0.378115        2.000000        0.00031679        0.00198777        0.00003919
     130         -0.377757        2.000000        0.00420348        0.01875872        0.00045058
     131         -0.377213        2.000000        0.00432812        0.02727863        0.00055356
     132         -0.376655        2.000000        0.00067318        0.00429746        0.00007536
     133         -0.376089        2.000000        0.00164276        0.00481638        0.00014440
     134         -0.375522        2.000000        0.00027140        0.00243381        0.00005109
     135         -0.373953        2.000000        0.00038387        0.00242999        0.00005891
     136         -0.373564        2.000000        0.00009854        0.00081240        0.00000445
     137         -0.372991        2.000000        0.00038919        0.00124766        0.00003003
     138         -0.372433        2.000000        0.00047863        0.00158074        0.00003942
     139         -0.372037        2.000000        0.00089374        0.00265466        0.00006065
     140         -0.371632        2.000000        0.00003983        0.00011478        0.00000459
     141         -0.371006        2.000000        0.00116080        0.00772680        0.00016740
     142         -0.369840        2.000000        0.00000409        0.00002950        0.00000022
     143         -0.369635        2.000000        0.00007600        0.00035289        0.00001000
     144         -0.369153        2.000000        0.00006470        0.00018726        0.00000532
     145         -0.369131        2.000000        0.00002586        0.00038202        0.00000520
     146         -0.368498        2.000000        0.00038470        0.00194483        0.00004419
     147         -0.367984        2.000000        0.00088826        0.00847688        0.00013852
     148         -0.367257        2.000000        0.00041136        0.00106416        0.00003155
     149         -0.366951        2.000000        0.00002487        0.00010828        0.00000116
     150         -0.366882        2.000000        0.00001078        0.00038124        0.00000237
     151         -0.366558        2.000000        0.00004765        0.00009699        0.00000237
     152         -0.366087        2.000000        0.00032356        0.00178809        0.00002112
     153         -0.365532        2.000000        0.00009761        0.00026850        0.00000257
     154         -0.365292        2.000000        0.00003311        0.00018584        0.00000131
     155         -0.364873        2.000000        0.00004238        0.00016870        0.00000312
     156         -0.364499        2.000000        0.00003343        0.00031906        0.00000318
     157         -0.364385        2.000000        0.00004264        0.00013460        0.00000411
     158         -0.363409        2.000000        0.00023986        0.00180463        0.00002868
     159         -0.362731        2.000000        0.00001135        0.00005730        0.00000183
     160         -0.361690        2.000000        0.00006403        0.00019990        0.00000501
     161         -0.361463        2.000000        0.00007760        0.00022146        0.00000628
     162         -0.360695        2.000000        0.00001544        0.00011319        0.00000061
     163         -0.359909        2.000000        0.00000037        0.00000688        0.00000035
     164         -0.358869        2.000000        0.00007200        0.00025028        0.00000360
     165         -0.358762        2.000000        0.00000838        0.00002605        0.00000042
     166         -0.358424        2.000000        0.00007627        0.00030257        0.00000245
     167         -0.357749        2.000000        0.00000809        0.00003546        0.00000029
     168         -0.357432        2.000000        0.00011033        0.00036366        0.00000718
     169         -0.356226        2.000000        0.00026765        0.00084088        0.00001079
     170         -0.355206        2.000000        0.01918473        0.05602438        0.00142784
     171         -0.354151        2.000000        0.00508996        0.02046664        0.00017106
     172         -0.353675        2.000000        0.00108252        0.00353834        0.00004997
     173         -0.353241        2.000000        0.00168197        0.00527726        0.00009914
     174         -0.352384        2.000000        0.00139769        0.00406552        0.00009684
     175         -0.349281        2.000000        0.00037020        0.00120362        0.00001529
     176         -0.348101        2.000000        0.00015705        0.00049617        0.00000544
     177         -0.347056        2.000000        0.00000222        0.00000878        0.00000008
     178         -0.346421        2.000000        0.00090862        0.00330349        0.00002708
     179         -0.346099        2.000000        0.00000559        0.00001872        0.00000006
     180         -0.344626        2.000000        0.00019112        0.00053073        0.00001707
     181         -0.344227        2.000000        0.00000031        0.00000110        0.00000002
     182         -0.344158        2.000000        0.00003960        0.00011022        0.00000232
     183         -0.343279        2.000000        0.00007076        0.00015803        0.00000711
     184         -0.342186        2.000000        0.00001366        0.00007393        0.00000192
     185         -0.341638        2.000000        0.00004434        0.00013278        0.00000455
     186         -0.341223        2.000000        0.00001729        0.00005918        0.00000073
     187         -0.341051        2.000000        0.00000073        0.00000255        0.00000003
     188         -0.340810        2.000000        0.00008976        0.00020556        0.00000598
     189         -0.340344        2.000000        0.00001386        0.00004713        0.00000110
     190         -0.340103        2.000000        0.00000597        0.00001402        0.00000058
     191         -0.339538        2.000000        0.00029713        0.00065104        0.00002725
     192         -0.338904        2.000000        0.00000018        0.00001265        0.00000035
     193         -0.338737        2.000000        0.00005044        0.00016934        0.00000310
     194         -0.337951        2.000000        0.00003924        0.00016284        0.00000115
     195         -0.337180        2.000000        0.00000290        0.00001053        0.00000008
     196         -0.336960        2.000000        0.00000643        0.00002121        0.00000026
     197         -0.336163        2.000000        0.00001054        0.00006389        0.00000067
     198         -0.335733        2.000000        0.00001152        0.00006062        0.00000059
     199         -0.334956        2.000000        0.00000452        0.00001243        0.00000027
     200         -0.333834        2.000000        0.00000142        0.00000527        0.00000003
     201         -0.331670        2.000000        0.00000593        0.00005301        0.00000031
     202         -0.330715        2.000000        0.00000034        0.00000600        0.00000005
     203         -0.327469        2.000000        0.00000033        0.00000127        0.00000001
     204         -0.326924        2.000000        0.00000083        0.00000407        0.00000001
     205         -0.319799        2.000000        0.00001132        0.00007659        0.00000043
     206         -0.319625        2.000000        0.00000002        0.00000014        0.00000000
     207         -0.318771        2.000000        0.00000024        0.00000103        0.00000000
     208         -0.318487        2.000000        0.00000795        0.00005560        0.00000025
     209         -0.318151        2.000000        0.00049897        0.00193315        0.00003361
     210         -0.317254        2.000000        0.00001465        0.00008198        0.00000068
     211         -0.316615        2.000000        0.00009640        0.00069040        0.00000487
     212         -0.316317        2.000000        0.00000127        0.00000566        0.00000009
     213         -0.315885        2.000000        0.00032293        0.00178457        0.00001319
     214         -0.315512        2.000000        0.00045207        0.00252910        0.00002376
     215         -0.314742        2.000000        0.00118621        0.00671893        0.00005299
     216         -0.314240        2.000000        0.00001539        0.00003564        0.00000034
     217         -0.313093        2.000000        0.00101384        0.00577879        0.00003603
     218         -0.312538        2.000000        0.00018422        0.00103196        0.00000924
     219         -0.312396        2.000000        0.00036352        0.00135256        0.00001734
     220         -0.312037        2.000000        0.00005730        0.00106972        0.00001931
     221         -0.310598        2.000000        0.00243622        0.01361892        0.00007605
     222         -0.310221        2.000000        0.00123733        0.00646530        0.00005357
     223         -0.309408        2.000000        0.00007628        0.00037894        0.00000244
     224         -0.309395        2.000000        0.00089085        0.00467288        0.00002378
     225         -0.309234        2.000000        0.00003801        0.00050307        0.00000112
     226         -0.308381        2.000000        0.00350919        0.02103832        0.00007748
     227         -0.308250        2.000000        0.00000972        0.00004469        0.00000043
     228         -0.308097        2.000000        0.00284671        0.01645286        0.00006451
     229         -0.307179        2.000000        0.01040942        0.05947702        0.00023883
     230         -0.305966        2.000000        0.00466905        0.02695516        0.00010476
     231         -0.305190        2.000000        0.00013378        0.00050541        0.00000258
     232         -0.305170        2.000000        0.00005720        0.00022411        0.00000100
     233         -0.303881        2.000000        0.00005816        0.00023216        0.00000101
     234         -0.303186        2.000000        0.00000457        0.00007729        0.00000085
     235         -0.302644        2.000000        0.00127248        0.00716893        0.00004332
     236         -0.302137        2.000000        0.00011984        0.00035030        0.00000036
     237         -0.301410        2.000000        0.00005471        0.00115160        0.00001296
     238         -0.301270        2.000000        0.00009489        0.00017835        0.00000021
     239         -0.300504        2.000000        0.00154361        0.00720923        0.00004271
     240         -0.300347        2.000000        0.00057011        0.00582928        0.00005504
     241         -0.300010        2.000000        0.00000434        0.00001769        0.00000004
     242         -0.298878        2.000000        0.00043749        0.00640848        0.00007993
     243         -0.298505        2.000000        0.00280918        0.01184961        0.00007071
     244         -0.297847        2.000000        0.00030014        0.00100818        0.00001302
     245         -0.297156        2.000000        0.00173958        0.00786867        0.00007294
     246         -0.297046        2.000000        0.00228841        0.01188975        0.00010067
     247         -0.296671        2.000000        0.00153661        0.00691380        0.00006735
     248         -0.296618        2.000000        0.00040494        0.00207286        0.00000208
     249         -0.295969        2.000000        0.00051427        0.00225738        0.00002129
     250         -0.295348        2.000000        0.00004096        0.00212862        0.00001692
     251         -0.295087        2.000000        0.00060897        0.00297727        0.00001764
     252         -0.294369        2.000000        0.00063148        0.00529530        0.00006270
     253         -0.294183        2.000000        0.00064392        0.00317219        0.00000959
     254         -0.293640        2.000000        0.00086715        0.00749566        0.00007219
     255         -0.293246        2.000000        0.00035065        0.00433003        0.00004395
     256         -0.292577        2.000000        0.00018599        0.00101495        0.00000200
     257         -0.291994        2.000000        0.00177706        0.00662069        0.00005214
     258         -0.291705        2.000000        0.00051061        0.00199526        0.00001000
     259         -0.290928        2.000000        0.00228885        0.01213673        0.00012138
     260         -0.290306        2.000000        0.00063249        0.00352707        0.00001088
     261         -0.289901        2.000000        0.00027931        0.00079527        0.00000514
     262         -0.289451        2.000000        0.00065811        0.00569961        0.00000447
     263         -0.289043        2.000000        0.00019216        0.00195116        0.00002030
     264         -0.288015        2.000000        0.00027236        0.00127007        0.00001106
     265         -0.287861        2.000000        0.00005021        0.00017956        0.00000281
     266         -0.286936        2.000000        0.00000113        0.00006257        0.00000070
     267         -0.286667        2.000000        0.00037593        0.00155084        0.00000907
     268         -0.286302        2.000000        0.00069781        0.00401267        0.00003872
     269         -0.285607        2.000000        0.00024173        0.00109625        0.00000247
     270         -0.285328        2.000000        0.00031436        0.00140002        0.00000369
     271         -0.285085        2.000000        0.00023668        0.00146792        0.00000115
     272         -0.284841        2.000000        0.00007878        0.00050277        0.00000529
     273         -0.284131        2.000000        0.00057684        0.00217127        0.00000850
     274         -0.283572        2.000000        0.00147304        0.00526663        0.00003784
     275         -0.283249        2.000000        0.00002846        0.00039879        0.00000304
     276         -0.283050        2.000000        0.00001574        0.00010588        0.00000020
     277         -0.282957        2.000000        0.00000197        0.00013986        0.00000061
     278         -0.282638        2.000000        0.00000182        0.00003813        0.00000018
     279         -0.282393        2.000000        0.00016193        0.00120986        0.00000342
     280         -0.282190        2.000000        0.00024640        0.00063536        0.00000508
     281         -0.281812        2.000000        0.00007900        0.00068475        0.00000047
     282         -0.281718        2.000000        0.00174495        0.00710802        0.00002458
     283         -0.281529        2.000000        0.00045237        0.00158492        0.00000509
     284         -0.281304        2.000000        0.00012278        0.00051309        0.00000112
     285         -0.281056        2.000000        0.00025532        0.00081162        0.00000810
     286         -0.280948        2.000000        0.00050849        0.00244536        0.00000340
     287         -0.280843        2.000000        0.00018650        0.00086062        0.00000467
     288         -0.280780        2.000000        0.00000477        0.00015935        0.00000090
     289         -0.280282        2.000000        0.00044287        0.00176715        0.00000407
     290         -0.279956        2.000000        0.00057485        0.00248748        0.00000499
     291         -0.279807        2.000000        0.00009683        0.00033587        0.00000141
     292         -0.279686        2.000000        0.00179662        0.00655805        0.00002259
     293         -0.279589        2.000000        0.00067187        0.00307112        0.00000676
     294         -0.279495        2.000000        0.00115867        0.00495713        0.00001335
     295         -0.279217        2.000000        0.00208220        0.00842017        0.00003551
     296         -0.279093        2.000000        0.00016973        0.00069342        0.00000537
     297         -0.278951        2.000000        0.00066821        0.00308402        0.00000651
     298         -0.278592        2.000000        0.00521305        0.01838727        0.00006189
     299         -0.278433        2.000000        0.00137771        0.00528745        0.00001865
     300         -0.278210        2.000000        0.00021559        0.00093379        0.00000411
     301         -0.278135        2.000000        0.00035004        0.00164416        0.00000154
     302         -0.278031        2.000000        0.00011706        0.00066358        0.00000211
     303         -0.277650        2.000000        0.00003902        0.00024160        0.00000178
     304         -0.277312        2.000000        0.00166941        0.00646625        0.00002187
     305         -0.276990        2.000000        0.00014474        0.00047706        0.00000379
     306         -0.276609        2.000000        0.00003201        0.00008596        0.00000084
     307         -0.276405        2.000000        0.00071621        0.00422442        0.00001282