# Projected DOS for list 56 of 3 atoms, at iteration step i = 0, E(Fermi) =    -0.060510 a.u.
#     MO Eigenvalue [a.u.]      Occupation                 s                 p                 d
       1         -0.895259        2.000000        0.00000346        0.00000944        0.00000002
       2         -0.868125        2.000000        0.00001952        0.00005140        0.00000004
       3         -0.864615        2.000000        0.00000038        0.00000648        0.00000002
       4         -0.857993        2.000000        0.00000000        0.00000000        0.00000000
       5         -0.853826        2.000000        0.00000009        0.00000022        0.00000000
       6         -0.850378        2.000000        0.00000519        0.00000767        0.00000004
       7         -0.848222        2.000000        0.00000046        0.00000283        0.00000001
       8         -0.847335        2.000000        0.00000000        0.00000002        0.00000000
       9         -0.842977        2.000000        0.00009329        0.00016816        0.00000052
      10         -0.841504        2.000000        0.00002269        0.00004960        0.00000020
      11         -0.840654        2.000000        0.00001252        0.00003279        0.00000013
      12         -0.839688        2.000000        0.00000886        0.00001428        0.00000006
      13         -0.839172        2.000000        0.00000020        0.00000048        0.00000000
      14         -0.838522        2.000000        0.00000066        0.00000140        0.00000001
      15         -0.837015        2.000000        0.00000313        0.00000635        0.00000003
      16         -0.832753        2.000000        0.00020000        0.00036953        0.00000162
      17         -0.832000        2.000000        0.00000088        0.00000073        0.00000000
      18         -0.831644        2.000000        0.00000281        0.00000856        0.00000004
      19         -0.830027        2.000000        0.00008717        0.00012321        0.00000043
      20         -0.829447        2.000000        0.00038823        0.00060850        0.00000273
      21         -0.828640        2.000000        0.00034957        0.00056344        0.00000256
      22         -0.828147        2.000000        0.00001133        0.00001498        0.00000003
      23         -0.827394        2.000000        0.00001022        0.00001739        0.00000002
      24         -0.826637        2.000000        0.00003987        0.00006707        0.00000029
      25         -0.825864        2.000000        0.00001711        0.00002417        0.00000012
      26         -0.825007        2.000000        0.00091081        0.00116281        0.00000449
      27         -0.824149        2.000000        0.00000023        0.00000683        0.00000001
      28         -0.823003        2.000000        0.00002324        0.00014920        0.00000062
      29         -0.821982        2.000000        0.00001340        0.00001062        0.00000006
      30         -0.820560        2.000000        0.00016738        0.00016977        0.00000051
      31         -0.820223        2.000000        0.00007105        0.00009486        0.00000017
      32         -0.820029        2.000000        0.00016952        0.00014675        0.00000071
      33         -0.819390        2.000000        0.00031919        0.00026791        0.00000076
      34         -0.818664        2.000000        0.00002276        0.00002019        0.00000005
      35         -0.817548        2.000000        0.00000728        0.00001684        0.00000010
      36         -0.816472        2.000000        0.00000608        0.00001243        0.00000002
      37         -0.815444        2.000000        0.00001857        0.00005627        0.00000024
      38         -0.814805        2.000000        0.00026665        0.00025920        0.00000127
      39         -0.814124        2.000000        0.00003248        0.00013683        0.00000050
      40         -0.813968        2.000000        0.00009817        0.00020872        0.00000089
      41         -0.813053        2.000000        0.00000089        0.00000380        0.00000002
      42         -0.812601        2.000000        0.00000516        0.00003773        0.00000020
      43         -0.811948        2.000000        0.00000035        0.00000228        0.00000001
      44         -0.811687        2.000000        0.00000037        0.00000192        0.00000001
      45         -0.810574        2.000000        0.00000235        0.00001922        0.00000009
      46         -0.809310        2.000000        0.00029984        0.00105384        0.00000466
      47         -0.808268        2.000000        0.00001519        0.00001641        0.00000018
      48         -0.807324        2.000000        0.00016877        0.00014777        0.00000143
      49         -0.806602        2.000000        0.00008803        0.00004811        0.00000057
      50         -0.806376        2.000000        0.00011996        0.00004868        0.00000039
      51         -0.806147        2.000000        0.00037190        0.00025622        0.00000252
      52         -0.804835        2.000000        0.00001100        0.00001616        0.00000013
      53         -0.804321        2.000000        0.00003968        0.00002686        0.00000020
      54         -0.803943        2.000000        0.00000191        0.00000402        0.00000003
      55         -0.803401        2.000000        0.00000357        0.00000175        0.00000003
      56         -0.802648        2.000000        0.00001183        0.00000407        0.00000007
      57         -0.801912        2.000000        0.00007250        0.00007384        0.00000071
      58         -0.801342        2.000000        0.00001038        0.00001594        0.00000013
      59         -0.800594        2.000000        0.00007763        0.00016008        0.00000109
      60         -0.799945        2.000000        0.00059632        0.00042275        0.00000451
      61         -0.799254        2.000000        0.00290861        0.00339393        0.00002959
      62         -0.798331        2.000000        0.00002067        0.00003477        0.00000025
      63         -0.797356        2.000000        0.00042588        0.00025877        0.00000305
      64         -0.795713        2.000000        0.00000228        0.00000201        0.00000002
      65         -0.795144        2.000000        0.00212670        0.00084168        0.00000560
      66         -0.794508        2.000000        0.00030770        0.00010591        0.00000135
      67         -0.793501        2.000000        0.00012243        0.00075051        0.00000322
      68         -0.792888        2.000000        0.00012748        0.00021265        0.00000136
      69         -0.792771        2.000000        0.00214274        0.00051170        0.00001032
      70         -0.792166        2.000000        0.00063992        0.00019319        0.00000287
      71         -0.791795        2.000000        0.00030274        0.00002872        0.00000121
      72         -0.790466        2.000000        0.00047618        0.00011736        0.00000235
      73         -0.789691        2.000000        0.00000999        0.00000281        0.00000003
      74         -0.789018        2.000000        0.00000166        0.00000633        0.00000003
      75         -0.788284        2.000000        0.00056949        0.00026005        0.00000273
      76         -0.787044        2.000000        0.00007203        0.00013136        0.00000072
      77         -0.785765        2.000000        0.00625206        0.00321387        0.00003112
      78         -0.783215        2.000000        0.00011418        0.00019546        0.00000170
      79         -0.782853        2.000000        0.00209073        0.00096696        0.00001101
      80         -0.782388        2.000000        0.00004704        0.00002463        0.00000040
      81         -0.781821        2.000000        0.00002941        0.00000845        0.00000011
      82         -0.780108        2.000000        0.00001035        0.00000849        0.00000006
      83         -0.778906        2.000000        0.00003848        0.00001002        0.00000031
      84         -0.778076        2.000000        0.00099720        0.00040383        0.00000801
      85         -0.775317        2.000000        0.00000030        0.00000130        0.00000001
      86         -0.773086        2.000000        0.00006060        0.00000992        0.00000023
      87         -0.772920        2.000000        0.00012566        0.00004738        0.00000129
      88         -0.771409        2.000000        0.00145681        0.00032976        0.00000507
      89         -0.769725        2.000000        0.00070041        0.00009558        0.00000216
      90         -0.769226        2.000000        0.00000791        0.00000911        0.00000022
      91         -0.767566        2.000000        0.00414006        0.00065226        0.00001199
      92         -0.766737        2.000000        0.00002913        0.00000603        0.00000006
      93         -0.755845        2.000000        0.66930510        0.16614959        0.00119539
      94         -0.752538        2.000000        0.05802444        0.01834896        0.00009433
      95         -0.747161        2.000000        0.00003049        0.00000790        0.00000010
      96         -0.736999        2.000000        0.00019883        0.00018979        0.00000049
      97         -0.726419        2.000000        0.00000422        0.00000176        0.00000005
      98         -0.719129        2.000000        0.00593219        0.00275457        0.00011552
      99         -0.696511        2.000000        0.01368004        0.00959031        0.00046934
     100         -0.460315        2.000000        0.00000020        0.00000057        0.00000000
     101         -0.427906        2.000000        0.00000075        0.00000368        0.00000004
     102         -0.424376        2.000000        0.00000291        0.00002311        0.00000001
     103         -0.405781        2.000000        0.00000000        0.00000000        0.00000000
     104         -0.401299        2.000000        0.00000000        0.00000001        0.00000000
     105         -0.398347        2.000000        0.00000004        0.00000009        0.00000000
     106         -0.398267        2.000000        0.00000041        0.00000089        0.00000002
     107         -0.397295        2.000000        0.00000112        0.00000894        0.00000007
     108         -0.395753        2.000000        0.00000050        0.00000096        0.00000003
     109         -0.395158        2.000000        0.00000002        0.00000004        0.00000000
     110         -0.394493        2.000000        0.00000024        0.00000081        0.00000002
     111         -0.394192        2.000000        0.00000003        0.00000008        0.00000000
     112         -0.393919        2.000000        0.00000025        0.00000061        0.00000001
     113         -0.393017        2.000000        0.00000067        0.00000130        0.00000003
     114         -0.391793        2.000000        0.00000021        0.00000046        0.00000002
     115         -0.389280        2.000000        0.00000000        0.00000001        0.00000000
     116         -0.388145        2.000000        0.00000117        0.00000982        0.00000009
     117         -0.387090        2.000000        0.00000008        0.00000019        0.00000000
     118         -0.386138        2.000000        0.00000023        0.00000177        0.00000000
     119         -0.385161        2.000000        0.00000012        0.00000083        0.00000000
     120         -0.384984        2.000000        0.00000002        0.00000016        0.00000000
     121         -0.383823        2.000000        0.00000332        0.00000774        0.00000023
     122         -0.383101        2.000000        0.00003662        0.00008157        0.00000272
     123         -0.383025        2.000000        0.00000390        0.00000865        0.00000029
     124         -0.381208        2.000000        0.00000162        0.00000530        0.00000012
     125         -0.380660        2.000000        0.00000050        0.00000235        0.00000003
     126         -0.380323        2.000000        0.00000099        0.00000272        0.00000008
     127         -0.379623        2.000000        0.00000025        0.00000066        0.00000002
     128         -0.379161        2.000000        0.00000094        0.00000234        0.00000006
     129         -0.378115        2.000000        0.00001224        0.00002559        0.00000086
     130         -0.377757        2.000000        0.00001042        0.00002269        0.00000077
     131         -0.377213        2.000000        0.00001759        0.00003766        0.00000131
     132         -0.376655        2.000000        0.00005724        0.00012396        0.00000430
     133         -0.376089        2.000000        0.00008644        0.00018065        0.00000639
     134         -0.375522        2.000000        0.00022291        0.00046493        0.00001634
     135         -0.373953        2.000000        0.00000191        0.00001235        0.00000012
     136         -0.373564        2.000000        0.00000706        0.00002034        0.00000053
     137         -0.372991        2.000000        0.00000281        0.00001615        0.00000017
     138         -0.372433        2.000000        0.00005106        0.00023922        0.00000287
     139         -0.372037        2.000000        0.00002948        0.00009697        0.00000206
     140         -0.371632        2.000000        0.00006940        0.00022011        0.00000477
     141         -0.371006        2.000000        0.00012911        0.00035125        0.00000904
     142         -0.369840        2.000000        0.00000192        0.00000633        0.00000011
     143         -0.369635        2.000000        0.00007943        0.00020831        0.00000541
     144         -0.369153        2.000000        0.00000482        0.00001199        0.00000035
     145         -0.369131        2.000000        0.00000075        0.00000275        0.00000007
     146         -0.368498        2.000000        0.00001337        0.00003191        0.00000095
     147         -0.367984        2.000000        0.00002588        0.00006067        0.00000188
     148         -0.367257        2.000000        0.00000010        0.00000032        0.00000001
     149         -0.366951        2.000000        0.00000471        0.00001113        0.00000033
     150         -0.366882        2.000000        0.00010279        0.00025135        0.00000715
     151         -0.366558        2.000000        0.00000973        0.00002285        0.00000066
     152         -0.366087        2.000000        0.00000541        0.00001271        0.00000035
     153         -0.365532        2.000000        0.00001940        0.00004870        0.00000131
     154         -0.365292        2.000000        0.00000091        0.00000242        0.00000008
     155         -0.364873        2.000000        0.00003829        0.00012617        0.00000266
     156         -0.364499        2.000000        0.00000330        0.00001199        0.00000027
     157         -0.364385        2.000000        0.00000109        0.00001165        0.00000007
     158         -0.363409        2.000000        0.00000649        0.00001623        0.00000047
     159         -0.362731        2.000000        0.00008176        0.00023977        0.00000699
     160         -0.361690        2.000000        0.00000702        0.00001692        0.00000053
     161         -0.361463        2.000000        0.00001061        0.00012059        0.00000073
     162         -0.360695        2.000000        0.00000479        0.00001150        0.00000039
     163         -0.359909        2.000000        0.00003157        0.00019310        0.00000033
     164         -0.358869        2.000000        0.00000987        0.00002856        0.00000074
     165         -0.358762        2.000000        0.00000037        0.00000160        0.00000003
     166         -0.358424        2.000000        0.00000207        0.00000610        0.00000015
     167         -0.357749        2.000000        0.00002172        0.00007021        0.00000185
     168         -0.357432        2.000000        0.00016697        0.00048141        0.00000900
     169         -0.356226        2.000000        0.00000031        0.00000091        0.00000002
     170         -0.355206        2.000000        0.00038704        0.00093203        0.00002766
     171         -0.354151        2.000000        0.00000947        0.00002449        0.00000069
     172         -0.353675        2.000000        0.00021693        0.00056992        0.00001554
     173         -0.353241        2.000000        0.00008551        0.00021335        0.00000603
     174         -0.352384        2.000000        0.00447069        0.01090093        0.00031057
     175         -0.349281        2.000000        0.00000533        0.00001406        0.00000033
     176         -0.348101        2.000000        0.00007005        0.00018969        0.00000168
     177         -0.347056        2.000000        0.00000805        0.00001755        0.00000056
     178         -0.346421        2.000000        0.00000515        0.00001414        0.00000008
     179         -0.346099        2.000000        0.00004921        0.00015304        0.00000080
     180         -0.344626        2.000000        0.00000011        0.00000105        0.00000001
     181         -0.344227        2.000000        0.00004684        0.00013274        0.00000266
     182         -0.344158        2.000000        0.00000019        0.00000051        0.00000001
     183         -0.343279        2.000000        0.00000081        0.00000323        0.00000002
     184         -0.342186        2.000000        0.00000149        0.00000335        0.00000012
     185         -0.341638        2.000000        0.00000017        0.00000057        0.00000001
     186         -0.341223        2.000000        0.00000037        0.00000133        0.00000002
     187         -0.341051        2.000000        0.00003420        0.00009561        0.00000219
     188         -0.340810        2.000000        0.00000003        0.00000010        0.00000000
     189         -0.340344        2.000000        0.00000004        0.00000040        0.00000000
     190         -0.340103        2.000000        0.00001513        0.00007622        0.00000090
     191         -0.339538        2.000000        0.00000020        0.00000319        0.00000001
     192         -0.338904        2.000000        0.00000008        0.00000033        0.00000001
     193         -0.338737        2.000000        0.00000224        0.00000860        0.00000021
     194         -0.337951        2.000000        0.00000096        0.00000671        0.00000008
     195         -0.337180        2.000000        0.00000399        0.00002720        0.00000026
     196         -0.336960        2.000000        0.00000224        0.00001125        0.00000019
     197         -0.336163        2.000000        0.00002206        0.00015470        0.00000254
     198         -0.335733        2.000000        0.00001700        0.00013118        0.00000175
     199         -0.334956        2.000000        0.00001518        0.00014049        0.00000074
     200         -0.333834        2.000000        0.00008272        0.00021105        0.00000689
     201         -0.331670        2.000000        0.00000097        0.00000452        0.00000007
     202         -0.330715        2.000000        0.00007005        0.00052789        0.00000304
     203         -0.327469        2.000000        0.00004982        0.00018716        0.00000330
     204         -0.326924        2.000000        0.00000640        0.00003781        0.00000041
     205         -0.319799        2.000000        0.00000015        0.00000366        0.00000001
     206         -0.319625        2.000000        0.00000718        0.00003547        0.00000031
     207         -0.318771        2.000000        0.00004354        0.00116933        0.00000280
     208         -0.318487        2.000000        0.00000003        0.00000064        0.00000000
     209         -0.318151        2.000000        0.00000006        0.00000021        0.00000000
     210         -0.317254        2.000000        0.00000001        0.00000019        0.00000000
     211         -0.316615        2.000000        0.00000001        0.00000007        0.00000000
     212         -0.316317        2.000000        0.00000493        0.00003298        0.00000028
     213         -0.315885        2.000000        0.00000001        0.00000009        0.00000000
     214         -0.315512        2.000000        0.00000002        0.00000006        0.00000000
     215         -0.314742        2.000000        0.00000001        0.00000001        0.00000000
     216         -0.314240        2.000000        0.00000002        0.00000006        0.00000000
     217         -0.313093        2.000000        0.00000009        0.00000024        0.00000001
     218         -0.312538        2.000000        0.00000011        0.00000029        0.00000001
     219         -0.312396        2.000000        0.00000014        0.00000034        0.00000001
     220         -0.312037        2.000000        0.00000016        0.00000040        0.00000001
     221         -0.310598        2.000000        0.00000052        0.00000135        0.00000004
     222         -0.310221        2.000000        0.00000012        0.00000037        0.00000001
     223         -0.309408        2.000000        0.00000019        0.00000050        0.00000001
     224         -0.309395        2.000000        0.00000047        0.00000124        0.00000003
     225         -0.309234        2.000000        0.00000003        0.00000007        0.00000000
     226         -0.308381        2.000000        0.00003762        0.00009911        0.00000244
     227         -0.308250        2.000000        0.00041943        0.00108243        0.00002718
     228         -0.308097        2.000000        0.00000172        0.00000453        0.00000011
     229         -0.307179        2.000000        0.00001191        0.00003446        0.00000077
     230         -0.305966        2.000000        0.00007312        0.00020535        0.00000469
     231         -0.305190        2.000000        0.02498546        0.06826810        0.00157092
     232         -0.305170        2.000000        0.19310839        0.53035699        0.01216507
     233         -0.303881        2.000000        0.00594617        0.01619147        0.00037057
     234         -0.303186        2.000000        0.00000005        0.00000021        0.00000000
     235         -0.302644        2.000000        0.00001490        0.00004226        0.00000092
     236         -0.302137        2.000000        0.00003347        0.00009765        0.00000201
     237         -0.301410        2.000000        0.00001756        0.00005163        0.00000105
     238         -0.301270        2.000000        0.00002822        0.00008165        0.00000170
     239         -0.300504        2.000000        0.00031165        0.00094782        0.00001797
     240         -0.300347        2.000000        0.00003300        0.00009582        0.00000196
     241         -0.300010        2.000000        0.00129741        0.00356206        0.00007890
     242         -0.298878        2.000000        0.00000133        0.00000480        0.00000007
     243         -0.298505        2.000000        0.00000146        0.00000536        0.00000008
     244         -0.297847        2.000000        0.00000106        0.00000422        0.00000006
     245         -0.297156        2.000000        0.00000291        0.00001042        0.00000017
     246         -0.297046        2.000000        0.00000042        0.00000126        0.00000002
     247         -0.296671        2.000000        0.00000230        0.00000773        0.00000013
     248         -0.296618        2.000000        0.00000053        0.00000188        0.00000003
     249         -0.295969        2.000000        0.00000856        0.00003389        0.00000051
     250         -0.295348        2.000000        0.00000643        0.00002836        0.00000039
     251         -0.295087        2.000000        0.00000000        0.00000001        0.00000000
     252         -0.294369        2.000000        0.00000015        0.00000076        0.00000001
     253         -0.294183        2.000000        0.00000004        0.00000016        0.00000000
     254         -0.293640        2.000000        0.00000009        0.00000027        0.00000000
     255         -0.293246        2.000000        0.00000004        0.00000019        0.00000000
     256         -0.292577        2.000000        0.00000016        0.00000050        0.00000001
     257         -0.291994        2.000000        0.00000023        0.00000109        0.00000001
     258         -0.291705        2.000000        0.00000007        0.00000023        0.00000000
     259         -0.290928        2.000000        0.00000399        0.00001222        0.00000022
     260         -0.290306        2.000000        0.00001623        0.00004994        0.00000084
     261         -0.289901        2.000000        0.00004253        0.00013405        0.00000215
     262         -0.289451        2.000000        0.00002740        0.00008707        0.00000138
     263         -0.289043        2.000000        0.00001500        0.00004924        0.00000074
     264         -0.288015        2.000000        0.00000948        0.00003587        0.00000043
     265         -0.287861        2.000000        0.00000212        0.00001138        0.00000007
     266         -0.286936        2.000000        0.00000063        0.00000213        0.00000003
     267         -0.286667        2.000000        0.00000058        0.00000253        0.00000002
     268         -0.286302        2.000000        0.00000893        0.00003457        0.00000041
     269         -0.285607        2.000000        0.00000003        0.00000022        0.00000000
     270         -0.285328        2.000000        0.00000136        0.00000609        0.00000006
     271         -0.285085        2.000000        0.00000074        0.00000332        0.00000003
     272         -0.284841        2.000000        0.00000001        0.00000007        0.00000000
     273         -0.284131        2.000000        0.00000271        0.00001400        0.00000011
     274         -0.283572        2.000000        0.00000010        0.00000050        0.00000001
     275         -0.283249        2.000000        0.00000226        0.00001091        0.00000010
     276         -0.283050        2.000000        0.00000838        0.00004230        0.00000035
     277         -0.282957        2.000000        0.00000076        0.00000452        0.00000002
     278         -0.282638        2.000000        0.00000563        0.00003144        0.00000022
     279         -0.282393        2.000000        0.00015273        0.00085417        0.00000601
     280         -0.282190        2.000000        0.00000186        0.00000736        0.00000009
     281         -0.281812        2.000000        0.00000061        0.00000406        0.00000002
     282         -0.281718        2.000000        0.00005908        0.00037240        0.00000223
     283         -0.281529        2.000000        0.00009049        0.00059239        0.00000332
     284         -0.281304        2.000000        0.00016453        0.00109510        0.00000626
     285         -0.281056        2.000000        0.00141612        0.00952086        0.00005541
     286         -0.280948        2.000000        0.00035595        0.00241722        0.00001437
     287         -0.280843        2.000000        0.00492944        0.03346987        0.00020048
     288         -0.280780        2.000000        0.00013036        0.00088427        0.00000536
     289         -0.280282        2.000000        0.00002676        0.00018476        0.00000130
     290         -0.279956        2.000000        0.00000351        0.00002403        0.00000017
     291         -0.279807        2.000000        0.00005687        0.00037227        0.00000344
     292         -0.279686        2.000000        0.00055089        0.00350992        0.00003476
     293         -0.279589        2.000000        0.00006003        0.00035411        0.00000403
     294         -0.279495        2.000000        0.00015287        0.00096925        0.00001095
     295         -0.279217        2.000000        0.00000470        0.00001603        0.00000012
     296         -0.279093        2.000000        0.00010857        0.00027132        0.00000517
     297         -0.278951        2.000000        0.00000806        0.00002463        0.00000023
     298         -0.278592        2.000000        0.00000772        0.00002529        0.00000068
     299         -0.278433        2.000000        0.00000513        0.00001414        0.00000025
     300         -0.278210        2.000000        0.00000474        0.00001312        0.00000030
     301         -0.278135        2.000000        0.00000127        0.00000542        0.00000003
     302         -0.278031        2.000000        0.00000220        0.00001175        0.00000006
     303         -0.277650        2.000000        0.00002061        0.00005951        0.00000066
     304         -0.277312        2.000000        0.00002505        0.00009619        0.00000083
     305         -0.276990        2.000000        0.00016831        0.00079177        0.00000427
     306         -0.276609        2.000000        0.00001254        0.00006706        0.00000035
     307         -0.276405        2.000000        0.00042873        0.00246093        0.00001217