# Projected DOS for list 15 of 3 atoms, at iteration step i = 0, E(Fermi) =    -0.060510 a.u.
#     MO Eigenvalue [a.u.]      Occupation                 s                 p                 d
       1         -0.895259        2.000000        0.00000069        0.00000108        0.00000000
       2         -0.868125        2.000000        0.00000025        0.00000045        0.00000000
       3         -0.864615        2.000000        0.00000040        0.00000074        0.00000000
       4         -0.857993        2.000000        0.00001787        0.00002017        0.00000015
       5         -0.853826        2.000000        0.00000065        0.00000046        0.00000000
       6         -0.850378        2.000000        0.00000001        0.00000001        0.00000000
       7         -0.848222        2.000000        0.00000008        0.00000046        0.00000000
       8         -0.847335        2.000000        0.00002481        0.00001741        0.00000006
       9         -0.842977        2.000000        0.00021151        0.00027992        0.00000137
      10         -0.841504        2.000000        0.00000850        0.00000659        0.00000006
      11         -0.840654        2.000000        0.00000492        0.00000184        0.00000006
      12         -0.839688        2.000000        0.00001219        0.00000260        0.00000003
      13         -0.839172        2.000000        0.00000149        0.00000865        0.00000008
      14         -0.838522        2.000000        0.00000015        0.00000039        0.00000000
      15         -0.837015        2.000000        0.00000432        0.00000291        0.00000005
      16         -0.832753        2.000000        0.00006039        0.00001075        0.00000021
      17         -0.832000        2.000000        0.00009745        0.00002937        0.00000030
      18         -0.831644        2.000000        0.00062666        0.00009017        0.00000153
      19         -0.830027        2.000000        0.00010414        0.00011567        0.00000164
      20         -0.829447        2.000000        0.00001143        0.00003780        0.00000018
      21         -0.828640        2.000000        0.00030000        0.00002995        0.00000074
      22         -0.828147        2.000000        0.05624917        0.00707694        0.00024773
      23         -0.827394        2.000000        0.01148129        0.00377236        0.00006604
      24         -0.826637        2.000000        0.00085819        0.00036741        0.00000666
      25         -0.825864        2.000000        0.00192488        0.00231426        0.00005566
      26         -0.825007        2.000000        0.00014235        0.00084903        0.00000445
      27         -0.824149        2.000000        0.00047332        0.00030050        0.00001192
      28         -0.823003        2.000000        0.00075921        0.00127123        0.00000686
      29         -0.821982        2.000000        0.00170515        0.00050408        0.00001800
      30         -0.820560        2.000000        0.00103806        0.00084308        0.00000229
      31         -0.820223        2.000000        0.00046116        0.00021185        0.00000185
      32         -0.820029        2.000000        0.00030976        0.00040182        0.00000420
      33         -0.819390        2.000000        0.00182577        0.00033506        0.00000874
      34         -0.818664        2.000000        0.00108980        0.00026171        0.00000716
      35         -0.817548        2.000000        0.00338275        0.00077953        0.00000327
      36         -0.816472        2.000000        0.00036666        0.00005365        0.00000150
      37         -0.815444        2.000000        0.00016218        0.00026571        0.00000149
      38         -0.814805        2.000000        0.00847588        0.00221851        0.00002392
      39         -0.814124        2.000000        0.00069002        0.00040268        0.00000085
      40         -0.813968        2.000000        0.00006633        0.00004487        0.00000014
      41         -0.813053        2.000000        0.00194028        0.00059744        0.00000249
      42         -0.812601        2.000000        0.02334957        0.00878474        0.00003977
      43         -0.811948        2.000000        0.00001661        0.00013059        0.00000644
      44         -0.811687        2.000000        0.00044288        0.00011086        0.00000403
      45         -0.810574        2.000000        0.00002765        0.00019783        0.00001477
      46         -0.809310        2.000000        0.00042684        0.00020490        0.00000116
      47         -0.808268        2.000000        0.04432433        0.01335453        0.00012964
      48         -0.807324        2.000000        0.02809836        0.00938748        0.00006486
      49         -0.806602        2.000000        0.00262708        0.00080333        0.00000802
      50         -0.806376        2.000000        0.00443034        0.00139248        0.00003037
      51         -0.806147        2.000000        0.00209030        0.00138219        0.00000400
      52         -0.804835        2.000000        0.00000434        0.00004571        0.00000093
      53         -0.804321        2.000000        0.00834057        0.00241804        0.00001606
      54         -0.803943        2.000000        0.00039518        0.00012424        0.00000081
      55         -0.803401        2.000000        0.00270736        0.00091067        0.00001076
      56         -0.802648        2.000000        0.00026427        0.00016333        0.00000664
      57         -0.801912        2.000000        0.00131962        0.00039270        0.00000235
      58         -0.801342        2.000000        0.00110501        0.00062796        0.00001214
      59         -0.800594        2.000000        0.00983843        0.00201888        0.00003204
      60         -0.799945        2.000000        0.00012667        0.00006399        0.00000016
      61         -0.799254        2.000000        0.03685374        0.01026182        0.00007044
      62         -0.798331        2.000000        0.00114344        0.00029882        0.00000275
      63         -0.797356        2.000000        0.38326812        0.09692776        0.00097505
      64         -0.795713        2.000000        0.04200527        0.01154394        0.00009825
      65         -0.795144        2.000000        0.00208418        0.00047217        0.00000791
      66         -0.794508        2.000000        0.04451977        0.01064795        0.00014585
      67         -0.793501        2.000000        0.01080534        0.00251832        0.00004336
      68         -0.792888        2.000000        0.00000507        0.00000372        0.00000014
      69         -0.792771        2.000000        0.01796682        0.00430912        0.00006271
      70         -0.792166        2.000000        0.01065585        0.00280339        0.00003080
      71         -0.791795        2.000000        0.00486488        0.00133188        0.00001322
      72         -0.790466        2.000000        0.00038826        0.00010338        0.00000144
      73         -0.789691        2.000000        0.00408338        0.00094677        0.00001904
      74         -0.789018        2.000000        0.00037634        0.00017050        0.00000142
      75         -0.788284        2.000000        0.00000101        0.00000387        0.00000018
      76         -0.787044        2.000000        0.00009212        0.00003208        0.00000036
      77         -0.785765        2.000000        0.00020186        0.00004612        0.00000108
      78         -0.783215        2.000000        0.00000563        0.00000205        0.00000015
      79         -0.782853        2.000000        0.00004146        0.00001814        0.00000009
      80         -0.782388        2.000000        0.00159789        0.00038482        0.00000927
      81         -0.781821        2.000000        0.00001034        0.00000192        0.00000009
      82         -0.780108        2.000000        0.00068185        0.00020388        0.00000293
      83         -0.778906        2.000000        0.00001742        0.00001261        0.00000003
      84         -0.778076        2.000000        0.00006265        0.00001778        0.00000062
      85         -0.775317        2.000000        0.00047160        0.00017883        0.00000321
      86         -0.773086        2.000000        0.00206701        0.00079950        0.00003861
      87         -0.772920        2.000000        0.00011535        0.00004543        0.00000230
      88         -0.771409        2.000000        0.00007653        0.00003196        0.00000132
      89         -0.769725        2.000000        0.00001266        0.00000440        0.00000018
      90         -0.769226        2.000000        0.00000433        0.00000240        0.00000004
      91         -0.767566        2.000000        0.00000658        0.00000261        0.00000019
      92         -0.766737        2.000000        0.00000062        0.00000020        0.00000001
      93         -0.755845        2.000000        0.00000009        0.00000006        0.00000000
      94         -0.752538        2.000000        0.00000071        0.00000037        0.00000003
      95         -0.747161        2.000000        0.00000577        0.00001275        0.00000004
      96         -0.736999        2.000000        0.00000001        0.00000001        0.00000000
      97         -0.726419        2.000000        0.00000000        0.00000001        0.00000000
      98         -0.719129        2.000000        0.00000003        0.00000009        0.00000000
      99         -0.696511        2.000000        0.00000000        0.00000001        0.00000000
     100         -0.460315        2.000000        0.00000004        0.00000018        0.00000000
     101         -0.427906        2.000000        0.00000012        0.00000027        0.00000001
     102         -0.424376        2.000000        0.00000000        0.00000001        0.00000000
     103         -0.405781        2.000000        0.00019023        0.00044812        0.00000858
     104         -0.401299        2.000000        0.00000035        0.00000093        0.00000002
     105         -0.398347        2.000000        0.00001665        0.00004040        0.00000077
     106         -0.398267        2.000000        0.00014539        0.00035971        0.00000660
     107         -0.397295        2.000000        0.01408646        0.03457907        0.00064548
     108         -0.395753        2.000000        0.00011574        0.00029031        0.00000501
     109         -0.395158        2.000000        0.00438520        0.01103295        0.00019010
     110         -0.394493        2.000000        0.00099556        0.00248709        0.00004366
     111         -0.394192        2.000000        0.02728658        0.06806199        0.00119440
     112         -0.393919        2.000000        0.16379098        0.40767734        0.00720003
     113         -0.393017        2.000000        0.00652899        0.01624975        0.00028524
     114         -0.391793        2.000000        0.00009552        0.00025452        0.00000415
     115         -0.389280        2.000000        0.00000278        0.00001297        0.00000040
     116         -0.388145        2.000000        0.01256116        0.03222948        0.00051429
     117         -0.387090        2.000000        0.00000420        0.00001702        0.00000026
     118         -0.386138        2.000000        0.00001568        0.00003782        0.00000052
     119         -0.385161        2.000000        0.00000259        0.00000796        0.00000013
     120         -0.384984        2.000000        0.00000742        0.00001808        0.00000039
     121         -0.383823        2.000000        0.00000169        0.00000490        0.00000010
     122         -0.383101        2.000000        0.00006392        0.00016472        0.00000319
     123         -0.383025        2.000000        0.00002769        0.00011934        0.00000265
     124         -0.381208        2.000000        0.00000596        0.00002050        0.00000029
     125         -0.380660        2.000000        0.00025370        0.00102243        0.00002273
     126         -0.380323        2.000000        0.00058117        0.00222616        0.00005530
     127         -0.379623        2.000000        0.00010648        0.00026964        0.00000801
     128         -0.379161        2.000000        0.00054403        0.00200864        0.00005235
     129         -0.378115        2.000000        0.00574948        0.02488870        0.00065877
     130         -0.377757        2.000000        0.00008705        0.00047460        0.00001169
     131         -0.377213        2.000000        0.00005182        0.00013879        0.00000323
     132         -0.376655        2.000000        0.00061705        0.00316962        0.00007702
     133         -0.376089        2.000000        0.00036379        0.00094607        0.00002091
     134         -0.375522        2.000000        0.00022164        0.00072232        0.00000854
     135         -0.373953        2.000000        0.00008386        0.00030745        0.00000549
     136         -0.373564        2.000000        0.00002375        0.00025823        0.00000449
     137         -0.372991        2.000000        0.00082509        0.00322891        0.00007773
     138         -0.372433        2.000000        0.00009782        0.00040448        0.00000403
     139         -0.372037        2.000000        0.00029487        0.00080931        0.00002698
     140         -0.371632        2.000000        0.00003829        0.00008105        0.00000303
     141         -0.371006        2.000000        0.00077007        0.00178863        0.00005408
     142         -0.369840        2.000000        0.00002792        0.00007671        0.00000098
     143         -0.369635        2.000000        0.00000278        0.00002662        0.00000063
     144         -0.369153        2.000000        0.00000158        0.00000971        0.00000031
     145         -0.369131        2.000000        0.00009734        0.00034775        0.00000253
     146         -0.368498        2.000000        0.00008182        0.00018796        0.00000475
     147         -0.367984        2.000000        0.00042961        0.00099215        0.00002672
     148         -0.367257        2.000000        0.00000130        0.00000221        0.00000003
     149         -0.366951        2.000000        0.00000275        0.00000706        0.00000012
     150         -0.366882        2.000000        0.00006274        0.00020689        0.00000158
     151         -0.366558        2.000000        0.00000253        0.00001187        0.00000029
     152         -0.366087        2.000000        0.00005335        0.00013729        0.00000326
     153         -0.365532        2.000000        0.00012181        0.00034287        0.00000325
     154         -0.365292        2.000000        0.00006240        0.00018562        0.00000180
     155         -0.364873        2.000000        0.00082613        0.00225859        0.00002286
     156         -0.364499        2.000000        0.00017618        0.00044865        0.00000569
     157         -0.364385        2.000000        0.00256514        0.00702541        0.00006889
     158         -0.363409        2.000000        0.00001386        0.00003298        0.00000077
     159         -0.362731        2.000000        0.00015770        0.00045375        0.00000460
     160         -0.361690        2.000000        0.00010493        0.00095397        0.00001934
     161         -0.361463        2.000000        0.00003772        0.00023511        0.00000188
     162         -0.360695        2.000000        0.00005350        0.00014248        0.00000192
     163         -0.359909        2.000000        0.00112377        0.00359663        0.00006421
     164         -0.358869        2.000000        0.00077353        0.00225396        0.00005978
     165         -0.358762        2.000000        0.00010568        0.00028777        0.00000650
     166         -0.358424        2.000000        0.00066500        0.00195634        0.00004777
     167         -0.357749        2.000000        0.00008101        0.00031792        0.00000149
     168         -0.357432        2.000000        0.01536799        0.04224862        0.00062913
     169         -0.356226        2.000000        0.00000135        0.00000624        0.00000012
     170         -0.355206        2.000000        0.00010622        0.00032776        0.00000274
     171         -0.354151        2.000000        0.00000369        0.00002177        0.00000017
     172         -0.353675        2.000000        0.00001442        0.00006448        0.00000045
     173         -0.353241        2.000000        0.00010988        0.00031656        0.00000442
     174         -0.352384        2.000000        0.00055854        0.00158790        0.00001765
     175         -0.349281        2.000000        0.00001497        0.00003343        0.00000063
     176         -0.348101        2.000000        0.00004679        0.00013811        0.00000196
     177         -0.347056        2.000000        0.00001536        0.00005404        0.00000141
     178         -0.346421        2.000000        0.00000492        0.00001580        0.00000013
     179         -0.346099        2.000000        0.00000216        0.00001086        0.00000006
     180         -0.344626        2.000000        0.00001348        0.00003820        0.00000071
     181         -0.344227        2.000000        0.00000351        0.00002509        0.00000035
     182         -0.344158        2.000000        0.00000710        0.00002518        0.00000031
     183         -0.343279        2.000000        0.00001139        0.00003239        0.00000055
     184         -0.342186        2.000000        0.00001339        0.00003326        0.00000072
     185         -0.341638        2.000000        0.00000261        0.00001647        0.00000054
     186         -0.341223        2.000000        0.00048262        0.00137546        0.00002087
     187         -0.341051        2.000000        0.00000174        0.00001488        0.00000025
     188         -0.340810        2.000000        0.00017331        0.00047281        0.00000753
     189         -0.340344        2.000000        0.00000126        0.00000389        0.00000005
     190         -0.340103        2.000000        0.00006962        0.00032365        0.00000644
     191         -0.339538        2.000000        0.00006090        0.00022715        0.00000621
     192         -0.338904        2.000000        0.00004559        0.00016741        0.00000412
     193         -0.338737        2.000000        0.00106277        0.00464370        0.00012222
     194         -0.337951        2.000000        0.00031201        0.00147840        0.00003899
     195         -0.337180        2.000000        0.00002482        0.00011604        0.00000221
     196         -0.336960        2.000000        0.00005750        0.00020638        0.00001354
     197         -0.336163        2.000000        0.00000931        0.00001500        0.00000057
     198         -0.335733        2.000000        0.00001869        0.00004866        0.00000146
     199         -0.334956        2.000000        0.00000913        0.00010528        0.00000200
     200         -0.333834        2.000000        0.00010673        0.00043917        0.00001114
     201         -0.331670        2.000000        0.00257196        0.01174225        0.00032392
     202         -0.330715        2.000000        0.00001349        0.00012577        0.00000333
     203         -0.327469        2.000000        0.00000239        0.00000758        0.00000016
     204         -0.326924        2.000000        0.00002168        0.00008078        0.00000134
     205         -0.319799        2.000000        0.00002199        0.00007462        0.00000057
     206         -0.319625        2.000000        0.00000565        0.00004180        0.00000009
     207         -0.318771        2.000000        0.00000049        0.00000482        0.00000008
     208         -0.318487        2.000000        0.00000016        0.00000192        0.00000003
     209         -0.318151        2.000000        0.00000227        0.00001235        0.00000010
     210         -0.317254        2.000000        0.00000323        0.00001214        0.00000008
     211         -0.316615        2.000000        0.00000453        0.00001431        0.00000012
     212         -0.316317        2.000000        0.00000022        0.00000118        0.00000002
     213         -0.315885        2.000000        0.00000066        0.00000296        0.00000002
     214         -0.315512        2.000000        0.00000071        0.00000200        0.00000002
     215         -0.314742        2.000000        0.00000041        0.00000305        0.00000006
     216         -0.314240        2.000000        0.00000077        0.00000255        0.00000004
     217         -0.313093        2.000000        0.00000057        0.00000551        0.00000011
     218         -0.312538        2.000000        0.00000261        0.00001333        0.00000012
     219         -0.312396        2.000000        0.00000115        0.00000945        0.00000019
     220         -0.312037        2.000000        0.00000226        0.00001551        0.00000016
     221         -0.310598        2.000000        0.00000925        0.00003137        0.00000025
     222         -0.310221        2.000000        0.00000015        0.00000168        0.00000002
     223         -0.309408        2.000000        0.00000030        0.00000269        0.00000005
     224         -0.309395        2.000000        0.00000328        0.00001156        0.00000014
     225         -0.309234        2.000000        0.00000351        0.00001194        0.00000010
     226         -0.308381        2.000000        0.00000544        0.00003120        0.00000032
     227         -0.308250        2.000000        0.00001371        0.00011552        0.00000213
     228         -0.308097        2.000000        0.00000036        0.00000212        0.00000002
     229         -0.307179        2.000000        0.00000450        0.00002826        0.00000053
     230         -0.305966        2.000000        0.00000024        0.00000100        0.00000001
     231         -0.305190        2.000000        0.00000361        0.00001490        0.00000010
     232         -0.305170        2.000000        0.00000111        0.00000434        0.00000004
     233         -0.303881        2.000000        0.00000219        0.00001073        0.00000011
     234         -0.303186        2.000000        0.00000003        0.00000017        0.00000000
     235         -0.302644        2.000000        0.00002087        0.00012267        0.00000235
     236         -0.302137        2.000000        0.00001120        0.00007625        0.00000146
     237         -0.301410        2.000000        0.00000253        0.00000931        0.00000007
     238         -0.301270        2.000000        0.00002977        0.00017107        0.00000323
     239         -0.300504        2.000000        0.00002373        0.00019093        0.00000258
     240         -0.300347        2.000000        0.00019680        0.00118034        0.00002206
     241         -0.300010        2.000000        0.00000022        0.00000105        0.00000001
     242         -0.298878        2.000000        0.00000097        0.00000517        0.00000005
     243         -0.298505        2.000000        0.00002930        0.00023261        0.00000439
     244         -0.297847        2.000000        0.00000788        0.00005985        0.00000108
     245         -0.297156        2.000000        0.00000974        0.00007803        0.00000138
     246         -0.297046        2.000000        0.00000441        0.00003322        0.00000056
     247         -0.296671        2.000000        0.00000290        0.00002979        0.00000057
     248         -0.296618        2.000000        0.00000065        0.00000200        0.00000004
     249         -0.295969        2.000000        0.00000309        0.00000492        0.00000007
     250         -0.295348        2.000000        0.00002937        0.00013337        0.00000237
     251         -0.295087        2.000000        0.00000041        0.00000244        0.00000004
     252         -0.294369        2.000000        0.00000249        0.00001004        0.00000015
     253         -0.294183        2.000000        0.00000420        0.00003358        0.00000060
     254         -0.293640        2.000000        0.00000170        0.00001573        0.00000026
     255         -0.293246        2.000000        0.00000169        0.00000676        0.00000009
     256         -0.292577        2.000000        0.00000007        0.00000080        0.00000002
     257         -0.291994        2.000000        0.00000070        0.00000481        0.00000010
     258         -0.291705        2.000000        0.00000014        0.00000112        0.00000001
     259         -0.290928        2.000000        0.00000395        0.00002367        0.00000035
     260         -0.290306        2.000000        0.00000807        0.00004988        0.00000016
     261         -0.289901        2.000000        0.00002501        0.00009232        0.00000104
     262         -0.289451        2.000000        0.00001479        0.00009999        0.00000066
     263         -0.289043        2.000000        0.00000336        0.00001779        0.00000009
     264         -0.288015        2.000000        0.00000252        0.00001812        0.00000025
     265         -0.287861        2.000000        0.00000580        0.00004670        0.00000054
     266         -0.286936        2.000000        0.00000140        0.00000547        0.00000004
     267         -0.286667        2.000000        0.00000100        0.00000540        0.00000006
     268         -0.286302        2.000000        0.00000026        0.00000279        0.00000001
     269         -0.285607        2.000000        0.00000421        0.00003560        0.00000053
     270         -0.285328        2.000000        0.00000227        0.00002447        0.00000037
     271         -0.285085        2.000000        0.00000088        0.00000709        0.00000010
     272         -0.284841        2.000000        0.00000335        0.00003505        0.00000056
     273         -0.284131        2.000000        0.00000234        0.00002448        0.00000037
     274         -0.283572        2.000000        0.00000211        0.00002400        0.00000039
     275         -0.283249        2.000000        0.00000402        0.00005286        0.00000085
     276         -0.283050        2.000000        0.00000274        0.00004022        0.00000062
     277         -0.282957        2.000000        0.00000012        0.00000151        0.00000002
     278         -0.282638        2.000000        0.00000435        0.00004966        0.00000074
     279         -0.282393        2.000000        0.00008435        0.00111445        0.00001759
     280         -0.282190        2.000000        0.00000134        0.00000310        0.00000004
     281         -0.281812        2.000000        0.00000079        0.00000410        0.00000005
     282         -0.281718        2.000000        0.00000360        0.00004388        0.00000072
     283         -0.281529        2.000000        0.00001653        0.00015293        0.00000222
     284         -0.281304        2.000000        0.00002459        0.00023278        0.00000345
     285         -0.281056        2.000000        0.00001006        0.00005413        0.00000064
     286         -0.280948        2.000000        0.00000143        0.00001259        0.00000024
     287         -0.280843        2.000000        0.00000391        0.00005440        0.00000076
     288         -0.280780        2.000000        0.00000506        0.00004844        0.00000066
     289         -0.280282        2.000000        0.00001220        0.00010159        0.00000142
     290         -0.279956        2.000000        0.00000281        0.00001165        0.00000010
     291         -0.279807        2.000000        0.00000756        0.00007663        0.00000127
     292         -0.279686        2.000000        0.00004763        0.00043244        0.00000741
     293         -0.279589        2.000000        0.00000141        0.00001446        0.00000028
     294         -0.279495        2.000000        0.00000889        0.00004236        0.00000066
     295         -0.279217        2.000000        0.00001109        0.00009435        0.00000137
     296         -0.279093        2.000000        0.00015463        0.00139452        0.00001979
     297         -0.278951        2.000000        0.00001753        0.00015890        0.00000235
     298         -0.278592        2.000000        0.00003865        0.00037253        0.00000523
     299         -0.278433        2.000000        0.00000238        0.00002414        0.00000033
     300         -0.278210        2.000000        0.00000371        0.00004737        0.00000069
     301         -0.278135        2.000000        0.00000163        0.00001002        0.00000016
     302         -0.278031        2.000000        0.00000047        0.00000242        0.00000006
     303         -0.277650        2.000000        0.00003703        0.00035246        0.00000494
     304         -0.277312        2.000000        0.00001481        0.00014451        0.00000209
     305         -0.276990        2.000000        0.00006175        0.00057069        0.00000831
     306         -0.276609        2.000000        0.00000260        0.00002437        0.00000031
     307         -0.276405        2.000000        0.00004528        0.00038211        0.00000516