# Projected DOS for list 10 of 3 atoms, at iteration step i = 0, E(Fermi) =    -0.060510 a.u.
#     MO Eigenvalue [a.u.]      Occupation                 s                 p                 d
       1         -0.895259        2.000000        0.00000000        0.00000000        0.00000000
       2         -0.868125        2.000000        0.00000000        0.00000000        0.00000000
       3         -0.864615        2.000000        0.00000002        0.00000001        0.00000000
       4         -0.857993        2.000000        0.00000509        0.00000246        0.00000002
       5         -0.853826        2.000000        0.00170571        0.00055561        0.00000269
       6         -0.850378        2.000000        0.00000074        0.00000114        0.00000000
       7         -0.848222        2.000000        0.00000669        0.00000626        0.00000001
       8         -0.847335        2.000000        0.00007713        0.00003311        0.00000043
       9         -0.842977        2.000000        0.00002239        0.00000798        0.00000003
      10         -0.841504        2.000000        0.00389363        0.00136298        0.00000570
      11         -0.840654        2.000000        0.00113570        0.00036926        0.00000608
      12         -0.839688        2.000000        0.00031663        0.00037059        0.00000840
      13         -0.839172        2.000000        0.00452979        0.00217504        0.00001546
      14         -0.838522        2.000000        0.00206683        0.00075586        0.00000498
      15         -0.837015        2.000000        0.00775529        0.00311814        0.00002021
      16         -0.832753        2.000000        0.00298755        0.00073259        0.00000195
      17         -0.832000        2.000000        0.00001672        0.00007158        0.00000342
      18         -0.831644        2.000000        0.00060040        0.00013767        0.00000254
      19         -0.830027        2.000000        0.00040420        0.00011363        0.00000091
      20         -0.829447        2.000000        0.00777096        0.00183798        0.00001595
      21         -0.828640        2.000000        0.02222358        0.00614354        0.00001719
      22         -0.828147        2.000000        0.00538601        0.00144905        0.00000446
      23         -0.827394        2.000000        0.00283052        0.00082776        0.00000296
      24         -0.826637        2.000000        0.03226230        0.00960084        0.00001952
      25         -0.825864        2.000000        0.02059753        0.00567314        0.00001447
      26         -0.825007        2.000000        0.00862564        0.00275834        0.00002251
      27         -0.824149        2.000000        0.00149645        0.00038767        0.00000209
      28         -0.823003        2.000000        0.01458095        0.00426135        0.00002188
      29         -0.821982        2.000000        0.01123038        0.00200988        0.00002339
      30         -0.820560        2.000000        0.01839552        0.00397698        0.00002394
      31         -0.820223        2.000000        0.00614878        0.00114088        0.00001634
      32         -0.820029        2.000000        0.01249425        0.00262939        0.00002346
      33         -0.819390        2.000000        0.00294836        0.00109560        0.00000316
      34         -0.818664        2.000000        0.18321879        0.04047462        0.00025811
      35         -0.817548        2.000000        0.01520083        0.00340328        0.00002336
      36         -0.816472        2.000000        0.01143157        0.00435926        0.00000798
      37         -0.815444        2.000000        0.00576435        0.00219199        0.00000465
      38         -0.814805        2.000000        0.00075921        0.00017525        0.00000097
      39         -0.814124        2.000000        0.01452602        0.00380518        0.00002814
      40         -0.813968        2.000000        0.00600455        0.00160664        0.00001290
      41         -0.813053        2.000000        0.00049824        0.00020853        0.00000050
      42         -0.812601        2.000000        0.00153578        0.00057802        0.00000205
      43         -0.811948        2.000000        0.02302646        0.00493007        0.00007216
      44         -0.811687        2.000000        0.04252934        0.01071423        0.00008704
      45         -0.810574        2.000000        0.00064007        0.00023414        0.00000067
      46         -0.809310        2.000000        0.00035698        0.00007869        0.00000098
      47         -0.808268        2.000000        0.00042619        0.00069342        0.00000165
      48         -0.807324        2.000000        0.00386438        0.00081292        0.00001673
      49         -0.806602        2.000000        0.00642170        0.00239058        0.00008377
      50         -0.806376        2.000000        0.00160993        0.00157914        0.00000205
      51         -0.806147        2.000000        0.00077252        0.00068670        0.00000084
      52         -0.804835        2.000000        0.00832576        0.00253363        0.00005363
      53         -0.804321        2.000000        0.00039703        0.00026732        0.00000952
      54         -0.803943        2.000000        0.17105471        0.04623152        0.00051631
      55         -0.803401        2.000000        0.00983359        0.00322520        0.00002973
      56         -0.802648        2.000000        0.00098226        0.00017948        0.00000700
      57         -0.801912        2.000000        0.02132116        0.00637269        0.00007455
      58         -0.801342        2.000000        0.00413951        0.00129321        0.00002038
      59         -0.800594        2.000000        0.00123016        0.00025264        0.00000864
      60         -0.799945        2.000000        0.00229498        0.00052684        0.00001030
      61         -0.799254        2.000000        0.00217879        0.00045075        0.00001468
      62         -0.798331        2.000000        0.00017951        0.00004688        0.00000104
      63         -0.797356        2.000000        0.00008877        0.00005696        0.00000103
      64         -0.795713        2.000000        0.00010148        0.00098651        0.00000200
      65         -0.795144        2.000000        0.00109467        0.00025487        0.00000886
      66         -0.794508        2.000000        0.00170255        0.00040562        0.00001239
      67         -0.793501        2.000000        0.00010314        0.00002627        0.00000087
      68         -0.792888        2.000000        0.00082464        0.00022379        0.00000414
      69         -0.792771        2.000000        0.00010636        0.00019806        0.00000553
      70         -0.792166        2.000000        0.00114488        0.00069015        0.00000193
      71         -0.791795        2.000000        0.00884705        0.00529073        0.00001448
      72         -0.790466        2.000000        0.00162263        0.00040696        0.00001212
      73         -0.789691        2.000000        0.00001971        0.00002360        0.00000004
      74         -0.789018        2.000000        0.00108622        0.00100847        0.00000123
      75         -0.788284        2.000000        0.00000042        0.00000296        0.00000001
      76         -0.787044        2.000000        0.00035904        0.00012161        0.00000176
      77         -0.785765        2.000000        0.00000284        0.00000137        0.00000001
      78         -0.783215        2.000000        0.00000108        0.00000053        0.00000001
      79         -0.782853        2.000000        0.00000067        0.00000053        0.00000001
      80         -0.782388        2.000000        0.00000263        0.00000406        0.00000001
      81         -0.781821        2.000000        0.00000001        0.00000005        0.00000000
      82         -0.780108        2.000000        0.00000064        0.00000634        0.00000002
      83         -0.778906        2.000000        0.00000000        0.00000001        0.00000000
      84         -0.778076        2.000000        0.00000058        0.00000029        0.00000001
      85         -0.775317        2.000000        0.00000053        0.00000450        0.00000001
      86         -0.773086        2.000000        0.00000768        0.00000343        0.00000004
      87         -0.772920        2.000000        0.00000046        0.00000022        0.00000000
      88         -0.771409        2.000000        0.00004791        0.00001452        0.00000077
      89         -0.769725        2.000000        0.00000051        0.00000014        0.00000001
      90         -0.769226        2.000000        0.00000028        0.00000010        0.00000001
      91         -0.767566        2.000000        0.00000003        0.00000005        0.00000000
      92         -0.766737        2.000000        0.00000000        0.00000000        0.00000000
      93         -0.755845        2.000000        0.00000000        0.00000000        0.00000000
      94         -0.752538        2.000000        0.00000000        0.00000000        0.00000000
      95         -0.747161        2.000000        0.00000000        0.00000000        0.00000000
      96         -0.736999        2.000000        0.00000000        0.00000000        0.00000000
      97         -0.726419        2.000000        0.00000000        0.00000000        0.00000000
      98         -0.719129        2.000000        0.00000000        0.00000000        0.00000000
      99         -0.696511        2.000000        0.00000000        0.00000000        0.00000000
     100         -0.460315        2.000000        0.00000000        0.00000000        0.00000000
     101         -0.427906        2.000000        0.00000000        0.00000000        0.00000000
     102         -0.424376        2.000000        0.00000000        0.00000000        0.00000000
     103         -0.405781        2.000000        0.00000233        0.00001218        0.00000034
     104         -0.401299        2.000000        0.00169924        0.01017308        0.00027423
     105         -0.398347        2.000000        0.00017174        0.00103376        0.00002624
     106         -0.398267        2.000000        0.00267291        0.01252888        0.00027567
     107         -0.397295        2.000000        0.00013243        0.00061766        0.00001369
     108         -0.395753        2.000000        0.00583525        0.02628081        0.00059091
     109         -0.395158        2.000000        0.00018755        0.00073653        0.00001506
     110         -0.394493        2.000000        0.00016085        0.00107171        0.00003417
     111         -0.394192        2.000000        0.00010880        0.00037895        0.00000951
     112         -0.393919        2.000000        0.00007323        0.00027343        0.00000621
     113         -0.393017        2.000000        0.00042915        0.00182585        0.00004167
     114         -0.391793        2.000000        0.00003410        0.00013937        0.00000158
     115         -0.389280        2.000000        0.00059258        0.00313654        0.00006782
     116         -0.388145        2.000000        0.00000231        0.00001233        0.00000030
     117         -0.387090        2.000000        0.00037032        0.00300574        0.00005697
     118         -0.386138        2.000000        0.00002409        0.00010662        0.00000232
     119         -0.385161        2.000000        0.00000231        0.00000744        0.00000016
     120         -0.384984        2.000000        0.00008999        0.00037344        0.00000608
     121         -0.383823        2.000000        0.00071822        0.00205133        0.00005620
     122         -0.383101        2.000000        0.00005161        0.00015281        0.00000389
     123         -0.383025        2.000000        0.00010396        0.00031926        0.00000598
     124         -0.381208        2.000000        0.00013924        0.00043865        0.00000892
     125         -0.380660        2.000000        0.00105902        0.00322014        0.00006618
     126         -0.380323        2.000000        0.00044972        0.00159450        0.00002622
     127         -0.379623        2.000000        0.00021055        0.00065052        0.00001291
     128         -0.379161        2.000000        0.01161389        0.03557969        0.00074996
     129         -0.378115        2.000000        0.00124347        0.00347796        0.00008540
     130         -0.377757        2.000000        0.00339315        0.01055234        0.00025569
     131         -0.377213        2.000000        0.00252724        0.00693115        0.00020048
     132         -0.376655        2.000000        0.00010615        0.00034848        0.00001031
     133         -0.376089        2.000000        0.00289852        0.00872218        0.00017589
     134         -0.375522        2.000000        0.00011705        0.00049475        0.00000710
     135         -0.373953        2.000000        0.00072031        0.00254177        0.00004310
     136         -0.373564        2.000000        0.03390193        0.09926789        0.00222911
     137         -0.372991        2.000000        0.00728672        0.02121987        0.00046029
     138         -0.372433        2.000000        0.00005083        0.00014498        0.00000445
     139         -0.372037        2.000000        0.00197498        0.00533590        0.00014103
     140         -0.371632        2.000000        0.01030356        0.02991934        0.00065335
     141         -0.371006        2.000000        0.00376727        0.01123849        0.00024453
     142         -0.369840        2.000000        0.00026963        0.00110687        0.00002932
     143         -0.369635        2.000000        0.00609560        0.02058864        0.00051440
     144         -0.369153        2.000000        0.00013671        0.00041093        0.00000647
     145         -0.369131        2.000000        0.00003005        0.00009216        0.00000197
     146         -0.368498        2.000000        0.00005267        0.00020739        0.00000600
     147         -0.367984        2.000000        0.00049492        0.00138959        0.00004169
     148         -0.367257        2.000000        0.00001593        0.00012049        0.00000240
     149         -0.366951        2.000000        0.00134645        0.00362996        0.00010317
     150         -0.366882        2.000000        0.01243690        0.03380512        0.00093126
     151         -0.366558        2.000000        0.00736464        0.01996817        0.00056082
     152         -0.366087        2.000000        0.00964172        0.02691147        0.00073123
     153         -0.365532        2.000000        0.00624830        0.01728678        0.00046697
     154         -0.365292        2.000000        0.00013389        0.00034850        0.00001190
     155         -0.364873        2.000000        0.00031370        0.00081029        0.00002901
     156         -0.364499        2.000000        0.00369873        0.01024440        0.00027034
     157         -0.364385        2.000000        0.00002439        0.00006832        0.00000207
     158         -0.363409        2.000000        0.00001238        0.00004904        0.00000054
     159         -0.362731        2.000000        0.00000599        0.00001701        0.00000050
     160         -0.361690        2.000000        0.00085103        0.00236429        0.00005737
     161         -0.361463        2.000000        0.00011300        0.00034466        0.00000636
     162         -0.360695        2.000000        0.03135917        0.08691350        0.00215508
     163         -0.359909        2.000000        0.00000988        0.00003692        0.00000055
     164         -0.358869        2.000000        0.00107033        0.00303778        0.00006691
     165         -0.358762        2.000000        0.00005002        0.00014113        0.00000314
     166         -0.358424        2.000000        0.00394505        0.01106388        0.00025566
     167         -0.357749        2.000000        0.00030725        0.00087135        0.00001930
     168         -0.357432        2.000000        0.00000087        0.00000634        0.00000003
     169         -0.356226        2.000000        0.00796419        0.02220674        0.00052146
     170         -0.355206        2.000000        0.00266716        0.00732627        0.00018371
     171         -0.354151        2.000000        0.00015139        0.00045934        0.00000885
     172         -0.353675        2.000000        0.00028895        0.00072769        0.00002329
     173         -0.353241        2.000000        0.00016057        0.00097281        0.00001881
     174         -0.352384        2.000000        0.00025977        0.00066822        0.00001835
     175         -0.349281        2.000000        0.00008724        0.00032484        0.00000441
     176         -0.348101        2.000000        0.00050096        0.00141575        0.00003509
     177         -0.347056        2.000000        0.00169666        0.00463426        0.00010821
     178         -0.346421        2.000000        0.00035562        0.00093089        0.00002572
     179         -0.346099        2.000000        0.00006521        0.00033031        0.00000406
     180         -0.344626        2.000000        0.00754704        0.01980345        0.00043247
     181         -0.344227        2.000000        0.00000164        0.00000551        0.00000018
     182         -0.344158        2.000000        0.02407836        0.06636032        0.00141394
     183         -0.343279        2.000000        0.00045130        0.00132869        0.00002664
     184         -0.342186        2.000000        0.00050800        0.00151868        0.00003025
     185         -0.341638        2.000000        0.00448295        0.01278583        0.00025789
     186         -0.341223        2.000000        0.00071675        0.00198267        0.00004135
     187         -0.341051        2.000000        0.00002894        0.00008142        0.00000175
     188         -0.340810        2.000000        0.00123840        0.00340654        0.00007314
     189         -0.340344        2.000000        0.00043956        0.00127050        0.00002504
     190         -0.340103        2.000000        0.00001838        0.00005402        0.00000136
     191         -0.339538        2.000000        0.00107815        0.00318248        0.00006161
     192         -0.338904        2.000000        0.00357707        0.01002643        0.00020295
     193         -0.338737        2.000000        0.00025770        0.00073662        0.00001477
     194         -0.337951        2.000000        0.00000028        0.00000163        0.00000002
     195         -0.337180        2.000000        0.00000019        0.00000090        0.00000001
     196         -0.336960        2.000000        0.00001384        0.00004236        0.00000064
     197         -0.336163        2.000000        0.00000419        0.00001134        0.00000029
     198         -0.335733        2.000000        0.00000347        0.00000987        0.00000027
     199         -0.334956        2.000000        0.00005511        0.00046355        0.00000482
     200         -0.333834        2.000000        0.00000211        0.00002664        0.00000029
     201         -0.331670        2.000000        0.00000107        0.00000677        0.00000007
     202         -0.330715        2.000000        0.00003429        0.00025578        0.00000122
     203         -0.327469        2.000000        0.00000058        0.00000384        0.00000002
     204         -0.326924        2.000000        0.00000018        0.00000078        0.00000001
     205         -0.319799        2.000000        0.00000919        0.00006740        0.00000073
     206         -0.319625        2.000000        0.00000002        0.00000010        0.00000000
     207         -0.318771        2.000000        0.00000328        0.00002313        0.00000014
     208         -0.318487        2.000000        0.00003042        0.00007847        0.00000132
     209         -0.318151        2.000000        0.00045323        0.00132752        0.00001733
     210         -0.317254        2.000000        0.00001472        0.00004372        0.00000064
     211         -0.316615        2.000000        0.00005417        0.00025072        0.00000235
     212         -0.316317        2.000000        0.00000021        0.00000142        0.00000002
     213         -0.315885        2.000000        0.00008852        0.00027874        0.00000370
     214         -0.315512        2.000000        0.00000803        0.00004129        0.00000057
     215         -0.314742        2.000000        0.00014267        0.00057900        0.00000696
     216         -0.314240        2.000000        0.00001907        0.00004881        0.00000081
     217         -0.313093        2.000000        0.00013825        0.00044371        0.00000496
     218         -0.312538        2.000000        0.00002767        0.00027201        0.00000145
     219         -0.312396        2.000000        0.00000281        0.00001764        0.00000045
     220         -0.312037        2.000000        0.00153530        0.00456986        0.00004846
     221         -0.310598        2.000000        0.00006164        0.00033816        0.00000410
     222         -0.310221        2.000000        0.00041919        0.00121289        0.00001438
     223         -0.309408        2.000000        0.00001728        0.00006134        0.00000045
     224         -0.309395        2.000000        0.00026727        0.00070104        0.00001180
     225         -0.309234        2.000000        0.00007114        0.00025031        0.00000206
     226         -0.308381        2.000000        0.00020448        0.00082035        0.00000939
     227         -0.308250        2.000000        0.00000682        0.00001507        0.00000016
     228         -0.308097        2.000000        0.00008648        0.00040219        0.00000482
     229         -0.307179        2.000000        0.00032776        0.00158685        0.00001752
     230         -0.305966        2.000000        0.00011164        0.00039113        0.00000265
     231         -0.305190        2.000000        0.00001266        0.00006976        0.00000083
     232         -0.305170        2.000000        0.00000635        0.00003222        0.00000044
     233         -0.303881        2.000000        0.00000468        0.00003053        0.00000034
     234         -0.303186        2.000000        0.00003957        0.00008528        0.00000145
     235         -0.302644        2.000000        0.00005547        0.00018433        0.00000279
     236         -0.302137        2.000000        0.00012473        0.00046344        0.00000623
     237         -0.301410        2.000000        0.00035860        0.00141638        0.00001386
     238         -0.301270        2.000000        0.00016371        0.00051921        0.00000645
     239         -0.300504        2.000000        0.00004735        0.00036284        0.00000175
     240         -0.300347        2.000000        0.00030912        0.00106026        0.00000979
     241         -0.300010        2.000000        0.00000031        0.00000117        0.00000001
     242         -0.298878        2.000000        0.00021098        0.00156732        0.00000699
     243         -0.298505        2.000000        0.00003276        0.00025901        0.00000152
     244         -0.297847        2.000000        0.00003835        0.00026371        0.00000243
     245         -0.297156        2.000000        0.00005948        0.00062751        0.00000369
     246         -0.297046        2.000000        0.00035593        0.00158026        0.00001142
     247         -0.296671        2.000000        0.00006058        0.00052371        0.00000250
     248         -0.296618        2.000000        0.00002047        0.00011868        0.00000030
     249         -0.295969        2.000000        0.00014305        0.00130597        0.00000981
     250         -0.295348        2.000000        0.00007829        0.00038374        0.00000336
     251         -0.295087        2.000000        0.00001095        0.00004400        0.00000043
     252         -0.294369        2.000000        0.00003862        0.00017517        0.00000145
     253         -0.294183        2.000000        0.00005898        0.00031940        0.00000171
     254         -0.293640        2.000000        0.00019539        0.00082011        0.00000702
     255         -0.293246        2.000000        0.00016423        0.00091959        0.00000433
     256         -0.292577        2.000000        0.00000811        0.00005222        0.00000012
     257         -0.291994        2.000000        0.00002436        0.00010770        0.00000072
     258         -0.291705        2.000000        0.00001544        0.00006284        0.00000061
     259         -0.290928        2.000000        0.00006283        0.00021876        0.00000106
     260         -0.290306        2.000000        0.00029371        0.00135325        0.00000834
     261         -0.289901        2.000000        0.00004253        0.00021961        0.00000203
     262         -0.289451        2.000000        0.00018269        0.00076511        0.00000194
     263         -0.289043        2.000000        0.00010386        0.00033953        0.00000420
     264         -0.288015        2.000000        0.00024156        0.00088073        0.00000791
     265         -0.287861        2.000000        0.00005241        0.00022538        0.00000095
     266         -0.286936        2.000000        0.00000635        0.00002029        0.00000004
     267         -0.286667        2.000000        0.00008947        0.00028168        0.00000277
     268         -0.286302        2.000000        0.00006882        0.00031320        0.00000173
     269         -0.285607        2.000000        0.00002339        0.00007890        0.00000087
     270         -0.285328        2.000000        0.00013956        0.00053037        0.00000360
     271         -0.285085        2.000000        0.00001770        0.00009862        0.00000022
     272         -0.284841        2.000000        0.00038224        0.00127899        0.00001045
     273         -0.284131        2.000000        0.00009261        0.00040645        0.00000189
     274         -0.283572        2.000000        0.00005455        0.00022808        0.00000186
     275         -0.283249        2.000000        0.00002440        0.00010196        0.00000073
     276         -0.283050        2.000000        0.00001745        0.00009417        0.00000062
     277         -0.282957        2.000000        0.00012429        0.00051382        0.00000328
     278         -0.282638        2.000000        0.00004611        0.00014963        0.00000108
     279         -0.282393        2.000000        0.00038455        0.00185318        0.00001335
     280         -0.282190        2.000000        0.00002197        0.00008918        0.00000081
     281         -0.281812        2.000000        0.00009493        0.00050038        0.00000239
     282         -0.281718        2.000000        0.00001880        0.00006205        0.00000016
     283         -0.281529        2.000000        0.00000363        0.00001524        0.00000007
     284         -0.281304        2.000000        0.00000243        0.00002056        0.00000014
     285         -0.281056        2.000000        0.00022218        0.00111264        0.00000679
     286         -0.280948        2.000000        0.00002186        0.00010872        0.00000094
     287         -0.280843        2.000000        0.00012106        0.00054188        0.00000351
     288         -0.280780        2.000000        0.00004641        0.00016767        0.00000133
     289         -0.280282        2.000000        0.00005769        0.00032812        0.00000138
     290         -0.279956        2.000000        0.00006307        0.00032216        0.00000145
     291         -0.279807        2.000000        0.00007573        0.00035371        0.00000273
     292         -0.279686        2.000000        0.00007942        0.00031141        0.00000101
     293         -0.279589        2.000000        0.00001275        0.00007682        0.00000023
     294         -0.279495        2.000000        0.00022032        0.00101731        0.00000397
     295         -0.279217        2.000000        0.00027202        0.00120484        0.00001076
     296         -0.279093        2.000000        0.00024543        0.00140028        0.00000932
     297         -0.278951        2.000000        0.00008242        0.00036329        0.00000147
     298         -0.278592        2.000000        0.00006618        0.00017466        0.00000102
     299         -0.278433        2.000000        0.00040848        0.00186053        0.00000993
     300         -0.278210        2.000000        0.00010073        0.00056226        0.00000228
     301         -0.278135        2.000000        0.00003788        0.00014233        0.00000025
     302         -0.278031        2.000000        0.00032564        0.00152824        0.00001037
     303         -0.277650        2.000000        0.00013079        0.00044127        0.00000383
     304         -0.277312        2.000000        0.00004516        0.00016862        0.00000050
     305         -0.276990        2.000000        0.00034051        0.00132310        0.00000750
     306         -0.276609        2.000000        0.00001211        0.00006364        0.00000033
     307         -0.276405        2.000000        0.00014548        0.00069498        0.00000447