# Projected DOS for list 89 of 3 atoms, at iteration step i = 0, E(Fermi) =    -0.060510 a.u.
#     MO Eigenvalue [a.u.]      Occupation                 s                 p                 d
       1         -0.895259        2.000000        0.00000122        0.00000253        0.00000010
       2         -0.868125        2.000000        0.00026888        0.00043781        0.00000286
       3         -0.864615        2.000000        0.00004959        0.00019357        0.00000588
       4         -0.857993        2.000000        0.00000001        0.00000001        0.00000000
       5         -0.853826        2.000000        0.00000001        0.00000003        0.00000000
       6         -0.850378        2.000000        0.00000115        0.00000150        0.00000006
       7         -0.848222        2.000000        0.00005119        0.00004496        0.00000140
       8         -0.847335        2.000000        0.00000028        0.00000017        0.00000000
       9         -0.842977        2.000000        0.00000805        0.00001106        0.00000005
      10         -0.841504        2.000000        0.00003608        0.00002167        0.00000007
      11         -0.840654        2.000000        0.00001532        0.00004439        0.00000028
      12         -0.839688        2.000000        0.00003558        0.00003988        0.00000013
      13         -0.839172        2.000000        0.00000033        0.00000256        0.00000002
      14         -0.838522        2.000000        0.00000017        0.00000122        0.00000001
      15         -0.837015        2.000000        0.00000016        0.00000017        0.00000000
      16         -0.832753        2.000000        0.00000407        0.00000682        0.00000006
      17         -0.832000        2.000000        0.00001730        0.00001451        0.00000006
      18         -0.831644        2.000000        0.00001992        0.00001139        0.00000005
      19         -0.830027        2.000000        0.00000690        0.00000808        0.00000002
      20         -0.829447        2.000000        0.00003442        0.00001801        0.00000005
      21         -0.828640        2.000000        0.00000105        0.00001762        0.00000007
      22         -0.828147        2.000000        0.00003386        0.00000775        0.00000006
      23         -0.827394        2.000000        0.00009472        0.00003261        0.00000019
      24         -0.826637        2.000000        0.00001644        0.00001611        0.00000019
      25         -0.825864        2.000000        0.00000650        0.00003898        0.00000034
      26         -0.825007        2.000000        0.00006134        0.00007525        0.00000027
      27         -0.824149        2.000000        0.00004285        0.00001952        0.00000029
      28         -0.823003        2.000000        0.00000190        0.00000702        0.00000009
      29         -0.821982        2.000000        0.00004368        0.00000903        0.00000008
      30         -0.820560        2.000000        0.00015367        0.00004970        0.00000027
      31         -0.820223        2.000000        0.00000044        0.00001791        0.00000005
      32         -0.820029        2.000000        0.00026407        0.00008734        0.00000051
      33         -0.819390        2.000000        0.00152689        0.00047094        0.00000305
      34         -0.818664        2.000000        0.00020256        0.00006219        0.00000043
      35         -0.817548        2.000000        0.00000097        0.00000155        0.00000001
      36         -0.816472        2.000000        0.00004014        0.00001825        0.00000016
      37         -0.815444        2.000000        0.00057819        0.00014071        0.00000092
      38         -0.814805        2.000000        0.00000524        0.00001512        0.00000076
      39         -0.814124        2.000000        0.00637849        0.00168497        0.00000983
      40         -0.813968        2.000000        0.01311872        0.00331781        0.00001896
      41         -0.813053        2.000000        0.00002271        0.00000498        0.00000003
      42         -0.812601        2.000000        0.00021675        0.00006371        0.00000034
      43         -0.811948        2.000000        0.00002079        0.00001309        0.00000010
      44         -0.811687        2.000000        0.00003058        0.00000620        0.00000004
      45         -0.810574        2.000000        0.00000704        0.00000986        0.00000006
      46         -0.809310        2.000000        0.04133195        0.01529669        0.00009925
      47         -0.808268        2.000000        0.00026473        0.00020485        0.00000205
      48         -0.807324        2.000000        0.00051569        0.00017648        0.00000090
      49         -0.806602        2.000000        0.00044473        0.00014855        0.00000063
      50         -0.806376        2.000000        0.00032759        0.00017703        0.00000080
      51         -0.806147        2.000000        0.00038617        0.00018996        0.00000091
      52         -0.804835        2.000000        0.00001986        0.00001399        0.00000009
      53         -0.804321        2.000000        0.00194437        0.00036984        0.00000206
      54         -0.803943        2.000000        0.00004313        0.00001062        0.00000003
      55         -0.803401        2.000000        0.00015967        0.00005229        0.00000014
      56         -0.802648        2.000000        0.00039986        0.00010129        0.00000070
      57         -0.801912        2.000000        0.00008110        0.00002377        0.00000008
      58         -0.801342        2.000000        0.00000937        0.00001495        0.00000010
      59         -0.800594        2.000000        0.00077922        0.00010240        0.00000201
      60         -0.799945        2.000000        0.00006240        0.00015174        0.00000072
      61         -0.799254        2.000000        0.00011719        0.00002438        0.00000148
      62         -0.798331        2.000000        0.00000386        0.00000235        0.00000004
      63         -0.797356        2.000000        0.00099242        0.00016300        0.00000193
      64         -0.795713        2.000000        0.00012792        0.00001892        0.00000043
      65         -0.795144        2.000000        0.00354123        0.00098206        0.00001760
      66         -0.794508        2.000000        0.01346132        0.00233922        0.00004376
      67         -0.793501        2.000000        0.03882264        0.00707250        0.00013641
      68         -0.792888        2.000000        0.00360710        0.00068799        0.00000832
      69         -0.792771        2.000000        0.00193925        0.00042395        0.00000487
      70         -0.792166        2.000000        0.02527622        0.00468799        0.00005930
      71         -0.791795        2.000000        0.00388577        0.00072509        0.00000948
      72         -0.790466        2.000000        0.00047245        0.00012299        0.00000058
      73         -0.789691        2.000000        0.00048008        0.00014303        0.00000269
      74         -0.789018        2.000000        0.00033643        0.00007530        0.00000056
      75         -0.788284        2.000000        0.03003530        0.00638581        0.00005770
      76         -0.787044        2.000000        0.00932634        0.00189712        0.00002256
      77         -0.785765        2.000000        0.34722114        0.07514972        0.00081153
      78         -0.783215        2.000000        0.01499351        0.00509271        0.00002747
      79         -0.782853        2.000000        0.09943396        0.02962158        0.00017967
      80         -0.782388        2.000000        0.00151105        0.00032740        0.00000395
      81         -0.781821        2.000000        0.00091190        0.00016198        0.00000404
      82         -0.780108        2.000000        0.00075671        0.00022549        0.00000164
      83         -0.778906        2.000000        0.00012745        0.00003450        0.00000032
      84         -0.778076        2.000000        0.00011712        0.00002714        0.00000093
      85         -0.775317        2.000000        0.00002416        0.00000920        0.00000004
      86         -0.773086        2.000000        0.00001332        0.00001323        0.00000014
      87         -0.772920        2.000000        0.00066399        0.00028424        0.00000133
      88         -0.771409        2.000000        0.00021491        0.00011378        0.00000126
      89         -0.769725        2.000000        0.00527744        0.00273785        0.00000466
      90         -0.769226        2.000000        0.00089094        0.00546056        0.00003932
      91         -0.767566        2.000000        0.03250440        0.01808669        0.00002643
      92         -0.766737        2.000000        0.00019426        0.00010580        0.00000416
      93         -0.755845        2.000000        0.00122837        0.00543734        0.00022951
      94         -0.752538        2.000000        0.05310189        0.03937370        0.00018333
      95         -0.747161        2.000000        0.00000106        0.00000054        0.00000001
      96         -0.736999        2.000000        0.00589049        0.00532383        0.00002746
      97         -0.726419        2.000000        0.00000640        0.00000447        0.00000003
      98         -0.719129        2.000000        0.00004107        0.00002871        0.00000108
      99         -0.696511        2.000000        0.00003200        0.00004469        0.00000221
     100         -0.460315        2.000000        0.00000022        0.00000113        0.00000003
     101         -0.427906        2.000000        0.00009443        0.00051889        0.00001287
     102         -0.424376        2.000000        0.00024747        0.00122573        0.00000653
     103         -0.405781        2.000000        0.00000016        0.00000107        0.00000004
     104         -0.401299        2.000000        0.00000001        0.00000002        0.00000000
     105         -0.398347        2.000000        0.00000003        0.00000012        0.00000000
     106         -0.398267        2.000000        0.00000010        0.00000070        0.00000002
     107         -0.397295        2.000000        0.00000122        0.00000519        0.00000007
     108         -0.395753        2.000000        0.00000165        0.00000518        0.00000011
     109         -0.395158        2.000000        0.00000024        0.00000068        0.00000002
     110         -0.394493        2.000000        0.00002907        0.00008557        0.00000253
     111         -0.394192        2.000000        0.00000203        0.00000577        0.00000017
     112         -0.393919        2.000000        0.00000039        0.00000219        0.00000005
     113         -0.393017        2.000000        0.00000331        0.00002318        0.00000063
     114         -0.391793        2.000000        0.00000508        0.00001537        0.00000038
     115         -0.389280        2.000000        0.00000010        0.00000075        0.00000002
     116         -0.388145        2.000000        0.00000386        0.00001792        0.00000032
     117         -0.387090        2.000000        0.00000044        0.00000121        0.00000002
     118         -0.386138        2.000000        0.00003804        0.00025931        0.00000713
     119         -0.385161        2.000000        0.00001090        0.00007235        0.00000221
     120         -0.384984        2.000000        0.00000205        0.00001615        0.00000060
     121         -0.383823        2.000000        0.00000041        0.00000228        0.00000005
     122         -0.383101        2.000000        0.00000007        0.00000093        0.00000002
     123         -0.383025        2.000000        0.00000040        0.00000254        0.00000012
     124         -0.381208        2.000000        0.00000110        0.00000719        0.00000021
     125         -0.380660        2.000000        0.00000024        0.00000153        0.00000005
     126         -0.380323        2.000000        0.00000092        0.00000362        0.00000005
     127         -0.379623        2.000000        0.00000014        0.00000109        0.00000003
     128         -0.379161        2.000000        0.00000030        0.00000062        0.00000003
     129         -0.378115        2.000000        0.00000555        0.00001731        0.00000057
     130         -0.377757        2.000000        0.00000068        0.00000201        0.00000009
     131         -0.377213        2.000000        0.00000066        0.00000477        0.00000012
     132         -0.376655        2.000000        0.00000025        0.00000313        0.00000006
     133         -0.376089        2.000000        0.00000333        0.00001957        0.00000042
     134         -0.375522        2.000000        0.00000455        0.00003969        0.00000074
     135         -0.373953        2.000000        0.00003352        0.00023061        0.00000471
     136         -0.373564        2.000000        0.00001654        0.00009939        0.00000179
     137         -0.372991        2.000000        0.00004002        0.00025259        0.00000426
     138         -0.372433        2.000000        0.00026159        0.00160275        0.00002857
     139         -0.372037        2.000000        0.00003204        0.00018441        0.00000331
     140         -0.371632        2.000000        0.00006716        0.00040753        0.00000697
     141         -0.371006        2.000000        0.00006564        0.00038864        0.00000723
     142         -0.369840        2.000000        0.00000094        0.00000653        0.00000014
     143         -0.369635        2.000000        0.00002277        0.00012970        0.00000248
     144         -0.369153        2.000000        0.00000089        0.00000465        0.00000008
     145         -0.369131        2.000000        0.00000836        0.00002806        0.00000073
     146         -0.368498        2.000000        0.00000168        0.00000943        0.00000022
     147         -0.367984        2.000000        0.00000623        0.00003250        0.00000071
     148         -0.367257        2.000000        0.00000046        0.00000291        0.00000005
     149         -0.366951        2.000000        0.00000053        0.00000239        0.00000004
     150         -0.366882        2.000000        0.00001615        0.00008694        0.00000138
     151         -0.366558        2.000000        0.00000291        0.00001423        0.00000021
     152         -0.366087        2.000000        0.00000031        0.00000158        0.00000003
     153         -0.365532        2.000000        0.00001333        0.00008013        0.00000146
     154         -0.365292        2.000000        0.00001094        0.00003165        0.00000088
     155         -0.364873        2.000000        0.00002725        0.00018607        0.00000461
     156         -0.364499        2.000000        0.00000887        0.00004790        0.00000106
     157         -0.364385        2.000000        0.00009702        0.00072648        0.00001515
     158         -0.363409        2.000000        0.00000141        0.00001615        0.00000027
     159         -0.362731        2.000000        0.00354163        0.01206850        0.00029262
     160         -0.361690        2.000000        0.00000510        0.00002762        0.00000068
     161         -0.361463        2.000000        0.00077594        0.00478190        0.00010997
     162         -0.360695        2.000000        0.00001263        0.00004765        0.00000081
     163         -0.359909        2.000000        0.00119132        0.00615838        0.00013533
     164         -0.358869        2.000000        0.00004773        0.00028304        0.00000519
     165         -0.358762        2.000000        0.00000559        0.00003028        0.00000062
     166         -0.358424        2.000000        0.00008120        0.00027766        0.00000620
     167         -0.357749        2.000000        0.00013182        0.00083093        0.00001516
     168         -0.357432        2.000000        0.00040472        0.00224715        0.00004627
     169         -0.356226        2.000000        0.00000454        0.00001602        0.00000032
     170         -0.355206        2.000000        0.00001450        0.00011297        0.00000240
     171         -0.354151        2.000000        0.00001884        0.00007531        0.00000258
     172         -0.353675        2.000000        0.00057025        0.00310319        0.00009693
     173         -0.353241        2.000000        0.00004716        0.00023222        0.00000457
     174         -0.352384        2.000000        0.00015378        0.00086089        0.00001506
     175         -0.349281        2.000000        0.00008388        0.00043055        0.00000939
     176         -0.348101        2.000000        0.00245611        0.01010100        0.00018124
     177         -0.347056        2.000000        0.00024534        0.00095426        0.00004449
     178         -0.346421        2.000000        0.00017129        0.00074663        0.00001085
     179         -0.346099        2.000000        0.00546029        0.01759080        0.00036598
     180         -0.344626        2.000000        0.00007181        0.00021348        0.00000558
     181         -0.344227        2.000000        0.00013821        0.00046809        0.00000928
     182         -0.344158        2.000000        0.00001909        0.00005738        0.00000208
     183         -0.343279        2.000000        0.00005935        0.00020545        0.00000379
     184         -0.342186        2.000000        0.00007885        0.00021163        0.00000694
     185         -0.341638        2.000000        0.00000816        0.00002697        0.00000055
     186         -0.341223        2.000000        0.00000279        0.00001651        0.00000010
     187         -0.341051        2.000000        0.00000346        0.00007852        0.00000082
     188         -0.340810        2.000000        0.00000286        0.00000836        0.00000021
     189         -0.340344        2.000000        0.00000618        0.00002070        0.00000065
     190         -0.340103        2.000000        0.00364785        0.01261256        0.00023316
     191         -0.339538        2.000000        0.00033817        0.00107264        0.00002231
     192         -0.338904        2.000000        0.00000038        0.00000131        0.00000003
     193         -0.338737        2.000000        0.00047515        0.00144617        0.00003187
     194         -0.337951        2.000000        0.00084584        0.00241628        0.00005929
     195         -0.337180        2.000000        0.00149269        0.00421137        0.00011006
     196         -0.336960        2.000000        0.00043881        0.00118811        0.00003201
     197         -0.336163        2.000000        0.00004880        0.00017097        0.00000475
     198         -0.335733        2.000000        0.00004050        0.00018019        0.00000266
     199         -0.334956        2.000000        0.01141632        0.03255946        0.00083421
     200         -0.333834        2.000000        0.01517191        0.04102710        0.00109560
     201         -0.331670        2.000000        0.00000220        0.00004759        0.00000040
     202         -0.330715        2.000000        0.02371892        0.06840920        0.00177441
     203         -0.327469        2.000000        0.00282636        0.00810909        0.00019972
     204         -0.326924        2.000000        0.00189091        0.00543846        0.00013547
     205         -0.319799        2.000000        0.00042842        0.00123269        0.00002889
     206         -0.319625        2.000000        0.00096317        0.00278776        0.00006242
     207         -0.318771        2.000000        0.14384785        0.41503554        0.00952458
     208         -0.318487        2.000000        0.00007822        0.00022614        0.00000514
     209         -0.318151        2.000000        0.00000260        0.00000765        0.00000016
     210         -0.317254        2.000000        0.00002224        0.00006466        0.00000143
     211         -0.316615        2.000000        0.00000719        0.00002120        0.00000045
     212         -0.316317        2.000000        0.00165651        0.00483728        0.00011575
     213         -0.315885        2.000000        0.00001301        0.00003758        0.00000085
     214         -0.315512        2.000000        0.00000009        0.00000026        0.00000001
     215         -0.314742        2.000000        0.00000032        0.00000107        0.00000002
     216         -0.314240        2.000000        0.00000137        0.00000401        0.00000010
     217         -0.313093        2.000000        0.00000244        0.00000711        0.00000018
     218         -0.312538        2.000000        0.00000415        0.00001225        0.00000026
     219         -0.312396        2.000000        0.00000186        0.00000546        0.00000013
     220         -0.312037        2.000000        0.00000297        0.00000862        0.00000020
     221         -0.310598        2.000000        0.00000338        0.00001017        0.00000021
     222         -0.310221        2.000000        0.00000022        0.00000079        0.00000002
     223         -0.309408        2.000000        0.00000027        0.00000091        0.00000002
     224         -0.309395        2.000000        0.00000138        0.00000418        0.00000009
     225         -0.309234        2.000000        0.00000079        0.00000238        0.00000005
     226         -0.308381        2.000000        0.00008843        0.00030631        0.00000799
     227         -0.308250        2.000000        0.00293561        0.00984974        0.00026333
     228         -0.308097        2.000000        0.00005503        0.00018435        0.00000510
     229         -0.307179        2.000000        0.00001257        0.00004142        0.00000140
     230         -0.305966        2.000000        0.00001061        0.00002756        0.00000145
     231         -0.305190        2.000000        0.00054850        0.00502423        0.00007168
     232         -0.305170        2.000000        0.00374839        0.02784630        0.00055208
     233         -0.303881        2.000000        0.00073457        0.00306190        0.00005941
     234         -0.303186        2.000000        0.00000169        0.00000520        0.00000015
     235         -0.302644        2.000000        0.00000585        0.00001728        0.00000058
     236         -0.302137        2.000000        0.00003650        0.00010655        0.00000356
     237         -0.301410        2.000000        0.00002064        0.00005655        0.00000199
     238         -0.301270        2.000000        0.00001847        0.00005314        0.00000189
     239         -0.300504        2.000000        0.00043878        0.00118763        0.00004378
     240         -0.300347        2.000000        0.00002056        0.00006345        0.00000203
     241         -0.300010        2.000000        0.00032614        0.00144540        0.00001665
     242         -0.298878        2.000000        0.00000054        0.00000214        0.00000007
     243         -0.298505        2.000000        0.00000101        0.00000676        0.00000008
     244         -0.297847        2.000000        0.00000091        0.00000618        0.00000007
     245         -0.297156        2.000000        0.00000466        0.00002564        0.00000040
     246         -0.297046        2.000000        0.00000031        0.00000140        0.00000003
     247         -0.296671        2.000000        0.00000469        0.00002143        0.00000040
     248         -0.296618        2.000000        0.00000070        0.00000383        0.00000006
     249         -0.295969        2.000000        0.00002915        0.00014063        0.00000238
     250         -0.295348        2.000000        0.00004007        0.00018834        0.00000333
     251         -0.295087        2.000000        0.00000000        0.00000001        0.00000000
     252         -0.294369        2.000000        0.00000141        0.00000652        0.00000012
     253         -0.294183        2.000000        0.00000050        0.00000279        0.00000005
     254         -0.293640        2.000000        0.00000053        0.00000180        0.00000004
     255         -0.293246        2.000000        0.00000061        0.00000290        0.00000006
     256         -0.292577        2.000000        0.00000008        0.00000025        0.00000001
     257         -0.291994        2.000000        0.00002310        0.00009315        0.00000194
     258         -0.291705        2.000000        0.00000027        0.00000086        0.00000002
     259         -0.290928        2.000000        0.00006279        0.00029009        0.00000577
     260         -0.290306        2.000000        0.00012243        0.00057010        0.00001124
     261         -0.289901        2.000000        0.00023563        0.00118678        0.00002284
     262         -0.289451        2.000000        0.00009783        0.00050383        0.00000953
     263         -0.289043        2.000000        0.00003035        0.00016624        0.00000303
     264         -0.288015        2.000000        0.00001308        0.00006193        0.00000110
     265         -0.287861        2.000000        0.00001874        0.00006587        0.00000097
     266         -0.286936        2.000000        0.00000015        0.00000158        0.00000002
     267         -0.286667        2.000000        0.00000080        0.00000359        0.00000006
     268         -0.286302        2.000000        0.00000148        0.00001473        0.00000020
     269         -0.285607        2.000000        0.00000065        0.00000228        0.00000005
     270         -0.285328        2.000000        0.00000027        0.00000157        0.00000002
     271         -0.285085        2.000000        0.00000065        0.00000287        0.00000004
     272         -0.284841        2.000000        0.00000078        0.00000347        0.00000007
     273         -0.284131        2.000000        0.00000037        0.00000255        0.00000002
     274         -0.283572        2.000000        0.00000029        0.00000246        0.00000004
     275         -0.283249        2.000000        0.00000050        0.00000251        0.00000005
     276         -0.283050        2.000000        0.00000075        0.00000420        0.00000007
     277         -0.282957        2.000000        0.00000065        0.00000304        0.00000002
     278         -0.282638        2.000000        0.00000127        0.00000522        0.00000011
     279         -0.282393        2.000000        0.00002895        0.00012338        0.00000245
     280         -0.282190        2.000000        0.00000008        0.00000051        0.00000001
     281         -0.281812        2.000000        0.00000012        0.00000063        0.00000001
     282         -0.281718        2.000000        0.00000539        0.00003220        0.00000041
     283         -0.281529        2.000000        0.00001172        0.00006322        0.00000083
     284         -0.281304        2.000000        0.00002174        0.00010154        0.00000167
     285         -0.281056        2.000000        0.00010998        0.00062367        0.00000773
     286         -0.280948        2.000000        0.00002585        0.00013565        0.00000194
     287         -0.280843        2.000000        0.00031467        0.00176829        0.00002238
     288         -0.280780        2.000000        0.00000560        0.00003800        0.00000041
     289         -0.280282        2.000000        0.00000009        0.00000565        0.00000005
     290         -0.279956        2.000000        0.00000007        0.00000095        0.00000001
     291         -0.279807        2.000000        0.00000081        0.00000617        0.00000010
     292         -0.279686        2.000000        0.00001645        0.00008412        0.00000155
     293         -0.279589        2.000000        0.00000342        0.00001370        0.00000027
     294         -0.279495        2.000000        0.00001731        0.00008690        0.00000140
     295         -0.279217        2.000000        0.00000429        0.00001733        0.00000030
     296         -0.279093        2.000000        0.00004652        0.00022644        0.00000299
     297         -0.278951        2.000000        0.00000472        0.00002391        0.00000025
     298         -0.278592        2.000000        0.00001190        0.00006039        0.00000078
     299         -0.278433        2.000000        0.00000119        0.00000535        0.00000009
     300         -0.278210        2.000000        0.00000160        0.00001036        0.00000009
     301         -0.278135        2.000000        0.00000114        0.00000540        0.00000002
     302         -0.278031        2.000000        0.00000103        0.00000459        0.00000001
     303         -0.277650        2.000000        0.00001135        0.00006202        0.00000068
     304         -0.277312        2.000000        0.00000719        0.00004407        0.00000040
     305         -0.276990        2.000000        0.00007954        0.00045230        0.00000415
     306         -0.276609        2.000000        0.00000570        0.00003287        0.00000032
     307         -0.276405        2.000000        0.00014544        0.00077638        0.00000872