# Projected DOS for list 85 of 3 atoms, at iteration step i = 0, E(Fermi) =    -0.060510 a.u.
#     MO Eigenvalue [a.u.]      Occupation                 s                 p                 d
       1         -0.895259        2.000000        0.00000000        0.00000000        0.00000000
       2         -0.868125        2.000000        0.00000038        0.00000059        0.00000000
       3         -0.864615        2.000000        0.00000063        0.00000075        0.00000001
       4         -0.857993        2.000000        0.00000099        0.00000050        0.00000002
       5         -0.853826        2.000000        0.00035401        0.00027064        0.00000128
       6         -0.850378        2.000000        0.00000144        0.00000080        0.00000001
       7         -0.848222        2.000000        0.00007927        0.00003338        0.00000052
       8         -0.847335        2.000000        0.00186152        0.00075247        0.00001031
       9         -0.842977        2.000000        0.00000115        0.00000042        0.00000001
      10         -0.841504        2.000000        0.00000536        0.00003357        0.00000017
      11         -0.840654        2.000000        0.00002722        0.00001848        0.00000017
      12         -0.839688        2.000000        0.00025656        0.00033274        0.00000201
      13         -0.839172        2.000000        0.00121902        0.00119037        0.00000684
      14         -0.838522        2.000000        0.00013723        0.00012404        0.00000091
      15         -0.837015        2.000000        0.00247761        0.00215591        0.00001445
      16         -0.832753        2.000000        0.00006624        0.00003257        0.00000017
      17         -0.832000        2.000000        0.00204548        0.00069056        0.00001687
      18         -0.831644        2.000000        0.00455577        0.00112595        0.00003239
      19         -0.830027        2.000000        0.00006458        0.00007293        0.00000144
      20         -0.829447        2.000000        0.00025928        0.00005043        0.00000091
      21         -0.828640        2.000000        0.00042074        0.00004549        0.00000094
      22         -0.828147        2.000000        0.00225407        0.00042811        0.00000217
      23         -0.827394        2.000000        0.00007267        0.00013125        0.00000051
      24         -0.826637        2.000000        0.00002866        0.00001948        0.00000012
      25         -0.825864        2.000000        0.00008922        0.00013534        0.00000122
      26         -0.825007        2.000000        0.00003619        0.00000334        0.00000035
      27         -0.824149        2.000000        0.04339532        0.00552702        0.00010634
      28         -0.823003        2.000000        0.00041183        0.00036527        0.00000316
      29         -0.821982        2.000000        0.00560730        0.00348120        0.00001789
      30         -0.820560        2.000000        0.00478865        0.00150163        0.00001159
      31         -0.820223        2.000000        0.00245013        0.00061345        0.00001123
      32         -0.820029        2.000000        0.00058889        0.00033416        0.00001368
      33         -0.819390        2.000000        0.00035109        0.00007054        0.00000117
      34         -0.818664        2.000000        0.00704178        0.00089663        0.00002644
      35         -0.817548        2.000000        0.05395121        0.00638159        0.00011707
      36         -0.816472        2.000000        0.00138857        0.00039074        0.00001539
      37         -0.815444        2.000000        0.00019615        0.00107353        0.00000973
      38         -0.814805        2.000000        0.00013501        0.00052355        0.00000633
      39         -0.814124        2.000000        0.00227639        0.00098098        0.00000479
      40         -0.813968        2.000000        0.00023628        0.00003861        0.00000079
      41         -0.813053        2.000000        0.00101064        0.00085356        0.00000652
      42         -0.812601        2.000000        0.01602926        0.00838290        0.00008567
      43         -0.811948        2.000000        0.00210089        0.00220150        0.00001102
      44         -0.811687        2.000000        0.00267905        0.00157095        0.00000810
      45         -0.810574        2.000000        0.01898987        0.00584591        0.00005030
      46         -0.809310        2.000000        0.00002140        0.00010003        0.00000132
      47         -0.808268        2.000000        0.01412414        0.00332505        0.00003499
      48         -0.807324        2.000000        0.02013558        0.01639389        0.00018322
      49         -0.806602        2.000000        0.00286637        0.00114555        0.00002291
      50         -0.806376        2.000000        0.00016755        0.00048535        0.00000548
      51         -0.806147        2.000000        0.00102683        0.00034282        0.00000107
      52         -0.804835        2.000000        0.00015617        0.00003244        0.00000065
      53         -0.804321        2.000000        0.00353438        0.00060515        0.00000792
      54         -0.803943        2.000000        0.00063460        0.00012067        0.00000413
      55         -0.803401        2.000000        0.00078822        0.00219960        0.00006811
      56         -0.802648        2.000000        0.00384641        0.00126854        0.00000808
      57         -0.801912        2.000000        0.00288566        0.00058020        0.00000475
      58         -0.801342        2.000000        0.00092861        0.00150428        0.00005918
      59         -0.800594        2.000000        0.00016692        0.00039815        0.00001327
      60         -0.799945        2.000000        0.00007196        0.00016794        0.00000345
      61         -0.799254        2.000000        0.00458781        0.00170776        0.00004712
      62         -0.798331        2.000000        0.00060809        0.00014253        0.00000294
      63         -0.797356        2.000000        0.02633606        0.00666864        0.00005115
      64         -0.795713        2.000000        0.00014092        0.00059296        0.00001075
      65         -0.795144        2.000000        0.00009618        0.00022894        0.00000639
      66         -0.794508        2.000000        0.02797763        0.00659047        0.00018638
      67         -0.793501        2.000000        0.00214099        0.00058803        0.00001969
      68         -0.792888        2.000000        0.00002094        0.00003019        0.00000078
      69         -0.792771        2.000000        0.00845143        0.00240076        0.00007825
      70         -0.792166        2.000000        0.00098176        0.00029990        0.00000963
      71         -0.791795        2.000000        0.00069841        0.00032877        0.00001382
      72         -0.790466        2.000000        0.00002413        0.00002058        0.00000307
      73         -0.789691        2.000000        0.00256704        0.00268077        0.00001963
      74         -0.789018        2.000000        0.00063721        0.00022695        0.00000460
      75         -0.788284        2.000000        0.00102102        0.00058694        0.00000943
      76         -0.787044        2.000000        0.00088848        0.00053049        0.00000726
      77         -0.785765        2.000000        0.00088666        0.00042641        0.00000201
      78         -0.783215        2.000000        0.00718617        0.00269592        0.00000674
      79         -0.782853        2.000000        0.00020072        0.00009483        0.00000010
      80         -0.782388        2.000000        0.08197630        0.03298276        0.00004903
      81         -0.781821        2.000000        0.00047186        0.00025068        0.00000014
      82         -0.780108        2.000000        0.00000379        0.00005640        0.00000666
      83         -0.778906        2.000000        0.00000470        0.00000073        0.00000004
      84         -0.778076        2.000000        0.00111424        0.00023857        0.00000611
      85         -0.775317        2.000000        0.01563574        0.00531141        0.00005084
      86         -0.773086        2.000000        0.31578316        0.10014315        0.00069215
      87         -0.772920        2.000000        0.01914919        0.00607183        0.00004142
      88         -0.771409        2.000000        0.00626346        0.00193121        0.00001743
      89         -0.769725        2.000000        0.00000471        0.00000320        0.00000001
      90         -0.769226        2.000000        0.00001466        0.00000581        0.00000001
      91         -0.767566        2.000000        0.00000393        0.00000265        0.00000000
      92         -0.766737        2.000000        0.00024303        0.00012427        0.00000020
      93         -0.755845        2.000000        0.00000005        0.00000004        0.00000000
      94         -0.752538        2.000000        0.00000007        0.00000009        0.00000000
      95         -0.747161        2.000000        0.00000024        0.00000015        0.00000000
      96         -0.736999        2.000000        0.00000002        0.00000001        0.00000000
      97         -0.726419        2.000000        0.00000015        0.00000008        0.00000000
      98         -0.719129        2.000000        0.00000008        0.00000003        0.00000000
      99         -0.696511        2.000000        0.00000001        0.00000000        0.00000000
     100         -0.460315        2.000000        0.00000000        0.00000000        0.00000000
     101         -0.427906        2.000000        0.00000002        0.00000008        0.00000000
     102         -0.424376        2.000000        0.00000001        0.00000002        0.00000000
     103         -0.405781        2.000000        0.00000020        0.00000090        0.00000001
     104         -0.401299        2.000000        0.00000188        0.00001171        0.00000012
     105         -0.398347        2.000000        0.00000019        0.00000045        0.00000002
     106         -0.398267        2.000000        0.00000588        0.00003411        0.00000011
     107         -0.397295        2.000000        0.00000410        0.00002768        0.00000085
     108         -0.395753        2.000000        0.00000605        0.00005901        0.00000072
     109         -0.395158        2.000000        0.00070289        0.00361039        0.00002726
     110         -0.394493        2.000000        0.00001868        0.00007182        0.00000102
     111         -0.394192        2.000000        0.00041645        0.00114277        0.00001776
     112         -0.393919        2.000000        0.00001533        0.00028263        0.00000769
     113         -0.393017        2.000000        0.00000599        0.00002716        0.00000067
     114         -0.391793        2.000000        0.00000134        0.00001466        0.00000099
     115         -0.389280        2.000000        0.00000366        0.00001425        0.00000063
     116         -0.388145        2.000000        0.00000644        0.00005239        0.00000171
     117         -0.387090        2.000000        0.00003066        0.00020913        0.00000747
     118         -0.386138        2.000000        0.00016753        0.00065559        0.00001077
     119         -0.385161        2.000000        0.00000068        0.00000478        0.00000015
     120         -0.384984        2.000000        0.00046461        0.00141789        0.00002517
     121         -0.383823        2.000000        0.00042146        0.00161624        0.00002411
     122         -0.383101        2.000000        0.00000875        0.00031503        0.00000196
     123         -0.383025        2.000000        0.00473577        0.01347645        0.00026969
     124         -0.381208        2.000000        0.00010368        0.00080894        0.00000625
     125         -0.380660        2.000000        0.00080347        0.00191618        0.00005273
     126         -0.380323        2.000000        0.00007098        0.00100721        0.00000653
     127         -0.379623        2.000000        0.00010131        0.00119716        0.00002562
     128         -0.379161        2.000000        0.00032198        0.00095430        0.00001274
     129         -0.378115        2.000000        0.00055003        0.00166971        0.00003181
     130         -0.377757        2.000000        0.00002857        0.00016369        0.00000204
     131         -0.377213        2.000000        0.00005685        0.00104654        0.00001817
     132         -0.376655        2.000000        0.00059523        0.00202216        0.00002950
     133         -0.376089        2.000000        0.00016431        0.00049320        0.00001068
     134         -0.375522        2.000000        0.00022470        0.00068079        0.00001160
     135         -0.373953        2.000000        0.00090489        0.00317624        0.00003577
     136         -0.373564        2.000000        0.00005621        0.00035608        0.00000181
     137         -0.372991        2.000000        0.00003209        0.00009792        0.00000307
     138         -0.372433        2.000000        0.00000572        0.00002456        0.00000024
     139         -0.372037        2.000000        0.00432954        0.01356924        0.00015714
     140         -0.371632        2.000000        0.00161747        0.00496363        0.00005691
     141         -0.371006        2.000000        0.01121391        0.03632349        0.00040664
     142         -0.369840        2.000000        0.00000096        0.00000603        0.00000012
     143         -0.369635        2.000000        0.00008314        0.00037729        0.00000301
     144         -0.369153        2.000000        0.00005109        0.00014427        0.00000230
     145         -0.369131        2.000000        0.00004155        0.00011495        0.00000269
     146         -0.368498        2.000000        0.00129789        0.00407270        0.00005190
     147         -0.367984        2.000000        0.00788750        0.02467195        0.00033142
     148         -0.367257        2.000000        0.00001043        0.00003575        0.00000055
     149         -0.366951        2.000000        0.00003937        0.00012917        0.00000164
     150         -0.366882        2.000000        0.00004747        0.00022974        0.00000424
     151         -0.366558        2.000000        0.00004189        0.00012557        0.00000418
     152         -0.366087        2.000000        0.00034143        0.00115780        0.00001359
     153         -0.365532        2.000000        0.00019032        0.00056853        0.00001277
     154         -0.365292        2.000000        0.00001444        0.00007193        0.00000104
     155         -0.364873        2.000000        0.00011869        0.00028725        0.00001000
     156         -0.364499        2.000000        0.00005997        0.00020203        0.00000527
     157         -0.364385        2.000000        0.00002743        0.00010377        0.00000113
     158         -0.363409        2.000000        0.00063978        0.00218235        0.00003510
     159         -0.362731        2.000000        0.00000535        0.00001850        0.00000046
     160         -0.361690        2.000000        0.11724655        0.28572412        0.00771692
     161         -0.361463        2.000000        0.00087982        0.00212550        0.00006088
     162         -0.360695        2.000000        0.00010605        0.00026425        0.00000575
     163         -0.359909        2.000000        0.00279645        0.00680090        0.00020786
     164         -0.358869        2.000000        0.00005093        0.00011820        0.00000405
     165         -0.358762        2.000000        0.00000198        0.00001306        0.00000016
     166         -0.358424        2.000000        0.00209516        0.00489248        0.00015129
     167         -0.357749        2.000000        0.00013247        0.00033952        0.00000815
     168         -0.357432        2.000000        0.00187022        0.00435806        0.00013858
     169         -0.356226        2.000000        0.00000510        0.00002264        0.00000077
     170         -0.355206        2.000000        0.00022587        0.00127957        0.00000743
     171         -0.354151        2.000000        0.00001017        0.00004201        0.00000012
     172         -0.353675        2.000000        0.00000301        0.00001532        0.00000027
     173         -0.353241        2.000000        0.00000634        0.00004259        0.00000006
     174         -0.352384        2.000000        0.00002723        0.00007529        0.00000118
     175         -0.349281        2.000000        0.00015827        0.00039147        0.00000949
     176         -0.348101        2.000000        0.00001213        0.00003233        0.00000080
     177         -0.347056        2.000000        0.00001804        0.00008414        0.00000184
     178         -0.346421        2.000000        0.00005836        0.00017219        0.00000389
     179         -0.346099        2.000000        0.00002588        0.00008703        0.00000176
     180         -0.344626        2.000000        0.00002044        0.00010221        0.00000019
     181         -0.344227        2.000000        0.00008787        0.00023900        0.00000495
     182         -0.344158        2.000000        0.00002938        0.00020243        0.00000015
     183         -0.343279        2.000000        0.00000046        0.00000299        0.00000002
     184         -0.342186        2.000000        0.00008109        0.00024819        0.00000455
     185         -0.341638        2.000000        0.00000766        0.00002925        0.00000035
     186         -0.341223        2.000000        0.00002155        0.00013185        0.00000101
     187         -0.341051        2.000000        0.00080044        0.00226779        0.00004522
     188         -0.340810        2.000000        0.00000688        0.00007983        0.00000042
     189         -0.340344        2.000000        0.00000495        0.00002536        0.00000023
     190         -0.340103        2.000000        0.00167651        0.00432924        0.00008842
     191         -0.339538        2.000000        0.00006584        0.00048785        0.00000583
     192         -0.338904        2.000000        0.00033442        0.00130418        0.00001934
     193         -0.338737        2.000000        0.01356820        0.04655593        0.00072453
     194         -0.337951        2.000000        0.00683568        0.01747935        0.00049540
     195         -0.337180        2.000000        0.00002362        0.00013530        0.00000362
     196         -0.336960        2.000000        0.00830617        0.02117003        0.00051104
     197         -0.336163        2.000000        0.00499373        0.01440029        0.00028544
     198         -0.335733        2.000000        0.01243817        0.03514695        0.00070539
     199         -0.334956        2.000000        0.00014348        0.00049503        0.00001396
     200         -0.333834        2.000000        0.00049466        0.00194441        0.00005344
     201         -0.331670        2.000000        0.01992734        0.10480231        0.00275404
     202         -0.330715        2.000000        0.00030589        0.00142925        0.00003731
     203         -0.327469        2.000000        0.00002923        0.00016957        0.00000422
     204         -0.326924        2.000000        0.00047002        0.00465256        0.00010623
     205         -0.319799        2.000000        0.00000054        0.00000209        0.00000010
     206         -0.319625        2.000000        0.00000229        0.00000774        0.00000012
     207         -0.318771        2.000000        0.00004657        0.00013324        0.00000236
     208         -0.318487        2.000000        0.00000172        0.00000731        0.00000027
     209         -0.318151        2.000000        0.00000989        0.00003637        0.00000075
     210         -0.317254        2.000000        0.00000049        0.00000156        0.00000004
     211         -0.316615        2.000000        0.00000121        0.00000370        0.00000019
     212         -0.316317        2.000000        0.00011293        0.00051240        0.00000755
     213         -0.315885        2.000000        0.00000015        0.00000113        0.00000001
     214         -0.315512        2.000000        0.00000035        0.00000466        0.00000004
     215         -0.314742        2.000000        0.00000357        0.00003105        0.00000032
     216         -0.314240        2.000000        0.00000316        0.00001369        0.00000028
     217         -0.313093        2.000000        0.00001993        0.00008309        0.00000151
     218         -0.312538        2.000000        0.00000769        0.00003555        0.00000042
     219         -0.312396        2.000000        0.00002866        0.00010263        0.00000213
     220         -0.312037        2.000000        0.00000383        0.00001734        0.00000103
     221         -0.310598        2.000000        0.00002337        0.00007331        0.00000120
     222         -0.310221        2.000000        0.00000072        0.00000555        0.00000024
     223         -0.309408        2.000000        0.00000929        0.00003527        0.00000056
     224         -0.309395        2.000000        0.00002469        0.00008867        0.00000135
     225         -0.309234        2.000000        0.00000203        0.00001512        0.00000013
     226         -0.308381        2.000000        0.00009268        0.00026371        0.00000415
     227         -0.308250        2.000000        0.00123298        0.00366137        0.00005461
     228         -0.308097        2.000000        0.00000194        0.00001529        0.00000012
     229         -0.307179        2.000000        0.00013544        0.00046376        0.00000677
     230         -0.305966        2.000000        0.00001571        0.00004611        0.00000106
     231         -0.305190        2.000000        0.00002586        0.00008990        0.00000109
     232         -0.305170        2.000000        0.00000241        0.00000804        0.00000038
     233         -0.303881        2.000000        0.00000040        0.00000329        0.00000009
     234         -0.303186        2.000000        0.00000106        0.00000382        0.00000006
     235         -0.302644        2.000000        0.00032620        0.00141967        0.00001577
     236         -0.302137        2.000000        0.00025521        0.00105803        0.00001106
     237         -0.301410        2.000000        0.00000162        0.00000751        0.00000014
     238         -0.301270        2.000000        0.00059075        0.00238190        0.00002448
     239         -0.300504        2.000000        0.00057555        0.00220651        0.00001800
     240         -0.300347        2.000000        0.00374752        0.01551363        0.00015087
     241         -0.300010        2.000000        0.00000738        0.00002433        0.00000035
     242         -0.298878        2.000000        0.00002215        0.00012957        0.00000152
     243         -0.298505        2.000000        0.00129876        0.00443996        0.00004185
     244         -0.297847        2.000000        0.00033110        0.00112923        0.00000964
     245         -0.297156        2.000000        0.00046401        0.00166439        0.00001369
     246         -0.297046        2.000000        0.00018825        0.00080575        0.00000597
     247         -0.296671        2.000000        0.00023676        0.00077495        0.00000707
     248         -0.296618        2.000000        0.00006587        0.00019693        0.00000171
     249         -0.295969        2.000000        0.00000559        0.00003994        0.00000157
     250         -0.295348        2.000000        0.00052406        0.00267077        0.00001908
     251         -0.295087        2.000000        0.00001364        0.00005964        0.00000048
     252         -0.294369        2.000000        0.00005542        0.00029609        0.00000217
     253         -0.294183        2.000000        0.00012199        0.00056405        0.00000358
     254         -0.293640        2.000000        0.00010462        0.00064975        0.00000302
     255         -0.293246        2.000000        0.00004438        0.00027390        0.00000139
     256         -0.292577        2.000000        0.00004293        0.00011089        0.00000109
     257         -0.291994        2.000000        0.00032743        0.00087405        0.00000972
     258         -0.291705        2.000000        0.00001188        0.00003613        0.00000029
     259         -0.290928        2.000000        0.00037866        0.00122069        0.00001129
     260         -0.290306        2.000000        0.00053181        0.00177294        0.00001427
     261         -0.289901        2.000000        0.00049099        0.00247164        0.00001189
     262         -0.289451        2.000000        0.00008632        0.00052731        0.00000306
     263         -0.289043        2.000000        0.00002514        0.00006625        0.00000050
     264         -0.288015        2.000000        0.00014941        0.00075814        0.00000332
     265         -0.287861        2.000000        0.00021212        0.00096666        0.00000497
     266         -0.286936        2.000000        0.00000210        0.00001282        0.00000016
     267         -0.286667        2.000000        0.00003170        0.00017472        0.00000072
     268         -0.286302        2.000000        0.00000793        0.00002168        0.00000032
     269         -0.285607        2.000000        0.00013300        0.00064670        0.00000304
     270         -0.285328        2.000000        0.00012453        0.00047349        0.00000283
     271         -0.285085        2.000000        0.00001639        0.00011551        0.00000049
     272         -0.284841        2.000000        0.00021765        0.00067289        0.00000517
     273         -0.284131        2.000000        0.00011592        0.00046794        0.00000255
     274         -0.283572        2.000000        0.00020111        0.00052350        0.00000570
     275         -0.283249        2.000000        0.00034694        0.00112308        0.00000889
     276         -0.283050        2.000000        0.00029109        0.00090293        0.00000706
     277         -0.282957        2.000000        0.00000822        0.00003841        0.00000030
     278         -0.282638        2.000000        0.00030779        0.00108205        0.00000786
     279         -0.282393        2.000000        0.00688801        0.02212767        0.00017366
     280         -0.282190        2.000000        0.00001032        0.00004698        0.00000045
     281         -0.281812        2.000000        0.00001253        0.00005625        0.00000026
     282         -0.281718        2.000000        0.00023877        0.00081152        0.00000643
     283         -0.281529        2.000000        0.00076581        0.00296695        0.00002059
     284         -0.281304        2.000000        0.00121333        0.00450073        0.00003356
     285         -0.281056        2.000000        0.00014692        0.00064628        0.00000545
     286         -0.280948        2.000000        0.00007508        0.00024599        0.00000262
     287         -0.280843        2.000000        0.00051696        0.00169592        0.00000966
     288         -0.280780        2.000000        0.00026804        0.00102877        0.00000688
     289         -0.280282        2.000000        0.00054329        0.00195701        0.00001482
     290         -0.279956        2.000000        0.00002859        0.00012737        0.00000082
     291         -0.279807        2.000000        0.00038842        0.00139917        0.00001284
     292         -0.279686        2.000000        0.00199915        0.00711939        0.00007308
     293         -0.279589        2.000000        0.00003550        0.00012023        0.00000242
     294         -0.279495        2.000000        0.00009792        0.00039743        0.00000546
     295         -0.279217        2.000000        0.00075391        0.00222793        0.00001823
     296         -0.279093        2.000000        0.01072356        0.03326692        0.00026540
     297         -0.278951        2.000000        0.00121658        0.00379071        0.00003339
     298         -0.278592        2.000000        0.00156260        0.00551798        0.00004246
     299         -0.278433        2.000000        0.00020997        0.00060373        0.00000549
     300         -0.278210        2.000000        0.00018803        0.00069483        0.00000518
     301         -0.278135        2.000000        0.00007074        0.00016652        0.00000275
     302         -0.278031        2.000000        0.00006978        0.00012615        0.00000239
     303         -0.277650        2.000000        0.00116699        0.00420713        0.00003701
     304         -0.277312        2.000000        0.00052513        0.00171045        0.00001512
     305         -0.276990        2.000000        0.00140168        0.00496981        0.00004812
     306         -0.276609        2.000000        0.00002587        0.00015437        0.00000071
     307         -0.276405        2.000000        0.00055720        0.00206247        0.00002330