# Projected DOS for atomic kind Pt at iteration step i = 0, E(Fermi) =    -0.060510 a.u.
#     MO Eigenvalue [a.u.]      Occupation                 s                 p                 d
       1         -0.895259        2.000000        0.00000000        0.00000000        0.00000000
       2         -0.868125        2.000000        0.00000000        0.00000000        0.00000001
       3         -0.864615        2.000000        0.00000001        0.00000001        0.00000005
       4         -0.857993        2.000000        0.00817172        0.00646187        0.04800888
       5         -0.853826        2.000000        0.00394084        0.00189935        0.02525433
       6         -0.850378        2.000000        0.00000127        0.00000061        0.00001090
       7         -0.848222        2.000000        0.00000929        0.00000479        0.00009297
       8         -0.847335        2.000000        0.00255790        0.00125411        0.01834311
       9         -0.842977        2.000000        0.00000357        0.00000183        0.00001948
      10         -0.841504        2.000000        0.00117402        0.00060002        0.00583296
      11         -0.840654        2.000000        0.00106540        0.00048249        0.00676979
      12         -0.839688        2.000000        0.00122987        0.00072570        0.00792527
      13         -0.839172        2.000000        0.00294265        0.00206112        0.01635611
      14         -0.838522        2.000000        0.00185900        0.00103917        0.02034321
      15         -0.837015        2.000000        0.00205720        0.00158700        0.01652289
      16         -0.832753        2.000000        0.00092749        0.00062653        0.00661440
      17         -0.832000        2.000000        0.00281816        0.00145885        0.02016039
      18         -0.831644        2.000000        0.00168605        0.00105552        0.01501961
      19         -0.830027        2.000000        0.00008065        0.00005707        0.00063462
      20         -0.829447        2.000000        0.00174276        0.00119397        0.01775507
      21         -0.828640        2.000000        0.00230895        0.00153197        0.02155609
      22         -0.828147        2.000000        0.00035776        0.00021997        0.00278600
      23         -0.827394        2.000000        0.00039952        0.00028074        0.00460090
      24         -0.826637        2.000000        0.00126795        0.00081199        0.01036229
      25         -0.825864        2.000000        0.00037969        0.00024665        0.00332601
      26         -0.825007        2.000000        0.00044896        0.00031748        0.00398774
      27         -0.824149        2.000000        0.00022892        0.00014528        0.00179691
      28         -0.823003        2.000000        0.00041906        0.00027537        0.00390913
      29         -0.821982        2.000000        0.00174397        0.00106250        0.01375871
      30         -0.820560        2.000000        0.00066536        0.00040897        0.00538927
      31         -0.820223        2.000000        0.00118787        0.00070400        0.00804687
      32         -0.820029        2.000000        0.00078975        0.00038853        0.00646478
      33         -0.819390        2.000000        0.00055272        0.00033997        0.00587722
      34         -0.818664        2.000000        0.00119368        0.00077033        0.01456402
      35         -0.817548        2.000000        0.00032722        0.00022149        0.00316849
      36         -0.816472        2.000000        0.00175237        0.00130725        0.01717293
      37         -0.815444        2.000000        0.00163190        0.00125019        0.01618989
      38         -0.814805        2.000000        0.00027562        0.00018644        0.00236936
      39         -0.814124        2.000000        0.00110927        0.00087511        0.01370434
      40         -0.813968        2.000000        0.00061433        0.00044434        0.00672008
      41         -0.813053        2.000000        0.00013824        0.00009929        0.00238319
      42         -0.812601        2.000000        0.00008330        0.00006330        0.00112738
      43         -0.811948        2.000000        0.00073859        0.00055982        0.01050803
      44         -0.811687        2.000000        0.00117997        0.00086032        0.01385115
      45         -0.810574        2.000000        0.00004252        0.00002974        0.00042399
      46         -0.809310        2.000000        0.00000469        0.00000389        0.00006974
      47         -0.808268        2.000000        0.00004172        0.00003297        0.00060133
      48         -0.807324        2.000000        0.00018984        0.00013827        0.00225939
      49         -0.806602        2.000000        0.00036036        0.00027112        0.00464339
      50         -0.806376        2.000000        0.00037845        0.00027153        0.00492631
      51         -0.806147        2.000000        0.00067099        0.00052334        0.00928838
      52         -0.804835        2.000000        0.00090650        0.00064202        0.01135014
      53         -0.804321        2.000000        0.00027899        0.00022432        0.00452601
      54         -0.803943        2.000000        0.00078131        0.00058598        0.01008442
      55         -0.803401        2.000000        0.00015384        0.00011187        0.00254754
      56         -0.802648        2.000000        0.00077747        0.00057630        0.01005164
      57         -0.801912        2.000000        0.00051323        0.00034513        0.00678060
      58         -0.801342        2.000000        0.00028064        0.00020813        0.00402989
      59         -0.800594        2.000000        0.00050483        0.00036006        0.00639793
      60         -0.799945        2.000000        0.00018069        0.00012667        0.00265253
      61         -0.799254        2.000000        0.00002316        0.00001682        0.00033148
      62         -0.798331        2.000000        0.00001177        0.00000758        0.00010642
      63         -0.797356        2.000000        0.00001530        0.00001275        0.00019726
      64         -0.795713        2.000000        0.00010971        0.00010799        0.00216498
      65         -0.795144        2.000000        0.00004471        0.00003012        0.00041623
      66         -0.794508        2.000000        0.00009768        0.00007228        0.00108325
      67         -0.793501        2.000000        0.00006370        0.00004122        0.00062601
      68         -0.792888        2.000000        0.00056570        0.00050788        0.00672171
      69         -0.792771        2.000000        0.00039244        0.00030511        0.00325579
      70         -0.792166        2.000000        0.00056115        0.00051265        0.00475944
      71         -0.791795        2.000000        0.00322642        0.00313112        0.02306817
      72         -0.790466        2.000000        0.00061902        0.00035755        0.00489084
      73         -0.789691        2.000000        0.00001883        0.00001664        0.00022915
      74         -0.789018        2.000000        0.00050173        0.00044141        0.00632765
      75         -0.788284        2.000000        0.00000974        0.00000834        0.00019248
      76         -0.787044        2.000000        0.00080159        0.00052147        0.00681609
      77         -0.785765        2.000000        0.00001297        0.00000772        0.00011752
      78         -0.783215        2.000000        0.00000179        0.00000131        0.00002926
      79         -0.782853        2.000000        0.00000374        0.00000293        0.00006303
      80         -0.782388        2.000000        0.00001183        0.00000871        0.00011874
      81         -0.781821        2.000000        0.00000429        0.00000312        0.00003770
      82         -0.780108        2.000000        0.00074217        0.00052885        0.00597902
      83         -0.778906        2.000000        0.00000082        0.00000058        0.00000639
      84         -0.778076        2.000000        0.00000004        0.00000003        0.00000055
      85         -0.775317        2.000000        0.00102524        0.00074484        0.00785722
      86         -0.773086        2.000000        0.00009999        0.00007466        0.00078995
      87         -0.772920        2.000000        0.00000617        0.00000461        0.00004834
      88         -0.771409        2.000000        0.00000121        0.00000080        0.00001648
      89         -0.769725        2.000000        0.00000264        0.00000204        0.00008377
      90         -0.769226        2.000000        0.00000195        0.00000089        0.00001372
      91         -0.767566        2.000000        0.00000341        0.00000176        0.00004663
      92         -0.766737        2.000000        0.00000007        0.00000004        0.00000077
      93         -0.755845        2.000000        0.00000000        0.00000000        0.00000004
      94         -0.752538        2.000000        0.00000001        0.00000001        0.00000012
      95         -0.747161        2.000000        0.00000000        0.00000000        0.00000000
      96         -0.736999        2.000000        0.00000000        0.00000000        0.00000000
      97         -0.726419        2.000000        0.00000000        0.00000000        0.00000000
      98         -0.719129        2.000000        0.00000000        0.00000000        0.00000000
      99         -0.696511        2.000000        0.00000000        0.00000000        0.00000000
     100         -0.460315        2.000000        0.00000000        0.00000000        0.00000000
     101         -0.427906        2.000000        0.00000000        0.00000000        0.00000001
     102         -0.424376        2.000000        0.00000000        0.00000000        0.00000001
     103         -0.405781        2.000000        0.00249711        0.00204058        0.02243247
     104         -0.401299        2.000000        0.01349636        0.00134468        0.01483319
     105         -0.398347        2.000000        0.88912250        0.01735838        0.00713810
     106         -0.398267        2.000000        0.06927263        0.00175185        0.00342567
     107         -0.397295        2.000000        0.00007002        0.00001957        0.00013528
     108         -0.395753        2.000000        0.00257236        0.00084839        0.00605613
     109         -0.395158        2.000000        0.00288759        0.00115234        0.01172158
     110         -0.394493        2.000000        0.00141748        0.00030801        0.00224298
     111         -0.394192        2.000000        0.00199527        0.00071184        0.00851876
     112         -0.393919        2.000000        0.00047803        0.00016885        0.00177211
     113         -0.393017        2.000000        0.00037522        0.00010330        0.00084906
     114         -0.391793        2.000000        0.00069930        0.00009959        0.00057611
     115         -0.389280        2.000000        0.00274610        0.00118228        0.01470028
     116         -0.388145        2.000000        0.00000745        0.00000281        0.00003369
     117         -0.387090        2.000000        0.00346632        0.00103469        0.01167297
     118         -0.386138        2.000000        0.00050839        0.00008259        0.00067761
     119         -0.385161        2.000000        0.00034668        0.00014526        0.00139989
     120         -0.384984        2.000000        0.00228567        0.00142419        0.01625198
     121         -0.383823        2.000000        0.00314564        0.00084345        0.00883208
     122         -0.383101        2.000000        0.00023625        0.00004579        0.00030671
     123         -0.383025        2.000000        0.00913961        0.00144421        0.00619638
     124         -0.381208        2.000000        0.00519176        0.00076265        0.00293790
     125         -0.380660        2.000000        0.00588577        0.00084950        0.00326753
     126         -0.380323        2.000000        0.00813001        0.00104325        0.00602157
     127         -0.379623        2.000000        0.00140381        0.00028584        0.00131110
     128         -0.379161        2.000000        0.02603831        0.00208481        0.01063032
     129         -0.378115        2.000000        0.00904496        0.00056014        0.00177721
     130         -0.377757        2.000000        0.00446799        0.00115306        0.00731651
     131         -0.377213        2.000000        0.01518710        0.00155730        0.00630295
     132         -0.376655        2.000000        0.00903489        0.00063005        0.00177832
     133         -0.376089        2.000000        0.01903220        0.00166645        0.00503970
     134         -0.375522        2.000000        0.04019233        0.00282446        0.00563918
     135         -0.373953        2.000000        0.03082219        0.00296457        0.00921711
     136         -0.373564        2.000000        0.05775988        0.00518924        0.01048658
     137         -0.372991        2.000000        0.03077569        0.00263212        0.00593592
     138         -0.372433        2.000000        0.00051757        0.00007204        0.00043608
     139         -0.372037        2.000000        0.42533551        0.03246008        0.02990420
     140         -0.371632        2.000000        0.21031673        0.01677162        0.01949722
     141         -0.371006        2.000000        0.02900988        0.00317330        0.00645033
     142         -0.369840        2.000000        0.00759908        0.00089173        0.00157694
     143         -0.369635        2.000000        0.08830271        0.01023264        0.01549722
     144         -0.369153        2.000000        0.78639014        0.08741798        0.07401333
     145         -0.369131        2.000000        0.01413399        0.00170269        0.00346643
     146         -0.368498        2.000000        0.64305440        0.07086618        0.05991234
     147         -0.367984        2.000000        0.15312981        0.01745457        0.01821348
     148         -0.367257        2.000000        0.70677683        0.07853811        0.06730348
     149         -0.366951        2.000000        0.68532808        0.07654814        0.06490111
     150         -0.366882        2.000000        0.02359573        0.00295863        0.00487836
     151         -0.366558        2.000000        0.56017619        0.06207038        0.05283932
     152         -0.366087        2.000000        0.28101613        0.03232690        0.03339259
     153         -0.365532        2.000000        0.19961421        0.02461551        0.03080802
     154         -0.365292        2.000000        0.11625561        0.01520429        0.02662141
     155         -0.364873        2.000000        0.12114724        0.01356502        0.01185404
     156         -0.364499        2.000000        0.55859037        0.06438279        0.05810674
     157         -0.364385        2.000000        0.00212053        0.00029335        0.00065581
     158         -0.363409        2.000000        0.03042151        0.00427802        0.01023735
     159         -0.362731        2.000000        0.00030316        0.00005728        0.00023789
     160         -0.361690        2.000000        0.00158491        0.00029125        0.00094213
     161         -0.361463        2.000000        0.00015716        0.00003583        0.00016748
     162         -0.360695        2.000000        0.02757603        0.00512001        0.01641090
     163         -0.359909        2.000000        0.00125115        0.00022074        0.00063221
     164         -0.358869        2.000000        0.02414548        0.00429344        0.01170161
     165         -0.358762        2.000000        0.00084417        0.00014935        0.00041285
     166         -0.358424        2.000000        0.03133573        0.00575142        0.01645916
     167         -0.357749        2.000000        0.00076692        0.00011781        0.00033979
     168         -0.357432        2.000000        0.00050347        0.00009744        0.00043246
     169         -0.356226        2.000000        0.02004025        0.00434418        0.01876332
     170         -0.355206        2.000000        0.00349127        0.00094605        0.00566094
     171         -0.354151        2.000000        0.00170163        0.00035331        0.00157504
     172         -0.353675        2.000000        0.00014470        0.00004019        0.00022800
     173         -0.353241        2.000000        0.01261857        0.00280364        0.01300073
     174         -0.352384        2.000000        0.00050428        0.00010906        0.00054980
     175         -0.349281        2.000000        0.00346141        0.00056536        0.00129622
     176         -0.348101        2.000000        0.02701423        0.00386267        0.00776246
     177         -0.347056        2.000000        0.02801220        0.00404978        0.00755375
     178         -0.346421        2.000000        0.01019736        0.00143463        0.00301455
     179         -0.346099        2.000000        0.06021687        0.00857385        0.01531166
     180         -0.344626        2.000000        0.46258213        0.07529809        0.09697554
     181         -0.344227        2.000000        0.00679105        0.00108373        0.00149102
     182         -0.344158        2.000000        0.29392957        0.04852491        0.06513908
     183         -0.343279        2.000000        0.60775858        0.09950287        0.14490008
     184         -0.342186        2.000000        0.00766391        0.00127247        0.00267806
     185         -0.341638        2.000000        0.67012242        0.11461280        0.14606812
     186         -0.341223        2.000000        0.18883148        0.03107491        0.04516265
     187         -0.341051        2.000000        0.00123691        0.00020848        0.00029755
     188         -0.340810        2.000000        0.53252632        0.08773837        0.12499440
     189         -0.340344        2.000000        0.66929251        0.10707773        0.15344644
     190         -0.340103        2.000000        0.01887615        0.00281232        0.00460499
     191         -0.339538        2.000000        0.64089669        0.10094406        0.15001800
     192         -0.338904        2.000000        0.66609144        0.11266840        0.14441006
     193         -0.338737        2.000000        0.04617994        0.00769816        0.01171130
     194         -0.337951        2.000000        0.00551083        0.00100650        0.00171796
     195         -0.337180        2.000000        0.00011975        0.00002417        0.00004203
     196         -0.336960        2.000000        0.00180487        0.00033868        0.00086324
     197         -0.336163        2.000000        0.00033692        0.00007753        0.00016318
     198         -0.335733        2.000000        0.00048627        0.00011164        0.00024182
     199         -0.334956        2.000000        0.00897349        0.00232517        0.00664046
     200         -0.333834        2.000000        0.00043484        0.00011665        0.00037577
     201         -0.331670        2.000000        0.00075910        0.00018366        0.00065884
     202         -0.330715        2.000000        0.00087230        0.00025100        0.00097024
     203         -0.327469        2.000000        0.00005702        0.00001415        0.00004107
     204         -0.326924        2.000000        0.00005142        0.00001289        0.00004514
     205         -0.319799        2.000000        0.34471999        0.08768362        0.29953817
     206         -0.319625        2.000000        0.00005371        0.00001402        0.00004253
     207         -0.318771        2.000000        0.00170182        0.00048119        0.00132600
     208         -0.318487        2.000000        0.48783523        0.14538394        0.35939097
     209         -0.318151        2.000000        0.37092655        0.07980987        0.44801493
     210         -0.317254        2.000000        0.45014558        0.13381516        0.36811426
     211         -0.316615        2.000000        0.46052164        0.14026686        0.34125760
     212         -0.316317        2.000000        0.00015636        0.00004460        0.00015519
     213         -0.315885        2.000000        0.46986731        0.14192100        0.34529132
     214         -0.315512        2.000000        0.48304116        0.14063321        0.32763931
     215         -0.314742        2.000000        0.46524610        0.11953087        0.31664991
     216         -0.314240        2.000000        0.49939442        0.14785157        0.34425027
     217         -0.313093        2.000000        0.50534664        0.12619695        0.30108402
     218         -0.312538        2.000000        0.46794026        0.12287875        0.33028604
     219         -0.312396        2.000000        0.42862917        0.11411880        0.40038647
     220         -0.312037        2.000000        0.44946041        0.11398667        0.35101046
     221         -0.310598        2.000000        0.31977355        0.08962475        0.42877268
     222         -0.310221        2.000000        0.38561069        0.10109893        0.43603225
     223         -0.309408        2.000000        0.31573096        0.09536167        0.57979182
     224         -0.309395        2.000000        0.34794428        0.09756975        0.49623066
     225         -0.309234        2.000000        0.30112126        0.08962588        0.55143070
     226         -0.308381        2.000000        0.31382050        0.08684025        0.36365752
     227         -0.308250        2.000000        0.01893622        0.00541829        0.02678616
     228         -0.308097        2.000000        0.29359025        0.08913915        0.51351448
     229         -0.307179        2.000000        0.22772626        0.07058399        0.40350712
     230         -0.305966        2.000000        0.08007942        0.02289456        0.16313103
     231         -0.305190        2.000000        0.00852307        0.00240262        0.01422323
     232         -0.305170        2.000000        0.00231871        0.00064931        0.00378393
     233         -0.303881        2.000000        0.00087908        0.00017552        0.00184655
     234         -0.303186        2.000000        0.12890226        0.01582870        0.84896954
     235         -0.302644        2.000000        0.13534900        0.01422048        0.74945686
     236         -0.302137        2.000000        0.20015428        0.02586165        0.63870314
     237         -0.301410        2.000000        0.18321472        0.03531818        0.70065373
     238         -0.301270        2.000000        0.23488672        0.02884708        0.62268695
     239         -0.300504        2.000000        0.02158949        0.00431307        0.05744322
     240         -0.300347        2.000000        0.10808820        0.02517599        0.28441921
     241         -0.300010        2.000000        0.00013831        0.00002940        0.00030934
     242         -0.298878        2.000000        0.32779259        0.11751329        0.42882904
     243         -0.298505        2.000000        0.21382610        0.07445292        0.52526355
     244         -0.297847        2.000000        0.21696541        0.07864467        0.63277064
     245         -0.297156        2.000000        0.20680027        0.07327880        0.57612626
     246         -0.297046        2.000000        0.31351697        0.11365884        0.48812646
     247         -0.296671        2.000000        0.20493167        0.07183305        0.62629784
     248         -0.296618        2.000000        0.21504502        0.07717418        0.65244962
     249         -0.295969        2.000000        0.11660155        0.03935677        0.48801003
     250         -0.295348        2.000000        0.09433326        0.03287122        0.44268127
     251         -0.295087        2.000000        0.22221715        0.08634989        0.67786179
     252         -0.294369        2.000000        0.27289573        0.10474644        0.53952955
     253         -0.294183        2.000000        0.26171362        0.10141003        0.60999104
     254         -0.293640        2.000000        0.21959879        0.08397655        0.57655571
     255         -0.293246        2.000000        0.21859175        0.08761851        0.61611537
     256         -0.292577        2.000000        0.24890421        0.09996700        0.62726697
     257         -0.291994        2.000000        0.19682957        0.07750065        0.52097910
     258         -0.291705        2.000000        0.24974824        0.10405955        0.62177629
     259         -0.290928        2.000000        0.19382926        0.07044667        0.54718681
     260         -0.290306        2.000000        0.13004139        0.04618586        0.33898314
     261         -0.289901        2.000000        0.09847341        0.03416103        0.24629505
     262         -0.289451        2.000000        0.17220344        0.05626952        0.49957552
     263         -0.289043        2.000000        0.21640070        0.07118375        0.58866617
     264         -0.288015        2.000000        0.18053950        0.06192243        0.58907544
     265         -0.287861        2.000000        0.06484116        0.02421812        0.24087503
     266         -0.286936        2.000000        0.21667101        0.07719128        0.69482468
     267         -0.286667        2.000000        0.15533607        0.05870320        0.74236804
     268         -0.286302        2.000000        0.14559885        0.05498919        0.73004693
     269         -0.285607        2.000000        0.14765606        0.05374318        0.77437553
     270         -0.285328        2.000000        0.14037494        0.05490219        0.77014944
     271         -0.285085        2.000000        0.13882128        0.05383892        0.77791705
     272         -0.284841        2.000000        0.16569532        0.06220945        0.75176939
     273         -0.284131        2.000000        0.12791162        0.05154935        0.79541610
     274         -0.283572        2.000000        0.10576620        0.03899494        0.78433961
     275         -0.283249        2.000000        0.10672317        0.03582093        0.82229333
     276         -0.283050        2.000000        0.10393798        0.03815003        0.81391887
     277         -0.282957        2.000000        0.11941163        0.04264941        0.82454521
     278         -0.282638        2.000000        0.10672553        0.03905032        0.82677633
     279         -0.282393        2.000000        0.04313223        0.01442124        0.29568019
     280         -0.282190        2.000000        0.10517655        0.03854392        0.81892860
     281         -0.281812        2.000000        0.10366850        0.03817742        0.84703539
     282         -0.281718        2.000000        0.09498338        0.03508143        0.80964046
     283         -0.281529        2.000000        0.10040830        0.03597490        0.81272592
     284         -0.281304        2.000000        0.08952360        0.03278477        0.79962972
     285         -0.281056        2.000000        0.07397009        0.02754575        0.67322668
     286         -0.280948        2.000000        0.08590943        0.03174383        0.81074598
     287         -0.280843        2.000000        0.02925638        0.01081343        0.25315282
     288         -0.280780        2.000000        0.09405813        0.03343318        0.84549956
     289         -0.280282        2.000000        0.06940555        0.02782403        0.85572574
     290         -0.279956        2.000000        0.08726204        0.03186946        0.84999154
     291         -0.279807        2.000000        0.05466684        0.02472392        0.86560266
     292         -0.279686        2.000000        0.02207597        0.00992112        0.39564502
     293         -0.279589        2.000000        0.07517057        0.03115885        0.81278364
     294         -0.279495        2.000000        0.05740969        0.02272367        0.59153740
     295         -0.279217        2.000000        0.08137939        0.03263123        0.78742792
     296         -0.279093        2.000000        0.02629495        0.01055463        0.17126295
     297         -0.278951        2.000000        0.09378492        0.03670536        0.76669531
     298         -0.278592        2.000000        0.09818632        0.03452942        0.58381682
     299         -0.278433        2.000000        0.09720538        0.03761375        0.79355707
     300         -0.278210        2.000000        0.10125093        0.03966758        0.80921375
     301         -0.278135        2.000000        0.08110447        0.03613605        0.85834054
     302         -0.278031        2.000000        0.10677461        0.04594717        0.81544209
     303         -0.277650        2.000000        0.07774033        0.03326586        0.78772541
     304         -0.277312        2.000000        0.10238753        0.04004244        0.74237936
     305         -0.276990        2.000000        0.06436567        0.02642627        0.61047146
     306         -0.276609        2.000000        0.06477748        0.03239689        0.86594336
     307         -0.276405        2.000000        0.09818420        0.03780169        0.60444741