# Projected DOS for list 80 of 3 atoms, at iteration step i = 0, E(Fermi) =    -0.060510 a.u.
#     MO Eigenvalue [a.u.]      Occupation                 s                 p                 d
       1         -0.895259        2.000000        0.00000016        0.00000024        0.00000000
       2         -0.868125        2.000000        0.00000950        0.00001796        0.00000003
       3         -0.864615        2.000000        0.00000687        0.00002028        0.00000005
       4         -0.857993        2.000000        0.00002165        0.00002316        0.00000010
       5         -0.853826        2.000000        0.00000050        0.00000019        0.00000000
       6         -0.850378        2.000000        0.00000011        0.00000046        0.00000000
       7         -0.848222        2.000000        0.00000278        0.00000715        0.00000001
       8         -0.847335        2.000000        0.00000049        0.00000025        0.00000000
       9         -0.842977        2.000000        0.00020927        0.00014919        0.00000422
      10         -0.841504        2.000000        0.00018037        0.00009226        0.00000100
      11         -0.840654        2.000000        0.00012253        0.00009938        0.00000188
      12         -0.839688        2.000000        0.00024608        0.00014269        0.00000144
      13         -0.839172        2.000000        0.00000737        0.00001742        0.00000020
      14         -0.838522        2.000000        0.00000178        0.00000815        0.00000012
      15         -0.837015        2.000000        0.00000360        0.00000264        0.00000003
      16         -0.832753        2.000000        0.00038120        0.00024844        0.00000060
      17         -0.832000        2.000000        0.00021305        0.00019786        0.00000130
      18         -0.831644        2.000000        0.00024422        0.00006537        0.00000054
      19         -0.830027        2.000000        0.00066901        0.00014033        0.00000273
      20         -0.829447        2.000000        0.00246933        0.00038441        0.00000307
      21         -0.828640        2.000000        0.00003054        0.00020808        0.00000471
      22         -0.828147        2.000000        0.00446140        0.00061465        0.00001606
      23         -0.827394        2.000000        0.01532622        0.00699371        0.00008176
      24         -0.826637        2.000000        0.00038367        0.00074399        0.00000342
      25         -0.825864        2.000000        0.00218356        0.00132371        0.00001906
      26         -0.825007        2.000000        0.00015523        0.00242908        0.00004038
      27         -0.824149        2.000000        0.00017311        0.00005009        0.00000056
      28         -0.823003        2.000000        0.00015747        0.00108246        0.00001641
      29         -0.821982        2.000000        0.00003259        0.00017117        0.00000124
      30         -0.820560        2.000000        0.00022598        0.00102646        0.00001980
      31         -0.820223        2.000000        0.00137952        0.00174785        0.00002968
      32         -0.820029        2.000000        0.00134183        0.00075071        0.00000577
      33         -0.819390        2.000000        0.01429546        0.00130670        0.00002325
      34         -0.818664        2.000000        0.00010705        0.00063714        0.00000626
      35         -0.817548        2.000000        0.00015044        0.00004004        0.00000152
      36         -0.816472        2.000000        0.00000491        0.00004453        0.00000225
      37         -0.815444        2.000000        0.00001286        0.00007478        0.00000117
      38         -0.814805        2.000000        0.00061903        0.00033821        0.00000395
      39         -0.814124        2.000000        0.00015626        0.00013514        0.00000316
      40         -0.813968        2.000000        0.00017224        0.00021455        0.00000674
      41         -0.813053        2.000000        0.00003585        0.00000777        0.00000002
      42         -0.812601        2.000000        0.00156337        0.00022656        0.00000214
      43         -0.811948        2.000000        0.00049768        0.00021146        0.00000434
      44         -0.811687        2.000000        0.00165871        0.00023960        0.00000785
      45         -0.810574        2.000000        0.00081474        0.00018849        0.00000656
      46         -0.809310        2.000000        0.00013770        0.00056536        0.00000369
      47         -0.808268        2.000000        0.00134727        0.00012340        0.00000171
      48         -0.807324        2.000000        0.00006618        0.00006352        0.00000086
      49         -0.806602        2.000000        0.00049361        0.00006498        0.00000064
      50         -0.806376        2.000000        0.00000876        0.00008848        0.00000213
      51         -0.806147        2.000000        0.00021491        0.00008717        0.00000214
      52         -0.804835        2.000000        0.00642847        0.00241413        0.00003105
      53         -0.804321        2.000000        0.00026212        0.00008093        0.00000236
      54         -0.803943        2.000000        0.00203693        0.00068319        0.00001241
      55         -0.803401        2.000000        0.00022759        0.00009568        0.00000089
      56         -0.802648        2.000000        0.00011389        0.00003372        0.00000106
      57         -0.801912        2.000000        0.00050801        0.00009768        0.00000299
      58         -0.801342        2.000000        0.00005227        0.00013612        0.00000132
      59         -0.800594        2.000000        0.00846964        0.00170307        0.00002435
      60         -0.799945        2.000000        0.09680552        0.01849578        0.00029340
      61         -0.799254        2.000000        0.00220085        0.00083781        0.00003078
      62         -0.798331        2.000000        0.00027170        0.00063014        0.00000736
      63         -0.797356        2.000000        0.00061624        0.00013413        0.00000268
      64         -0.795713        2.000000        0.00053192        0.00009089        0.00000097
      65         -0.795144        2.000000        0.00245252        0.00124552        0.00000405
      66         -0.794508        2.000000        0.00202892        0.00041263        0.00000503
      67         -0.793501        2.000000        0.00004615        0.00021653        0.00000261
      68         -0.792888        2.000000        0.00088119        0.00020481        0.00000380
      69         -0.792771        2.000000        0.00005308        0.00041952        0.00000792
      70         -0.792166        2.000000        0.00060333        0.00027307        0.00000315
      71         -0.791795        2.000000        0.00009303        0.00001898        0.00000078
      72         -0.790466        2.000000        0.00010033        0.00004896        0.00000175
      73         -0.789691        2.000000        0.00016818        0.00009887        0.00000086
      74         -0.789018        2.000000        0.00002037        0.00000966        0.00000004
      75         -0.788284        2.000000        0.03752973        0.01167942        0.00005172
      76         -0.787044        2.000000        0.00101416        0.00040644        0.00000160
      77         -0.785765        2.000000        0.02920972        0.01136183        0.00004809
      78         -0.783215        2.000000        0.09994234        0.03241265        0.00010914
      79         -0.782853        2.000000        0.26926543        0.08663236        0.00029335
      80         -0.782388        2.000000        0.00308425        0.00105997        0.00000320
      81         -0.781821        2.000000        0.00089666        0.00027692        0.00000096
      82         -0.780108        2.000000        0.00013261        0.00003233        0.00000045
      83         -0.778906        2.000000        0.00000705        0.00000272        0.00000005
      84         -0.778076        2.000000        0.00001692        0.00000617        0.00000002
      85         -0.775317        2.000000        0.00000498        0.00000240        0.00000001
      86         -0.773086        2.000000        0.00002005        0.00000617        0.00000028
      87         -0.772920        2.000000        0.00010787        0.00003188        0.00000024
      88         -0.771409        2.000000        0.00009922        0.00005041        0.00000194
      89         -0.769725        2.000000        0.01053647        0.00309047        0.00003469
      90         -0.769226        2.000000        0.08654200        0.02526459        0.00031106
      91         -0.767566        2.000000        0.04990388        0.01471972        0.00020552
      92         -0.766737        2.000000        0.00074902        0.00022882        0.00000390
      93         -0.755845        2.000000        0.00001627        0.00000376        0.00000019
      94         -0.752538        2.000000        0.00013112        0.00004475        0.00000117
      95         -0.747161        2.000000        0.00000001        0.00000002        0.00000000
      96         -0.736999        2.000000        0.00000116        0.00000047        0.00000001
      97         -0.726419        2.000000        0.00000000        0.00000000        0.00000000
      98         -0.719129        2.000000        0.00000001        0.00000000        0.00000000
      99         -0.696511        2.000000        0.00000001        0.00000001        0.00000000
     100         -0.460315        2.000000        0.00000003        0.00000010        0.00000000
     101         -0.427906        2.000000        0.00000705        0.00002797        0.00000005
     102         -0.424376        2.000000        0.00000016        0.00000116        0.00000000
     103         -0.405781        2.000000        0.00000714        0.00005481        0.00000066
     104         -0.401299        2.000000        0.00000001        0.00000030        0.00000000
     105         -0.398347        2.000000        0.00000011        0.00000072        0.00000001
     106         -0.398267        2.000000        0.00000175        0.00000886        0.00000012
     107         -0.397295        2.000000        0.00004154        0.00023984        0.00000552
     108         -0.395753        2.000000        0.00000067        0.00000499        0.00000014
     109         -0.395158        2.000000        0.00000011        0.00000078        0.00000001
     110         -0.394493        2.000000        0.00003192        0.00015927        0.00000230
     111         -0.394192        2.000000        0.00000240        0.00001343        0.00000019
     112         -0.393919        2.000000        0.00000151        0.00000944        0.00000013
     113         -0.393017        2.000000        0.00000039        0.00000484        0.00000003
     114         -0.391793        2.000000        0.00000715        0.00003160        0.00000049
     115         -0.389280        2.000000        0.00000124        0.00001191        0.00000015
     116         -0.388145        2.000000        0.00011066        0.00058523        0.00001242
     117         -0.387090        2.000000        0.00000804        0.00003493        0.00000039
     118         -0.386138        2.000000        0.00001533        0.00101658        0.00000214
     119         -0.385161        2.000000        0.00001592        0.00220173        0.00000553
     120         -0.384984        2.000000        0.00000323        0.00022321        0.00000043
     121         -0.383823        2.000000        0.00002413        0.00005524        0.00000141
     122         -0.383101        2.000000        0.00000070        0.00002288        0.00000006
     123         -0.383025        2.000000        0.00002154        0.00006686        0.00000127
     124         -0.381208        2.000000        0.00000211        0.00000902        0.00000003
     125         -0.380660        2.000000        0.00003515        0.00009822        0.00000215
     126         -0.380323        2.000000        0.00000308        0.00002066        0.00000018
     127         -0.379623        2.000000        0.00001600        0.00005041        0.00000089
     128         -0.379161        2.000000        0.00015968        0.00042618        0.00000933
     129         -0.378115        2.000000        0.00001896        0.00007264        0.00000116
     130         -0.377757        2.000000        0.00003122        0.00014332        0.00000295
     131         -0.377213        2.000000        0.00001004        0.00007241        0.00000093
     132         -0.376655        2.000000        0.00000437        0.00007020        0.00000093
     133         -0.376089        2.000000        0.00002692        0.00051737        0.00000694
     134         -0.375522        2.000000        0.00006923        0.00049237        0.00000599
     135         -0.373953        2.000000        0.00094197        0.00300591        0.00005538
     136         -0.373564        2.000000        0.00082288        0.00252564        0.00004868
     137         -0.372991        2.000000        0.00071486        0.00232087        0.00004008
     138         -0.372433        2.000000        0.00289926        0.01105477        0.00018247
     139         -0.372037        2.000000        0.00032227        0.00111715        0.00002051
     140         -0.371632        2.000000        0.00020147        0.00111084        0.00001934
     141         -0.371006        2.000000        0.00043360        0.00161560        0.00002829
     142         -0.369840        2.000000        0.00032336        0.00100128        0.00001850
     143         -0.369635        2.000000        0.00003818        0.00082320        0.00001241
     144         -0.369153        2.000000        0.00003182        0.00014422        0.00000286
     145         -0.369131        2.000000        0.00004924        0.00011005        0.00000244
     146         -0.368498        2.000000        0.00001725        0.00009321        0.00000052
     147         -0.367984        2.000000        0.00003457        0.00014429        0.00000186
     148         -0.367257        2.000000        0.00001289        0.00003155        0.00000082
     149         -0.366951        2.000000        0.00013440        0.00050364        0.00000913
     150         -0.366882        2.000000        0.00060430        0.00253878        0.00004724
     151         -0.366558        2.000000        0.00045531        0.00148886        0.00003228
     152         -0.366087        2.000000        0.00036263        0.00132470        0.00002347
     153         -0.365532        2.000000        0.00029449        0.00085432        0.00002257
     154         -0.365292        2.000000        0.00029226        0.00084134        0.00001801
     155         -0.364873        2.000000        0.00061211        0.00191458        0.00004048
     156         -0.364499        2.000000        0.00030810        0.00100602        0.00002148
     157         -0.364385        2.000000        0.00020454        0.00064322        0.00000968
     158         -0.363409        2.000000        0.00003558        0.00010438        0.00000221
     159         -0.362731        2.000000        0.00031443        0.00158112        0.00002568
     160         -0.361690        2.000000        0.00003192        0.00013223        0.00000203
     161         -0.361463        2.000000        0.00067675        0.00365671        0.00004891
     162         -0.360695        2.000000        0.00049794        0.00153093        0.00003270
     163         -0.359909        2.000000        0.00048753        0.00205765        0.00002944
     164         -0.358869        2.000000        0.00024205        0.00062129        0.00001284
     165         -0.358762        2.000000        0.00001132        0.00003075        0.00000060
     166         -0.358424        2.000000        0.00015892        0.00055466        0.00000843
     167         -0.357749        2.000000        0.00033715        0.00118324        0.00002344
     168         -0.357432        2.000000        0.00020155        0.00109214        0.00001421
     169         -0.356226        2.000000        0.00011554        0.00042380        0.00000582
     170         -0.355206        2.000000        0.00013074        0.00044566        0.00000799
     171         -0.354151        2.000000        0.00251288        0.00739696        0.00014121
     172         -0.353675        2.000000        0.05790925        0.17482650        0.00314663
     173         -0.353241        2.000000        0.00001962        0.00018478        0.00000109
     174         -0.352384        2.000000        0.00736111        0.02181516        0.00041608
     175         -0.349281        2.000000        0.00027566        0.00075937        0.00002335
     176         -0.348101        2.000000        0.01061940        0.03418479        0.00067778
     177         -0.347056        2.000000        0.00223090        0.00588940        0.00017904
     178         -0.346421        2.000000        0.00123783        0.00397359        0.00007326
     179         -0.346099        2.000000        0.03696223        0.10788091        0.00215390
     180         -0.344626        2.000000        0.00007790        0.00054389        0.00000430
     181         -0.344227        2.000000        0.00069569        0.00230156        0.00004442
     182         -0.344158        2.000000        0.00012723        0.00049432        0.00001118
     183         -0.343279        2.000000        0.00045552        0.00154754        0.00002230
     184         -0.342186        2.000000        0.00008780        0.00031915        0.00000398
     185         -0.341638        2.000000        0.00001617        0.00007798        0.00000066
     186         -0.341223        2.000000        0.00002885        0.00011424        0.00000104
     187         -0.341051        2.000000        0.00000296        0.00001794        0.00000029
     188         -0.340810        2.000000        0.00000143        0.00000927        0.00000005
     189         -0.340344        2.000000        0.00006128        0.00028508        0.00000200
     190         -0.340103        2.000000        0.00100499        0.00292071        0.00006340
     191         -0.339538        2.000000        0.00003206        0.00017744        0.00000173
     192         -0.338904        2.000000        0.00006322        0.00017788        0.00000402
     193         -0.338737        2.000000        0.00001007        0.00004066        0.00000096
     194         -0.337951        2.000000        0.00004833        0.00012140        0.00000348
     195         -0.337180        2.000000        0.00015538        0.00038368        0.00001258
     196         -0.336960        2.000000        0.00015480        0.00041567        0.00001359
     197         -0.336163        2.000000        0.00003197        0.00009793        0.00000234
     198         -0.335733        2.000000        0.00000254        0.00001516        0.00000013
     199         -0.334956        2.000000        0.00286972        0.01232674        0.00035718
     200         -0.333834        2.000000        0.00038872        0.00151873        0.00001879
     201         -0.331670        2.000000        0.00097259        0.00253496        0.00007418
     202         -0.330715        2.000000        0.06879977        0.18048449        0.00554833
     203         -0.327469        2.000000        0.00116420        0.00345692        0.00010795
     204         -0.326924        2.000000        0.00000201        0.00001555        0.00000046
     205         -0.319799        2.000000        0.00002278        0.00010752        0.00000092
     206         -0.319625        2.000000        0.00003858        0.00019075        0.00000386
     207         -0.318771        2.000000        0.00726993        0.02973355        0.00076642
     208         -0.318487        2.000000        0.00000520        0.00001981        0.00000056
     209         -0.318151        2.000000        0.00001386        0.00004197        0.00000086
     210         -0.317254        2.000000        0.00001605        0.00004710        0.00000123
     211         -0.316615        2.000000        0.00001391        0.00004161        0.00000101
     212         -0.316317        2.000000        0.00002392        0.00012987        0.00000181
     213         -0.315885        2.000000        0.00000766        0.00002310        0.00000063
     214         -0.315512        2.000000        0.00000034        0.00000165        0.00000001
     215         -0.314742        2.000000        0.00000270        0.00000851        0.00000020
     216         -0.314240        2.000000        0.00000015        0.00000055        0.00000001
     217         -0.313093        2.000000        0.00000499        0.00001404        0.00000031
     218         -0.312538        2.000000        0.00000737        0.00002207        0.00000057
     219         -0.312396        2.000000        0.00000170        0.00000662        0.00000015
     220         -0.312037        2.000000        0.00000551        0.00001653        0.00000035
     221         -0.310598        2.000000        0.00000899        0.00002730        0.00000066
     222         -0.310221        2.000000        0.00000109        0.00000578        0.00000003
     223         -0.309408        2.000000        0.00000012        0.00000058        0.00000001
     224         -0.309395        2.000000        0.00000319        0.00001003        0.00000026
     225         -0.309234        2.000000        0.00000879        0.00002734        0.00000061
     226         -0.308381        2.000000        0.00001129        0.00004729        0.00000073
     227         -0.308250        2.000000        0.00123588        0.00361345        0.00007534
     228         -0.308097        2.000000        0.00002897        0.00008381        0.00000167
     229         -0.307179        2.000000        0.00000457        0.00001429        0.00000022
     230         -0.305966        2.000000        0.00001579        0.00007029        0.00000109
     231         -0.305190        2.000000        0.00000428        0.00003986        0.00000119
     232         -0.305170        2.000000        0.00002131        0.00021856        0.00000503
     233         -0.303881        2.000000        0.00000795        0.00003549        0.00000061
     234         -0.303186        2.000000        0.00000119        0.00000383        0.00000007
     235         -0.302644        2.000000        0.00000019        0.00000052        0.00000001
     236         -0.302137        2.000000        0.00000480        0.00001749        0.00000025
     237         -0.301410        2.000000        0.00000271        0.00000986        0.00000013
     238         -0.301270        2.000000        0.00000022        0.00000115        0.00000001
     239         -0.300504        2.000000        0.00000664        0.00004120        0.00000060
     240         -0.300347        2.000000        0.00000038        0.00000185        0.00000006
     241         -0.300010        2.000000        0.00000553        0.00002236        0.00000051
     242         -0.298878        2.000000        0.00000255        0.00000745        0.00000017
     243         -0.298505        2.000000        0.00000186        0.00000733        0.00000010
     244         -0.297847        2.000000        0.00000019        0.00000105        0.00000002
     245         -0.297156        2.000000        0.00000049        0.00000248        0.00000006
     246         -0.297046        2.000000        0.00000066        0.00000276        0.00000003
     247         -0.296671        2.000000        0.00000160        0.00000489        0.00000010
     248         -0.296618        2.000000        0.00000003        0.00000015        0.00000000
     249         -0.295969        2.000000        0.00000040        0.00000367        0.00000014
     250         -0.295348        2.000000        0.00000020        0.00000206        0.00000009
     251         -0.295087        2.000000        0.00000022        0.00000061        0.00000001
     252         -0.294369        2.000000        0.00000217        0.00000668        0.00000008
     253         -0.294183        2.000000        0.00000045        0.00000238        0.00000001
     254         -0.293640        2.000000        0.00000246        0.00000714        0.00000011
     255         -0.293246        2.000000        0.00000017        0.00000060        0.00000001
     256         -0.292577        2.000000        0.00000151        0.00000419        0.00000007
     257         -0.291994        2.000000        0.00000242        0.00001107        0.00000020
     258         -0.291705        2.000000        0.00000202        0.00000618        0.00000009
     259         -0.290928        2.000000        0.00000010        0.00000172        0.00000009
     260         -0.290306        2.000000        0.00000569        0.00001703        0.00000066
     261         -0.289901        2.000000        0.00000080        0.00000180        0.00000051
     262         -0.289451        2.000000        0.00000135        0.00000972        0.00000020
     263         -0.289043        2.000000        0.00000051        0.00000141        0.00000014
     264         -0.288015        2.000000        0.00001594        0.00004824        0.00000066
     265         -0.287861        2.000000        0.00007709        0.00026806        0.00000310
     266         -0.286936        2.000000        0.00000356        0.00001014        0.00000013
     267         -0.286667        2.000000        0.00000446        0.00001033        0.00000017
     268         -0.286302        2.000000        0.00000198        0.00000392        0.00000013
     269         -0.285607        2.000000        0.00000203        0.00000734        0.00000010
     270         -0.285328        2.000000        0.00000138        0.00000473        0.00000005
     271         -0.285085        2.000000        0.00000209        0.00001003        0.00000008
     272         -0.284841        2.000000        0.00000134        0.00000512        0.00000007
     273         -0.284131        2.000000        0.00000294        0.00001046        0.00000011
     274         -0.283572        2.000000        0.00000131        0.00000276        0.00000004
     275         -0.283249        2.000000        0.00000019        0.00000078        0.00000000
     276         -0.283050        2.000000        0.00000243        0.00000570        0.00000008
     277         -0.282957        2.000000        0.00001345        0.00004292        0.00000046
     278         -0.282638        2.000000        0.00000173        0.00000258        0.00000005
     279         -0.282393        2.000000        0.00000630        0.00001894        0.00000018
     280         -0.282190        2.000000        0.00000042        0.00000059        0.00000001
     281         -0.281812        2.000000        0.00000019        0.00000101        0.00000001
     282         -0.281718        2.000000        0.00000618        0.00002711        0.00000022
     283         -0.281529        2.000000        0.00005124        0.00015469        0.00000159
     284         -0.281304        2.000000        0.00000119        0.00000803        0.00000006
     285         -0.281056        2.000000        0.00010709        0.00042097        0.00000442
     286         -0.280948        2.000000        0.00000370        0.00002064        0.00000033
     287         -0.280843        2.000000        0.00021598        0.00085726        0.00001023
     288         -0.280780        2.000000        0.00000392        0.00001875        0.00000023
     289         -0.280282        2.000000        0.00000012        0.00000190        0.00000003
     290         -0.279956        2.000000        0.00000041        0.00000204        0.00000002
     291         -0.279807        2.000000        0.00000530        0.00001099        0.00000012
     292         -0.279686        2.000000        0.00000129        0.00000201        0.00000008
     293         -0.279589        2.000000        0.00000647        0.00001453        0.00000022
     294         -0.279495        2.000000        0.00001192        0.00003105        0.00000041
     295         -0.279217        2.000000        0.00000084        0.00000197        0.00000003
     296         -0.279093        2.000000        0.00007388        0.00032981        0.00000326
     297         -0.278951        2.000000        0.00001163        0.00005428        0.00000053
     298         -0.278592        2.000000        0.00001493        0.00005010        0.00000067
     299         -0.278433        2.000000        0.00000019        0.00000617        0.00000003
     300         -0.278210        2.000000        0.00000488        0.00001745        0.00000020
     301         -0.278135        2.000000        0.00004741        0.00013075        0.00000157
     302         -0.278031        2.000000        0.00003493        0.00010232        0.00000116
     303         -0.277650        2.000000        0.00001483        0.00006983        0.00000070
     304         -0.277312        2.000000        0.00001181        0.00005971        0.00000059
     305         -0.276990        2.000000        0.00051795        0.00172765        0.00001753
     306         -0.276609        2.000000        0.00005777        0.00017132        0.00000179
     307         -0.276405        2.000000        0.00049935        0.00173618        0.00001862