# Projected DOS for atomic kind H at iteration step i = 0, E(Fermi) =    -0.060510 a.u.
#     MO Eigenvalue [a.u.]      Occupation                 s                 p
       1         -0.895259        2.000000        0.21905111        0.16922283
       2         -0.868125        2.000000        0.22846041        0.16958590
       3         -0.864615        2.000000        0.21701745        0.17591309
       4         -0.857993        2.000000        0.19178762        0.15939498
       5         -0.853826        2.000000        0.21265088        0.16306563
       6         -0.850378        2.000000        0.23202198        0.17140555
       7         -0.848222        2.000000        0.21031146        0.17840203
       8         -0.847335        2.000000        0.21715291        0.16167306
       9         -0.842977        2.000000        0.21121888        0.16654979
      10         -0.841504        2.000000        0.23053287        0.15065156
      11         -0.840654        2.000000        0.22320668        0.16097208
      12         -0.839688        2.000000        0.21915845        0.17178269
      13         -0.839172        2.000000        0.20866744        0.17442310
      14         -0.838522        2.000000        0.21350459        0.17413535
      15         -0.837015        2.000000        0.20531066        0.18056621
      16         -0.832753        2.000000        0.21298582        0.18165514
      17         -0.832000        2.000000        0.19979899        0.18042988
      18         -0.831644        2.000000        0.20044262        0.18962436
      19         -0.830027        2.000000        0.20574837        0.16917233
      20         -0.829447        2.000000        0.20711912        0.17158006
      21         -0.828640        2.000000        0.20363511        0.17207207
      22         -0.828147        2.000000        0.22936212        0.15810410
      23         -0.827394        2.000000        0.21893269        0.16725740
      24         -0.826637        2.000000        0.20732248        0.17984805
      25         -0.825864        2.000000        0.20906434        0.17954700
      26         -0.825007        2.000000        0.20942650        0.18333821
      27         -0.824149        2.000000        0.22172531        0.16670023
      28         -0.823003        2.000000        0.20927310        0.18600285
      29         -0.821982        2.000000        0.20699567        0.16908851
      30         -0.820560        2.000000        0.21012360        0.17826599
      31         -0.820223        2.000000        0.20596225        0.18156882
      32         -0.820029        2.000000        0.20706712        0.17985525
      33         -0.819390        2.000000        0.20784449        0.17776280
      34         -0.818664        2.000000        0.20226332        0.18119485
      35         -0.817548        2.000000        0.20790097        0.18275217
      36         -0.816472        2.000000        0.19077642        0.18855393
      37         -0.815444        2.000000        0.19002263        0.19119176
      38         -0.814805        2.000000        0.20865861        0.18205833
      39         -0.814124        2.000000        0.20425636        0.17980438
      40         -0.813968        2.000000        0.21732535        0.17757260
      41         -0.813053        2.000000        0.19968082        0.19446208
      42         -0.812601        2.000000        0.20818975        0.18036337
      43         -0.811948        2.000000        0.19727801        0.18524336
      44         -0.811687        2.000000        0.19369949        0.18909858
      45         -0.810574        2.000000        0.20382678        0.18687594
      46         -0.809310        2.000000        0.21175913        0.19755938
      47         -0.808268        2.000000        0.19678081        0.19589789
      48         -0.807324        2.000000        0.20651216        0.18749569
      49         -0.806602        2.000000        0.19396040        0.20140110
      50         -0.806376        2.000000        0.19157232        0.20334900
      51         -0.806147        2.000000        0.19325141        0.19853661
      52         -0.804835        2.000000        0.19060074        0.19866774
      53         -0.804321        2.000000        0.18877216        0.20648213
      54         -0.803943        2.000000        0.18862946        0.20704271
      55         -0.803401        2.000000        0.18607164        0.21747720
      56         -0.802648        2.000000        0.18168848        0.21332297
      57         -0.801912        2.000000        0.18841933        0.20887094
      58         -0.801342        2.000000        0.19249850        0.20540287
      59         -0.800594        2.000000        0.18845515        0.20571903
      60         -0.799945        2.000000        0.20045993        0.18903018
      61         -0.799254        2.000000        0.19411446        0.20936307
      62         -0.798331        2.000000        0.19797958        0.18449163
      63         -0.797356        2.000000        0.19168904        0.21072980
      64         -0.795713        2.000000        0.18889516        0.20550834
      65         -0.795144        2.000000        0.19011533        0.20537783
      66         -0.794508        2.000000        0.19505586        0.20345720
      67         -0.793501        2.000000        0.20214589        0.19596418
      68         -0.792888        2.000000        0.17496155        0.23094375
      69         -0.792771        2.000000        0.18084922        0.22249838
      70         -0.792166        2.000000        0.17617775        0.22070666
      71         -0.791795        2.000000        0.15914158        0.21580788
      72         -0.790466        2.000000        0.17829824        0.22470903
      73         -0.789691        2.000000        0.20962130        0.18374666
      74         -0.789018        2.000000        0.17557645        0.22003996
      75         -0.788284        2.000000        0.19313973        0.20532151
      76         -0.787044        2.000000        0.17246295        0.22536700
      77         -0.785765        2.000000        0.20465667        0.20025245
      78         -0.783215        2.000000        0.20095440        0.19450527
      79         -0.782853        2.000000        0.19228275        0.20496377
      80         -0.782388        2.000000        0.19496205        0.20726642
      81         -0.781821        2.000000        0.20312774        0.18419191
      82         -0.780108        2.000000        0.16080685        0.24094884
      83         -0.778906        2.000000        0.21190434        0.18167387
      84         -0.778076        2.000000        0.20035708        0.19138186
      85         -0.775317        2.000000        0.15488726        0.24253195
      86         -0.773086        2.000000        0.17233789        0.23868070
      87         -0.772920        2.000000        0.20963478        0.18959712
      88         -0.771409        2.000000        0.17072896        0.23199396
      89         -0.769725        2.000000        0.17035231        0.21323499
      90         -0.769226        2.000000        0.19035146        0.20962528
      91         -0.767566        2.000000        0.18241935        0.21619657
      92         -0.766737        2.000000        0.18560619        0.20921656
      93         -0.755845        2.000000        0.20021142        0.18984333
      94         -0.752538        2.000000        0.18517966        0.21495483
      95         -0.747161        2.000000        0.18683539        0.20259948
      96         -0.736999        2.000000        0.20003952        0.20059047
      97         -0.726419        2.000000        0.19104293        0.18826120
      98         -0.719129        2.000000        0.18610317        0.19989171
      99         -0.696511        2.000000        0.16021634        0.21717095
     100         -0.460315        2.000000        0.26862881        0.02746368
     101         -0.427906        2.000000        0.25486339        0.03384039
     102         -0.424376        2.000000        0.26139913        0.02985462
     103         -0.405781        2.000000        0.23235455        0.03104713
     104         -0.401299        2.000000        0.23291335        0.04164353
     105         -0.398347        2.000000        0.02084594        0.00432310
     106         -0.398267        2.000000        0.22411391        0.04367831
     107         -0.397295        2.000000        0.25668271        0.03161095
     108         -0.395753        2.000000        0.24194566        0.04079143
     109         -0.395158        2.000000        0.24034788        0.04031217
     110         -0.394493        2.000000        0.24672364        0.04134518
     111         -0.394192        2.000000        0.24153287        0.03871941
     112         -0.393919        2.000000        0.25888777        0.03308347
     113         -0.393017        2.000000        0.24528996        0.04112851
     114         -0.391793        2.000000        0.24564034        0.04189747
     115         -0.389280        2.000000        0.24663579        0.03564074
     116         -0.388145        2.000000        0.25770993        0.03480744
     117         -0.387090        2.000000        0.24240632        0.03638507
     118         -0.386138        2.000000        0.24306915        0.04551533
     119         -0.385161        2.000000        0.25114069        0.03534174
     120         -0.384984        2.000000        0.24171952        0.03421609
     121         -0.383823        2.000000        0.23975976        0.04342602
     122         -0.383101        2.000000        0.25560775        0.03407357
     123         -0.383025        2.000000        0.24384394        0.03843812
     124         -0.381208        2.000000        0.24493124        0.04237465
     125         -0.380660        2.000000        0.24676661        0.03794694
     126         -0.380323        2.000000        0.24649232        0.03652745
     127         -0.379623        2.000000        0.25064303        0.03691092
     128         -0.379161        2.000000        0.23946452        0.03532939
     129         -0.378115        2.000000        0.24997510        0.03705947
     130         -0.377757        2.000000        0.23672627        0.04577383
     131         -0.377213        2.000000        0.23546539        0.04505796
     132         -0.376655        2.000000        0.24492910        0.03673096
     133         -0.376089        2.000000        0.23918152        0.03923883
     134         -0.375522        2.000000        0.23190525        0.03995418
     135         -0.373953        2.000000        0.23786984        0.03672543
     136         -0.373564        2.000000        0.22934435        0.04020393
     137         -0.372991        2.000000        0.23774397        0.03856546
     138         -0.372433        2.000000        0.24495299        0.04244092
     139         -0.372037        2.000000        0.12527266        0.02114998
     140         -0.371632        2.000000        0.18801665        0.02828002
     141         -0.371006        2.000000        0.23586778        0.03875868
     142         -0.369840        2.000000        0.24375015        0.03738333
     143         -0.369635        2.000000        0.22396293        0.03209706
     144         -0.369153        2.000000        0.01282314        0.00245840
     145         -0.369131        2.000000        0.24092070        0.04376484
     146         -0.368498        2.000000        0.05543319        0.00970956
     147         -0.367984        2.000000        0.19749173        0.03308638
     148         -0.367257        2.000000        0.03743887        0.00526684
     149         -0.366951        2.000000        0.04298604        0.00658147
     150         -0.366882        2.000000        0.24356895        0.03684858
     151         -0.366558        2.000000        0.08153917        0.01224117
     152         -0.366087        2.000000        0.16491660        0.02294066
     153         -0.365532        2.000000        0.18714646        0.02576394
     154         -0.365292        2.000000        0.19776608        0.03507106
     155         -0.364873        2.000000        0.21274528        0.02861044
     156         -0.364499        2.000000        0.07731195        0.01275101
     157         -0.364385        2.000000        0.24773116        0.03795964
     158         -0.363409        2.000000        0.24115273        0.03016238
     159         -0.362731        2.000000        0.23859900        0.04519585
     160         -0.361690        2.000000        0.23946087        0.04246764
     161         -0.361463        2.000000        0.24177434        0.04471695
     162         -0.360695        2.000000        0.23137631        0.03704090
     163         -0.359909        2.000000        0.24330446        0.04218282
     164         -0.358869        2.000000        0.23425207        0.03910872
     165         -0.358762        2.000000        0.24386993        0.03969376
     166         -0.358424        2.000000        0.23317481        0.03581638
     167         -0.357749        2.000000        0.24821611        0.03139733
     168         -0.357432        2.000000        0.24920897        0.03640727
     169         -0.356226        2.000000        0.23349853        0.03261017
     170         -0.355206        2.000000        0.24082847        0.03779785
     171         -0.354151        2.000000        0.23831109        0.04552389
     172         -0.353675        2.000000        0.23806376        0.04429775
     173         -0.353241        2.000000        0.23801782        0.03646381
     174         -0.352384        2.000000        0.24472491        0.03562836
     175         -0.349281        2.000000        0.23430234        0.04905285
     176         -0.348101        2.000000        0.23158839        0.03943964
     177         -0.347056        2.000000        0.22594418        0.04401995
     178         -0.346421        2.000000        0.23887528        0.03615462
     179         -0.346099        2.000000        0.21586716        0.04003049
     180         -0.344626        2.000000        0.09158635        0.01193017
     181         -0.344227        2.000000        0.24818176        0.03451118
     182         -0.344158        2.000000        0.15039762        0.01756702
     183         -0.343279        2.000000        0.03532827        0.00658291
     184         -0.342186        2.000000        0.23326145        0.03506502
     185         -0.341638        2.000000        0.01700442        0.00284562
     186         -0.341223        2.000000        0.17473434        0.02909255
     187         -0.341051        2.000000        0.25280306        0.03250024
     188         -0.340810        2.000000        0.06072603        0.01004737
     189         -0.340344        2.000000        0.01614191        0.00394371
     190         -0.340103        2.000000        0.23109639        0.04234643
     191         -0.339538        2.000000        0.02524463        0.00585429
     192         -0.338904        2.000000        0.01881405        0.00308897
     193         -0.338737        2.000000        0.22422834        0.03716848
     194         -0.337951        2.000000        0.23907974        0.03948290
     195         -0.337180        2.000000        0.25670754        0.03033590
     196         -0.336960        2.000000        0.23524252        0.03549462
     197         -0.336163        2.000000        0.23203596        0.04376326
     198         -0.335733        2.000000        0.23407220        0.04232164
     199         -0.334956        2.000000        0.23883805        0.03487982
     200         -0.333834        2.000000        0.24722498        0.03733922
     201         -0.331670        2.000000        0.22573393        0.04889306
     202         -0.330715        2.000000        0.23246863        0.04149780
     203         -0.327469        2.000000        0.24811857        0.03415171
     204         -0.326924        2.000000        0.24364242        0.04142953
     205         -0.319799        2.000000        0.02546019        0.02152742
     206         -0.319625        2.000000        0.24863278        0.03364121
     207         -0.318771        2.000000        0.23719866        0.03734555
     208         -0.318487        2.000000        0.00111952        0.00090829
     209         -0.318151        2.000000        0.01111435        0.00951674
     210         -0.317254        2.000000        0.00467785        0.00387561
     211         -0.316615        2.000000        0.00557450        0.00486171
     212         -0.316317        2.000000        0.23429858        0.04487699
     213         -0.315885        2.000000        0.00449633        0.00420187
     214         -0.315512        2.000000        0.00512226        0.00490037
     215         -0.314742        2.000000        0.01037849        0.00980365
     216         -0.314240        2.000000        0.00119034        0.00137562
     217         -0.313093        2.000000        0.00822793        0.00703496
     218         -0.312538        2.000000        0.00853144        0.00838480
     219         -0.312396        2.000000        0.00675676        0.00678836
     220         -0.312037        2.000000        0.00986259        0.00785101
     221         -0.310598        2.000000        0.01570411        0.01243460
     222         -0.310221        2.000000        0.00855755        0.00693460
     223         -0.309408        2.000000        0.00105255        0.00100299
     224         -0.309395        2.000000        0.00610270        0.00573747
     225         -0.309234        2.000000        0.00566571        0.00482016
     226         -0.308381        2.000000        0.02698521        0.01838398
     227         -0.308250        2.000000        0.20196237        0.05297038
     228         -0.308097        2.000000        0.01251549        0.00831965
     229         -0.307179        2.000000        0.03097322        0.02573133
     230         -0.305966        2.000000        0.07819013        0.06516153
     231         -0.305190        2.000000        0.14395283        0.07374487
     232         -0.305170        2.000000        0.22142182        0.04741330
     233         -0.303881        2.000000        0.21315775        0.04843048
     234         -0.303186        2.000000        0.00082245        0.00083875
     235         -0.302644        2.000000        0.01133248        0.00975677
     236         -0.302137        2.000000        0.01465023        0.01541962
     237         -0.301410        2.000000        0.00819983        0.00789204
     238         -0.301270        2.000000        0.01231599        0.01218446
     239         -0.300504        2.000000        0.08184930        0.08584463
     240         -0.300347        2.000000        0.06641315        0.05406976
     241         -0.300010        2.000000        0.25163978        0.03129659
     242         -0.298878        2.000000        0.01250386        0.01005523
     243         -0.298505        2.000000        0.01938201        0.01882743
     244         -0.297847        2.000000        0.00733175        0.00723675
     245         -0.297156        2.000000        0.01473427        0.01367443
     246         -0.297046        2.000000        0.00893547        0.00720461
     247         -0.296671        2.000000        0.01000078        0.00926000
     248         -0.296618        2.000000        0.00555456        0.00593056
     249         -0.295969        2.000000        0.03567901        0.03498878
     250         -0.295348        2.000000        0.04323588        0.04075743
     251         -0.295087        2.000000        0.00146936        0.00143412
     252         -0.294369        2.000000        0.00824955        0.00627040
     253         -0.294183        2.000000        0.00278899        0.00294556
     254         -0.293640        2.000000        0.01229413        0.01027350
     255         -0.293246        2.000000        0.00793831        0.00623181
     256         -0.292577        2.000000        0.00237106        0.00252755
     257         -0.291994        2.000000        0.02066622        0.01960834
     258         -0.291705        2.000000        0.00249754        0.00258152
     259         -0.290928        2.000000        0.01861809        0.01661190
     260         -0.290306        2.000000        0.04962787        0.04577890
     261         -0.289901        2.000000        0.06122192        0.06066632
     262         -0.289451        2.000000        0.02624317        0.02664335
     263         -0.289043        2.000000        0.01206585        0.01253903
     264         -0.288015        2.000000        0.01700769        0.01692467
     265         -0.287861        2.000000        0.06838752        0.06185494
     266         -0.286936        2.000000        0.00138313        0.00185944
     267         -0.286667        2.000000        0.00437683        0.00470060
     268         -0.286302        2.000000        0.00676409        0.00676685
     269         -0.285607        2.000000        0.00234034        0.00256292
     270         -0.285328        2.000000        0.00341213        0.00376845
     271         -0.285085        2.000000        0.00279287        0.00295491
     272         -0.284841        2.000000        0.00213471        0.00232757
     273         -0.284131        2.000000        0.00244103        0.00303058
     274         -0.283572        2.000000        0.00689177        0.00671037
     275         -0.283249        2.000000        0.00364489        0.00357150
     276         -0.283050        2.000000        0.00459122        0.00453091
     277         -0.282957        2.000000        0.00127417        0.00140374
     278         -0.282638        2.000000        0.00279674        0.00296547
     279         -0.282393        2.000000        0.06768761        0.06377585
     280         -0.282190        2.000000        0.00395756        0.00365020
     281         -0.281812        2.000000        0.00103322        0.00112798
     282         -0.281718        2.000000        0.00613670        0.00590476
     283         -0.281529        2.000000        0.00565165        0.00493583
     284         -0.281304        2.000000        0.00923856        0.00720244
     285         -0.281056        2.000000        0.03812821        0.01607147
     286         -0.280948        2.000000        0.01136610        0.00534232
     287         -0.280843        2.000000        0.13511508        0.04458707
     288         -0.280780        2.000000        0.00448802        0.00218731
     289         -0.280282        2.000000        0.00523819        0.00462155
     290         -0.279956        2.000000        0.00306231        0.00286051
     291         -0.279807        2.000000        0.00776592        0.00466959
     292         -0.279686        2.000000        0.08013276        0.04391304
     293         -0.279589        2.000000        0.01059752        0.00637678
     294         -0.279495        2.000000        0.04154298        0.02658449
     295         -0.279217        2.000000        0.00970045        0.00947323
     296         -0.279093        2.000000        0.08529956        0.07617231
     297         -0.278951        2.000000        0.01035786        0.01034118
     298         -0.278592        2.000000        0.02848045        0.02725092
     299         -0.278433        2.000000        0.00663716        0.00706713
     300         -0.278210        2.000000        0.00536113        0.00566126
     301         -0.278135        2.000000        0.00220092        0.00291145
     302         -0.278031        2.000000        0.00324043        0.00392830
     303         -0.277650        2.000000        0.01036184        0.01057887
     304         -0.277312        2.000000        0.01085617        0.01122329
     305         -0.276990        2.000000        0.03120329        0.03028551
     306         -0.276609        2.000000        0.00376383        0.00374306
     307         -0.276405        2.000000        0.02859767        0.02599763
     308         -0.276248        2.000000        0.00232743        0.00291514
     309         -0.276147        2.000000        0.00129649        0.00162450
     310         -0.275911        2.000000        0.01785414        0.01206076
     311         -0.275775        2.000000        0.00504228        0.00394469
     312         -0.275579        2.000000        0.09927882        0.04815351
     313         -0.275318        2.000000        0.00691368        0.00549503
     314         -0.275111        2.000000        0.00283337        0.00344746
     315         -0.274973        2.000000        0.01115614        0.00919498
     316         -0.274883        2.000000        0.02539761        0.01259318
     317         -0.274563        2.000000        0.02572171        0.02028088
     318         -0.274429        2.000000        0.10358237        0.06203930
     319         -0.274214        2.000000        0.01039313        0.01127460
     320         -0.273843        2.000000        0.00767234        0.00875049
     321         -0.273739        2.000000        0.00538687        0.00666626
     322         -0.273590        2.000000        0.00506797        0.00743514
     323         -0.273562        2.000000        0.00284213        0.00357518
     324         -0.273404        2.000000        0.01186772        0.01501200
     325         -0.273388        2.000000        0.00764527        0.01103823
     326         -0.272959        2.000000        0.02256961        0.02552581
     327         -0.272648        2.000000        0.03979774        0.03889461
     328         -0.272372        2.000000        0.02517532        0.02574236
     329         -0.272280        2.000000        0.01089220        0.01145127
     330         -0.271877        2.000000        0.01454103        0.01611379
     331         -0.271653        2.000000        0.01612403        0.02082218
     332         -0.271507        2.000000        0.01834379        0.01740136
     333         -0.271100        2.000000        0.00504822        0.00590162
     334         -0.270772        2.000000        0.01763742        0.01814697
     335         -0.270604        2.000000        0.03748800        0.04323280
     336         -0.270294        2.000000        0.00938895        0.01101582
     337         -0.269959        2.000000        0.01815850        0.02025569
     338         -0.269417        2.000000        0.02934531        0.03343703
     339         -0.269267        2.000000        0.04587050        0.04959094
     340         -0.269042        2.000000        0.04212630        0.04886605
     341         -0.268859        2.000000        0.08723451        0.08887323
     342         -0.268479        2.000000        0.07006665        0.07452269
     343         -0.267826        2.000000        0.00704443        0.00744812
     344         -0.266973        2.000000        0.03747178        0.04118839
     345         -0.266471        2.000000        0.07152454        0.07139019
     346         -0.265532        2.000000        0.02416463        0.02841339
     347         -0.265462        2.000000        0.02223606        0.02445105
     348         -0.265169        2.000000        0.01306667        0.01629111
     349         -0.264973        2.000000        0.02338591        0.02599670
     350         -0.264743        2.000000        0.00698195        0.00829960
     351         -0.264564        2.000000        0.01303965        0.01523624
     352         -0.264410        2.000000        0.03091885        0.03585213
     353         -0.263823        2.000000        0.01152929        0.01329594
     354         -0.263631        2.000000        0.00997559        0.01084926
     355         -0.263535        2.000000        0.00534612        0.00639825
     356         -0.263330        2.000000        0.00683908        0.00846275
     357         -0.263051        2.000000        0.02261347        0.02385828
     358         -0.262968        2.000000        0.01206642        0.01245192
     359         -0.262748        2.000000        0.00594704        0.00739577
     360         -0.262625        2.000000        0.00579417        0.00693271
     361         -0.262454        2.000000        0.00353700        0.00404121
     362         -0.262228        2.000000        0.01231860        0.01314202
     363         -0.262062        2.000000        0.01224368        0.01398268
     364         -0.262036        2.000000        0.00654729        0.00736617
     365         -0.261749        2.000000        0.01499528        0.01421418
     366         -0.261710        2.000000        0.01595902        0.01882743
     367         -0.261653        2.000000        0.01254085        0.01209917
     368         -0.261523        2.000000        0.04180827        0.04554292
     369         -0.261185        2.000000        0.04157938        0.03795931
     370         -0.261080        2.000000        0.05164437        0.04632620
     371         -0.260850        2.000000        0.00721054        0.00735470
     372         -0.260818        2.000000        0.01538002        0.01684012
     373         -0.260669        2.000000        0.01442912        0.01532568
     374         -0.260543        2.000000        0.00466249        0.00483292
     375         -0.260413        2.000000        0.01737217        0.01824818
     376         -0.260052        2.000000        0.01623810        0.01635440
     377         -0.259950        2.000000        0.00952188        0.00996024