# Projected DOS for list 59 of 3 atoms, at iteration step i = 0, E(Fermi) =    -0.060510 a.u.
#     MO Eigenvalue [a.u.]      Occupation                 s                 p                 d
       1         -0.895259        2.000000        0.00000000        0.00000000        0.00000000
       2         -0.868125        2.000000        0.00000001        0.00000001        0.00000000
       3         -0.864615        2.000000        0.00000005        0.00000003        0.00000000
       4         -0.857993        2.000000        0.00000033        0.00000014        0.00000000
       5         -0.853826        2.000000        0.00011438        0.00007063        0.00000022
       6         -0.850378        2.000000        0.00000393        0.00000224        0.00000002
       7         -0.848222        2.000000        0.00001782        0.00000970        0.00000008
       8         -0.847335        2.000000        0.00004162        0.00007758        0.00000243
       9         -0.842977        2.000000        0.00011436        0.00001194        0.00000034
      10         -0.841504        2.000000        0.01999706        0.00186856        0.00005298
      11         -0.840654        2.000000        0.00459984        0.00292825        0.00002317
      12         -0.839688        2.000000        0.02382304        0.00586098        0.00010621
      13         -0.839172        2.000000        0.01069102        0.00667093        0.00008985
      14         -0.838522        2.000000        0.00166996        0.00084916        0.00002679
      15         -0.837015        2.000000        0.00010090        0.00047542        0.00000294
      16         -0.832753        2.000000        0.00008956        0.00076248        0.00000540
      17         -0.832000        2.000000        0.00218162        0.00115602        0.00000779
      18         -0.831644        2.000000        0.00101542        0.00040105        0.00000291
      19         -0.830027        2.000000        0.00011269        0.00023617        0.00000170
      20         -0.829447        2.000000        0.00312098        0.00141169        0.00003469
      21         -0.828640        2.000000        0.00114532        0.00315103        0.00006843
      22         -0.828147        2.000000        0.00029008        0.00021484        0.00000283
      23         -0.827394        2.000000        0.00020005        0.00028249        0.00000524
      24         -0.826637        2.000000        0.00879731        0.00224324        0.00001772
      25         -0.825864        2.000000        0.00112823        0.00039702        0.00000760
      26         -0.825007        2.000000        0.00030303        0.00056869        0.00000661
      27         -0.824149        2.000000        0.00016357        0.00009486        0.00000037
      28         -0.823003        2.000000        0.00104419        0.00042366        0.00000344
      29         -0.821982        2.000000        0.00188670        0.00046683        0.00000268
      30         -0.820560        2.000000        0.00027000        0.00077898        0.00000632
      31         -0.820223        2.000000        0.00038163        0.00064622        0.00000566
      32         -0.820029        2.000000        0.01193003        0.00192835        0.00002555
      33         -0.819390        2.000000        0.00023234        0.00030583        0.00000243
      34         -0.818664        2.000000        0.00208402        0.00077175        0.00001029
      35         -0.817548        2.000000        0.00210951        0.00120504        0.00000353
      36         -0.816472        2.000000        0.03076594        0.00978586        0.00002485
      37         -0.815444        2.000000        0.01301406        0.00651041        0.00002416
      38         -0.814805        2.000000        0.00006977        0.00055820        0.00001271
      39         -0.814124        2.000000        0.00466616        0.00160976        0.00000730
      40         -0.813968        2.000000        0.00029834        0.00009522        0.00000135
      41         -0.813053        2.000000        0.00031600        0.00020045        0.00000016
      42         -0.812601        2.000000        0.00004152        0.00011483        0.00000445
      43         -0.811948        2.000000        0.00338325        0.00087811        0.00000439
      44         -0.811687        2.000000        0.00158500        0.00088394        0.00000530
      45         -0.810574        2.000000        0.00002064        0.00003478        0.00000024
      46         -0.809310        2.000000        0.00034075        0.00008084        0.00000097
      47         -0.808268        2.000000        0.00001719        0.00004651        0.00000073
      48         -0.807324        2.000000        0.01543209        0.00404702        0.00003579
      49         -0.806602        2.000000        0.02828267        0.00732528        0.00004847
      50         -0.806376        2.000000        0.02813357        0.00886016        0.00004587
      51         -0.806147        2.000000        0.07204781        0.02160262        0.00014586
      52         -0.804835        2.000000        0.00181162        0.00063708        0.00000341
      53         -0.804321        2.000000        0.00093302        0.00055985        0.00002810
      54         -0.803943        2.000000        0.00041515        0.00018046        0.00000755
      55         -0.803401        2.000000        0.00372982        0.00130802        0.00000318
      56         -0.802648        2.000000        0.00349050        0.00151469        0.00010242
      57         -0.801912        2.000000        0.00673643        0.00151674        0.00006892
      58         -0.801342        2.000000        0.00344234        0.00157130        0.00000331
      59         -0.800594        2.000000        0.00051854        0.00173048        0.00003730
      60         -0.799945        2.000000        0.00003517        0.00010241        0.00000383
      61         -0.799254        2.000000        0.00006831        0.00026243        0.00000178
      62         -0.798331        2.000000        0.00021704        0.00005283        0.00000068
      63         -0.797356        2.000000        0.00004821        0.00005017        0.00000039
      64         -0.795713        2.000000        0.00005204        0.00004737        0.00000023
      65         -0.795144        2.000000        0.00349798        0.00075070        0.00001479
      66         -0.794508        2.000000        0.01333295        0.00280355        0.00004404
      67         -0.793501        2.000000        0.01262282        0.00279794        0.00003574
      68         -0.792888        2.000000        0.00421928        0.00094781        0.00001288
      69         -0.792771        2.000000        0.03208273        0.00717400        0.00009183
      70         -0.792166        2.000000        0.00110984        0.00030951        0.00000285
      71         -0.791795        2.000000        0.00653444        0.00150899        0.00001823
      72         -0.790466        2.000000        0.17314210        0.04877298        0.00037101
      73         -0.789691        2.000000        0.00062788        0.00026509        0.00000078
      74         -0.789018        2.000000        0.00954690        0.00271019        0.00001890
      75         -0.788284        2.000000        0.00009272        0.00002070        0.00000055
      76         -0.787044        2.000000        0.15689861        0.04823681        0.00027827
      77         -0.785765        2.000000        0.00413713        0.00133213        0.00000701
      78         -0.783215        2.000000        0.00016594        0.00005504        0.00000029
      79         -0.782853        2.000000        0.00000063        0.00000062        0.00000000
      80         -0.782388        2.000000        0.00043656        0.00015210        0.00000099
      81         -0.781821        2.000000        0.00002599        0.00001222        0.00000004
      82         -0.780108        2.000000        0.01855068        0.00736575        0.00002684
      83         -0.778906        2.000000        0.00000944        0.00000393        0.00000001
      84         -0.778076        2.000000        0.00000266        0.00000222        0.00000001
      85         -0.775317        2.000000        0.00126948        0.00055164        0.00000222
      86         -0.773086        2.000000        0.00006251        0.00003903        0.00000009
      87         -0.772920        2.000000        0.00000461        0.00000295        0.00000002
      88         -0.771409        2.000000        0.00088180        0.00058549        0.00000092
      89         -0.769725        2.000000        0.00202980        0.00107478        0.00000489
      90         -0.769226        2.000000        0.00002958        0.00001652        0.00000004
      91         -0.767566        2.000000        0.00031188        0.00018249        0.00000111
      92         -0.766737        2.000000        0.00000149        0.00000113        0.00000001
      93         -0.755845        2.000000        0.00000001        0.00000010        0.00000000
      94         -0.752538        2.000000        0.00000028        0.00000045        0.00000000
      95         -0.747161        2.000000        0.00000000        0.00000000        0.00000000
      96         -0.736999        2.000000        0.00000000        0.00000002        0.00000000
      97         -0.726419        2.000000        0.00000000        0.00000000        0.00000000
      98         -0.719129        2.000000        0.00000000        0.00000000        0.00000000
      99         -0.696511        2.000000        0.00000000        0.00000000        0.00000000
     100         -0.460315        2.000000        0.00000000        0.00000000        0.00000000
     101         -0.427906        2.000000        0.00000000        0.00000000        0.00000000
     102         -0.424376        2.000000        0.00000000        0.00000000        0.00000000
     103         -0.405781        2.000000        0.00000004        0.00000013        0.00000000
     104         -0.401299        2.000000        0.00015358        0.00060079        0.00000854
     105         -0.398347        2.000000        0.00002829        0.00010157        0.00000175
     106         -0.398267        2.000000        0.00017342        0.00055086        0.00001303
     107         -0.397295        2.000000        0.00000330        0.00001389        0.00000026
     108         -0.395753        2.000000        0.00002137        0.00023261        0.00000150
     109         -0.395158        2.000000        0.00001325        0.00008478        0.00000214
     110         -0.394493        2.000000        0.00006809        0.00051605        0.00000389
     111         -0.394192        2.000000        0.00005182        0.00047700        0.00000571
     112         -0.393919        2.000000        0.00000928        0.00008253        0.00000114
     113         -0.393017        2.000000        0.00000549        0.00005083        0.00000106
     114         -0.391793        2.000000        0.00043317        0.00586040        0.00002691
     115         -0.389280        2.000000        0.00000521        0.00010605        0.00000278
     116         -0.388145        2.000000        0.00000202        0.00002558        0.00000011
     117         -0.387090        2.000000        0.00016014        0.00060657        0.00000984
     118         -0.386138        2.000000        0.00001621        0.00006981        0.00000155
     119         -0.385161        2.000000        0.00003154        0.00016609        0.00000351
     120         -0.384984        2.000000        0.00032108        0.00224462        0.00004680
     121         -0.383823        2.000000        0.00029716        0.00096008        0.00001854
     122         -0.383101        2.000000        0.00002776        0.00008699        0.00000204
     123         -0.383025        2.000000        0.00005494        0.00030325        0.00000573
     124         -0.381208        2.000000        0.00000765        0.00002385        0.00000107
     125         -0.380660        2.000000        0.00007128        0.00024549        0.00000576
     126         -0.380323        2.000000        0.00001287        0.00010490        0.00000265
     127         -0.379623        2.000000        0.00001929        0.00019140        0.00000090
     128         -0.379161        2.000000        0.00008272        0.00031196        0.00000518
     129         -0.378115        2.000000        0.00008666        0.00029162        0.00000668
     130         -0.377757        2.000000        0.00107032        0.00302563        0.00007829
     131         -0.377213        2.000000        0.00013630        0.00041299        0.00001036
     132         -0.376655        2.000000        0.00001410        0.00010303        0.00000123
     133         -0.376089        2.000000        0.00009387        0.00043328        0.00001092
     134         -0.375522        2.000000        0.00008859        0.00061012        0.00001085
     135         -0.373953        2.000000        0.00001014        0.00036544        0.00001409
     136         -0.373564        2.000000        0.00001350        0.00015577        0.00000706
     137         -0.372991        2.000000        0.00006455        0.00092911        0.00000753
     138         -0.372433        2.000000        0.00000293        0.00003009        0.00000018
     139         -0.372037        2.000000        0.00000012        0.00001731        0.00000077
     140         -0.371632        2.000000        0.00012559        0.00054605        0.00001207
     141         -0.371006        2.000000        0.00000052        0.00000629        0.00000011
     142         -0.369840        2.000000        0.00001781        0.00008103        0.00000146
     143         -0.369635        2.000000        0.00023617        0.00105952        0.00001889
     144         -0.369153        2.000000        0.00002100        0.00010477        0.00000200
     145         -0.369131        2.000000        0.00011719        0.00095886        0.00000811
     146         -0.368498        2.000000        0.00000446        0.00009586        0.00000294
     147         -0.367984        2.000000        0.00000906        0.00011245        0.00000252
     148         -0.367257        2.000000        0.00000440        0.00008124        0.00000210
     149         -0.366951        2.000000        0.00033378        0.00186337        0.00002904
     150         -0.366882        2.000000        0.00016134        0.00053497        0.00001144
     151         -0.366558        2.000000        0.00008328        0.00035800        0.00000779
     152         -0.366087        2.000000        0.00010709        0.00033776        0.00001002
     153         -0.365532        2.000000        0.00057701        0.00342353        0.00005219
     154         -0.365292        2.000000        0.00268577        0.01744381        0.00030826
     155         -0.364873        2.000000        0.00005202        0.00028833        0.00000494
     156         -0.364499        2.000000        0.00017247        0.00137361        0.00002934
     157         -0.364385        2.000000        0.00005051        0.00042614        0.00000627
     158         -0.363409        2.000000        0.00021053        0.00120786        0.00001765
     159         -0.362731        2.000000        0.00009119        0.00039514        0.00000727
     160         -0.361690        2.000000        0.00005965        0.00061414        0.00001172
     161         -0.361463        2.000000        0.00002394        0.00007951        0.00000177
     162         -0.360695        2.000000        0.00114456        0.00572455        0.00009528
     163         -0.359909        2.000000        0.00012723        0.00103398        0.00001117
     164         -0.358869        2.000000        0.00314098        0.02202373        0.00032648
     165         -0.358762        2.000000        0.00011076        0.00075406        0.00001139
     166         -0.358424        2.000000        0.00318899        0.02382251        0.00043791
     167         -0.357749        2.000000        0.00005814        0.00044724        0.00000406
     168         -0.357432        2.000000        0.00002569        0.00025536        0.00000346
     169         -0.356226        2.000000        0.00100588        0.01564930        0.00041952
     170         -0.355206        2.000000        0.00076401        0.00201067        0.00005278
     171         -0.354151        2.000000        0.00040029        0.00126944        0.00002796
     172         -0.353675        2.000000        0.00005535        0.00014602        0.00000347
     173         -0.353241        2.000000        0.00009760        0.00068488        0.00001311
     174         -0.352384        2.000000        0.00028543        0.00075601        0.00001911
     175         -0.349281        2.000000        0.03664143        0.10233318        0.00238342
     176         -0.348101        2.000000        0.00170573        0.00475365        0.00011118
     177         -0.347056        2.000000        0.00686160        0.01912373        0.00044498
     178         -0.346421        2.000000        0.00296730        0.00821906        0.00019308
     179         -0.346099        2.000000        0.00069011        0.00192411        0.00004498
     180         -0.344626        2.000000        0.00150866        0.00430451        0.00009606
     181         -0.344227        2.000000        0.00004326        0.00011863        0.00000284
     182         -0.344158        2.000000        0.00370696        0.01024118        0.00023885
     183         -0.343279        2.000000        0.00027011        0.00077795        0.00001548
     184         -0.342186        2.000000        0.15185828        0.41622787        0.00963991
     185         -0.341638        2.000000        0.00030855        0.00146860        0.00002606
     186         -0.341223        2.000000        0.00065174        0.00187005        0.00004121
     187         -0.341051        2.000000        0.00002355        0.00006555        0.00000148
     188         -0.340810        2.000000        0.00047905        0.00145742        0.00003158
     189         -0.340344        2.000000        0.00102251        0.00276593        0.00006650
     190         -0.340103        2.000000        0.00046210        0.00125740        0.00002997
     191         -0.339538        2.000000        0.00034113        0.00116751        0.00002476
     192         -0.338904        2.000000        0.00002723        0.00015164        0.00000205
     193         -0.338737        2.000000        0.00005864        0.00048269        0.00000784
     194         -0.337951        2.000000        0.00047405        0.00160592        0.00003440
     195         -0.337180        2.000000        0.00000495        0.00002919        0.00000053
     196         -0.336960        2.000000        0.00046823        0.00192319        0.00003064
     197         -0.336163        2.000000        0.00005095        0.00020706        0.00000482
     198         -0.335733        2.000000        0.00002173        0.00012802        0.00000272
     199         -0.334956        2.000000        0.00007819        0.00021907        0.00000476
     200         -0.333834        2.000000        0.00004709        0.00013646        0.00000334
     201         -0.331670        2.000000        0.00005051        0.00024398        0.00000334
     202         -0.330715        2.000000        0.00001830        0.00006524        0.00000110
     203         -0.327469        2.000000        0.00001376        0.00004355        0.00000100
     204         -0.326924        2.000000        0.00002122        0.00006535        0.00000119
     205         -0.319799        2.000000        0.00002533        0.00009816        0.00000153
     206         -0.319625        2.000000        0.00000036        0.00000115        0.00000002
     207         -0.318771        2.000000        0.00000110        0.00000525        0.00000006
     208         -0.318487        2.000000        0.00002550        0.00016091        0.00000181
     209         -0.318151        2.000000        0.00012533        0.00057047        0.00001363
     210         -0.317254        2.000000        0.00000152        0.00000795        0.00000007
     211         -0.316615        2.000000        0.00002988        0.00011058        0.00000171
     212         -0.316317        2.000000        0.00000630        0.00002725        0.00000035
     213         -0.315885        2.000000        0.00024283        0.00113230        0.00001431
     214         -0.315512        2.000000        0.00022805        0.00100213        0.00001447
     215         -0.314742        2.000000        0.00044419        0.00195784        0.00003043
     216         -0.314240        2.000000        0.00000846        0.00003670        0.00000056
     217         -0.313093        2.000000        0.00012651        0.00055336        0.00000949
     218         -0.312538        2.000000        0.00037507        0.00176975        0.00001788
     219         -0.312396        2.000000        0.00096284        0.00476585        0.00003731
     220         -0.312037        2.000000        0.00002872        0.00034023        0.00000619
     221         -0.310598        2.000000        0.00014192        0.00055054        0.00001016
     222         -0.310221        2.000000        0.00014873        0.00089207        0.00000507
     223         -0.309408        2.000000        0.00014271        0.00068597        0.00000542
     224         -0.309395        2.000000        0.00048115        0.00234880        0.00002015
     225         -0.309234        2.000000        0.00028501        0.00158460        0.00001367
     226         -0.308381        2.000000        0.00099591        0.00424460        0.00003495
     227         -0.308250        2.000000        0.00002849        0.00013299        0.00000100
     228         -0.308097        2.000000        0.00021021        0.00078782        0.00000791
     229         -0.307179        2.000000        0.00090237        0.00339234        0.00003580
     230         -0.305966        2.000000        0.01094647        0.05662264        0.00042838
     231         -0.305190        2.000000        0.00033512        0.00227667        0.00001699
     232         -0.305170        2.000000        0.00006692        0.00048908        0.00000363
     233         -0.303881        2.000000        0.00002291        0.00008518        0.00000062
     234         -0.303186        2.000000        0.00008492        0.00039574        0.00000235
     235         -0.302644        2.000000        0.00021492        0.00095101        0.00000618
     236         -0.302137        2.000000        0.00247457        0.01088321        0.00006871
     237         -0.301410        2.000000        0.00018885        0.00084587        0.00000653
     238         -0.301270        2.000000        0.00046607        0.00182787        0.00001071
     239         -0.300504        2.000000        0.00030968        0.00126324        0.00000777
     240         -0.300347        2.000000        0.00006903        0.00018020        0.00000164
     241         -0.300010        2.000000        0.00000670        0.00002126        0.00000017
     242         -0.298878        2.000000        0.00024838        0.00093045        0.00000660
     243         -0.298505        2.000000        0.00015197        0.00049543        0.00000376
     244         -0.297847        2.000000        0.00032179        0.00106988        0.00000732
     245         -0.297156        2.000000        0.00038031        0.00097777        0.00000780
     246         -0.297046        2.000000        0.00006932        0.00049481        0.00000364
     247         -0.296671        2.000000        0.00013764        0.00041277        0.00000432
     248         -0.296618        2.000000        0.00003755        0.00009779        0.00000057
     249         -0.295969        2.000000        0.00162643        0.00454591        0.00003067
     250         -0.295348        2.000000        0.00136272        0.00372878        0.00002345
     251         -0.295087        2.000000        0.00000087        0.00000668        0.00000007
     252         -0.294369        2.000000        0.00003081        0.00017886        0.00000172
     253         -0.294183        2.000000        0.00002075        0.00009057        0.00000083
     254         -0.293640        2.000000        0.00002215        0.00013123        0.00000195
     255         -0.293246        2.000000        0.00000160        0.00005602        0.00000099
     256         -0.292577        2.000000        0.00003649        0.00019268        0.00000121
     257         -0.291994        2.000000        0.00017761        0.00068420        0.00000411
     258         -0.291705        2.000000        0.00004813        0.00020237        0.00000107
     259         -0.290928        2.000000        0.00000696        0.00006421        0.00000101
     260         -0.290306        2.000000        0.00002446        0.00021350        0.00000131
     261         -0.289901        2.000000        0.00298861        0.01124596        0.00006361
     262         -0.289451        2.000000        0.00012749        0.00055596        0.00000498
     263         -0.289043        2.000000        0.00009594        0.00023329        0.00000153
     264         -0.288015        2.000000        0.00051339        0.00286475        0.00001443
     265         -0.287861        2.000000        0.00093546        0.00494185        0.00003923
     266         -0.286936        2.000000        0.00005655        0.00032333        0.00000210
     267         -0.286667        2.000000        0.00008322        0.00044806        0.00000254
     268         -0.286302        2.000000        0.00058429        0.00294058        0.00001521
     269         -0.285607        2.000000        0.00001607        0.00017554        0.00000194
     270         -0.285328        2.000000        0.00020689        0.00094705        0.00000572
     271         -0.285085        2.000000        0.00019405        0.00086594        0.00000442
     272         -0.284841        2.000000        0.00004822        0.00015287        0.00000096
     273         -0.284131        2.000000        0.00028264        0.00130309        0.00000703
     274         -0.283572        2.000000        0.00063481        0.00239949        0.00001331
     275         -0.283249        2.000000        0.00069146        0.00264004        0.00001358
     276         -0.283050        2.000000        0.00102785        0.00398749        0.00002094
     277         -0.282957        2.000000        0.00002478        0.00011085        0.00000091
     278         -0.282638        2.000000        0.00033116        0.00138219        0.00000861
     279         -0.282393        2.000000        0.00878407        0.03361402        0.00019403
     280         -0.282190        2.000000        0.00057770        0.00218289        0.00001171
     281         -0.281812        2.000000        0.00001788        0.00009613        0.00000069
     282         -0.281718        2.000000        0.00049329        0.00186219        0.00001030
     283         -0.281529        2.000000        0.00005840        0.00017061        0.00000180
     284         -0.281304        2.000000        0.00007518        0.00021598        0.00000160
     285         -0.281056        2.000000        0.00003375        0.00008118        0.00000096
     286         -0.280948        2.000000        0.00001729        0.00008710        0.00000050
     287         -0.280843        2.000000        0.00053063        0.00208978        0.00001108
     288         -0.280780        2.000000        0.00002385        0.00010862        0.00000052
     289         -0.280282        2.000000        0.00021257        0.00098470        0.00000475
     290         -0.279956        2.000000        0.00006593        0.00026225        0.00000169
     291         -0.279807        2.000000        0.00008092        0.00040729        0.00000217
     292         -0.279686        2.000000        0.00044680        0.00221752        0.00001297
     293         -0.279589        2.000000        0.00000612        0.00005292        0.00000047
     294         -0.279495        2.000000        0.00070092        0.00265304        0.00001518
     295         -0.279217        2.000000        0.00011343        0.00046802        0.00000381
     296         -0.279093        2.000000        0.00057142        0.00322842        0.00002250
     297         -0.278951        2.000000        0.00011984        0.00058660        0.00000384
     298         -0.278592        2.000000        0.00005381        0.00034066        0.00000307
     299         -0.278433        2.000000        0.00004369        0.00023935        0.00000114
     300         -0.278210        2.000000        0.00043137        0.00204080        0.00001118
     301         -0.278135        2.000000        0.00002434        0.00007172        0.00000049
     302         -0.278031        2.000000        0.00007721        0.00030293        0.00000230
     303         -0.277650        2.000000        0.00120563        0.00543705        0.00002834
     304         -0.277312        2.000000        0.00071790        0.00297753        0.00001610
     305         -0.276990        2.000000        0.00446314        0.01884402        0.00009602
     306         -0.276609        2.000000        0.00044317        0.00186136        0.00001014
     307         -0.276405        2.000000        0.00282785        0.01131461        0.00005817