# Projected DOS for list 93 of 3 atoms, at iteration step i = 0, E(Fermi) =    -0.060510 a.u.
#     MO Eigenvalue [a.u.]      Occupation                 s                 p                 d
       1         -0.895259        2.000000        0.00000005        0.00000016        0.00000000
       2         -0.868125        2.000000        0.00000036        0.00000209        0.00000001
       3         -0.864615        2.000000        0.00000007        0.00000077        0.00000000
       4         -0.857993        2.000000        0.00000000        0.00000000        0.00000000
       5         -0.853826        2.000000        0.00000000        0.00000000        0.00000000
       6         -0.850378        2.000000        0.00000004        0.00000003        0.00000000
       7         -0.848222        2.000000        0.00000000        0.00000003        0.00000000
       8         -0.847335        2.000000        0.00000000        0.00000000        0.00000000
       9         -0.842977        2.000000        0.00000013        0.00000010        0.00000000
      10         -0.841504        2.000000        0.00000193        0.00000301        0.00000002
      11         -0.840654        2.000000        0.00000163        0.00000231        0.00000001
      12         -0.839688        2.000000        0.00000151        0.00000215        0.00000001
      13         -0.839172        2.000000        0.00000197        0.00000255        0.00000002
      14         -0.838522        2.000000        0.00000011        0.00000016        0.00000000
      15         -0.837015        2.000000        0.00000002        0.00000007        0.00000000
      16         -0.832753        2.000000        0.00000001        0.00000008        0.00000000
      17         -0.832000        2.000000        0.00000040        0.00000071        0.00000001
      18         -0.831644        2.000000        0.00000098        0.00000078        0.00000001
      19         -0.830027        2.000000        0.00000174        0.00000140        0.00000001
      20         -0.829447        2.000000        0.00000006        0.00000002        0.00000000
      21         -0.828640        2.000000        0.00000302        0.00000257        0.00000002
      22         -0.828147        2.000000        0.00004416        0.00004055        0.00000029
      23         -0.827394        2.000000        0.00000457        0.00000346        0.00000003
      24         -0.826637        2.000000        0.00013663        0.00012806        0.00000094
      25         -0.825864        2.000000        0.00038488        0.00035803        0.00000270
      26         -0.825007        2.000000        0.00002559        0.00002712        0.00000018
      27         -0.824149        2.000000        0.00000116        0.00000669        0.00000016
      28         -0.823003        2.000000        0.00000115        0.00000776        0.00000006
      29         -0.821982        2.000000        0.00003002        0.00001152        0.00000012
      30         -0.820560        2.000000        0.00001026        0.00001570        0.00000014
      31         -0.820223        2.000000        0.00000072        0.00000096        0.00000002
      32         -0.820029        2.000000        0.00000117        0.00000277        0.00000002
      33         -0.819390        2.000000        0.00001008        0.00001654        0.00000011
      34         -0.818664        2.000000        0.00000726        0.00000243        0.00000003
      35         -0.817548        2.000000        0.00001934        0.00000868        0.00000028
      36         -0.816472        2.000000        0.00001828        0.00000640        0.00000007
      37         -0.815444        2.000000        0.00000162        0.00000044        0.00000001
      38         -0.814805        2.000000        0.00001221        0.00001758        0.00000012
      39         -0.814124        2.000000        0.00002247        0.00002618        0.00000025
      40         -0.813968        2.000000        0.00008844        0.00006793        0.00000064
      41         -0.813053        2.000000        0.00000249        0.00000043        0.00000001
      42         -0.812601        2.000000        0.00001978        0.00002662        0.00000033
      43         -0.811948        2.000000        0.00006721        0.00002888        0.00000031
      44         -0.811687        2.000000        0.00003447        0.00001262        0.00000014
      45         -0.810574        2.000000        0.00012182        0.00005378        0.00000075
      46         -0.809310        2.000000        0.00000273        0.00000258        0.00000004
      47         -0.808268        2.000000        0.00038082        0.00011096        0.00000151
      48         -0.807324        2.000000        0.00000333        0.00000103        0.00000002
      49         -0.806602        2.000000        0.00002799        0.00002151        0.00000030
      50         -0.806376        2.000000        0.00011581        0.00007234        0.00000064
      51         -0.806147        2.000000        0.00020926        0.00011294        0.00000122
      52         -0.804835        2.000000        0.00006164        0.00001451        0.00000016
      53         -0.804321        2.000000        0.00075604        0.00022695        0.00000291
      54         -0.803943        2.000000        0.00000135        0.00000328        0.00000006
      55         -0.803401        2.000000        0.00002324        0.00002464        0.00000041
      56         -0.802648        2.000000        0.00043870        0.00014648        0.00000205
      57         -0.801912        2.000000        0.00003495        0.00001393        0.00000022
      58         -0.801342        2.000000        0.00013901        0.00006092        0.00000092
      59         -0.800594        2.000000        0.00037321        0.00010365        0.00000149
      60         -0.799945        2.000000        0.00008230        0.00002264        0.00000034
      61         -0.799254        2.000000        0.00001982        0.00000605        0.00000009
      62         -0.798331        2.000000        0.00000037        0.00000028        0.00000001
      63         -0.797356        2.000000        0.00081101        0.00017770        0.00000276
      64         -0.795713        2.000000        0.00007758        0.00001728        0.00000028
      65         -0.795144        2.000000        0.00113878        0.00024765        0.00000404
      66         -0.794508        2.000000        0.00835222        0.00177579        0.00002902
      67         -0.793501        2.000000        0.03552105        0.00712207        0.00011643
      68         -0.792888        2.000000        0.00127164        0.00026079        0.00000431
      69         -0.792771        2.000000        0.00048274        0.00008912        0.00000143
      70         -0.792166        2.000000        0.00465237        0.00094681        0.00001574
      71         -0.791795        2.000000        0.00075924        0.00014973        0.00000248
      72         -0.790466        2.000000        0.00004064        0.00000717        0.00000010
      73         -0.789691        2.000000        0.00258231        0.00045010        0.00000715
      74         -0.789018        2.000000        0.00012602        0.00002217        0.00000036
      75         -0.788284        2.000000        0.00335429        0.00059306        0.00000852
      76         -0.787044        2.000000        0.00012046        0.00002242        0.00000024
      77         -0.785765        2.000000        0.02385099        0.00421812        0.00004927
      78         -0.783215        2.000000        0.01495732        0.00452324        0.00001351
      79         -0.782853        2.000000        0.00027642        0.00054331        0.00001291
      80         -0.782388        2.000000        0.00050750        0.00021069        0.00000072
      81         -0.781821        2.000000        0.00048501        0.00009013        0.00000091
      82         -0.780108        2.000000        0.00150452        0.00027834        0.00000324
      83         -0.778906        2.000000        0.00109638        0.00036245        0.00000085
      84         -0.778076        2.000000        0.00001193        0.00000216        0.00000005
      85         -0.775317        2.000000        0.00046593        0.00010434        0.00000075
      86         -0.773086        2.000000        0.02589062        0.00638667        0.00003854
      87         -0.772920        2.000000        0.42572370        0.10444631        0.00064996
      88         -0.771409        2.000000        0.00000384        0.00000140        0.00000000
      89         -0.769725        2.000000        0.03527470        0.00997211        0.00005004
      90         -0.769226        2.000000        0.07479617        0.02219400        0.00010401
      91         -0.767566        2.000000        0.06151702        0.01971820        0.00008350
      92         -0.766737        2.000000        0.00124404        0.00043760        0.00000149
      93         -0.755845        2.000000        0.00379737        0.00165127        0.00000781
      94         -0.752538        2.000000        0.00845298        0.00511416        0.00001297
      95         -0.747161        2.000000        0.00007661        0.00009392        0.00000118
      96         -0.736999        2.000000        0.00030677        0.00033877        0.00000127
      97         -0.726419        2.000000        0.00003192        0.00001264        0.00000063
      98         -0.719129        2.000000        0.02796106        0.01237874        0.00076094
      99         -0.696511        2.000000        0.00312173        0.00162451        0.00014533
     100         -0.460315        2.000000        0.00000000        0.00000002        0.00000000
     101         -0.427906        2.000000        0.00000000        0.00000008        0.00000000
     102         -0.424376        2.000000        0.00000005        0.00000049        0.00000000
     103         -0.405781        2.000000        0.00000000        0.00000000        0.00000000
     104         -0.401299        2.000000        0.00000000        0.00000000        0.00000000
     105         -0.398347        2.000000        0.00000000        0.00000000        0.00000000
     106         -0.398267        2.000000        0.00000000        0.00000000        0.00000000
     107         -0.397295        2.000000        0.00000000        0.00000004        0.00000000
     108         -0.395753        2.000000        0.00000000        0.00000000        0.00000000
     109         -0.395158        2.000000        0.00000001        0.00000003        0.00000000
     110         -0.394493        2.000000        0.00000004        0.00000007        0.00000000
     111         -0.394192        2.000000        0.00000004        0.00000007        0.00000000
     112         -0.393919        2.000000        0.00000001        0.00000006        0.00000000
     113         -0.393017        2.000000        0.00000002        0.00000004        0.00000000
     114         -0.391793        2.000000        0.00000076        0.00000162        0.00000005
     115         -0.389280        2.000000        0.00000000        0.00000001        0.00000000
     116         -0.388145        2.000000        0.00000003        0.00000008        0.00000000
     117         -0.387090        2.000000        0.00000001        0.00000003        0.00000000
     118         -0.386138        2.000000        0.00000001        0.00000005        0.00000000
     119         -0.385161        2.000000        0.00000000        0.00000005        0.00000000
     120         -0.384984        2.000000        0.00000000        0.00000000        0.00000000
     121         -0.383823        2.000000        0.00000000        0.00000000        0.00000000
     122         -0.383101        2.000000        0.00000001        0.00000005        0.00000000
     123         -0.383025        2.000000        0.00000011        0.00000023        0.00000001
     124         -0.381208        2.000000        0.00000000        0.00000003        0.00000000
     125         -0.380660        2.000000        0.00000035        0.00000086        0.00000002
     126         -0.380323        2.000000        0.00000077        0.00000198        0.00000006
     127         -0.379623        2.000000        0.00000011        0.00000025        0.00000001
     128         -0.379161        2.000000        0.00000075        0.00000182        0.00000006
     129         -0.378115        2.000000        0.00000988        0.00002432        0.00000074
     130         -0.377757        2.000000        0.00000026        0.00000061        0.00000002
     131         -0.377213        2.000000        0.00000002        0.00000006        0.00000000
     132         -0.376655        2.000000        0.00000169        0.00000395        0.00000013
     133         -0.376089        2.000000        0.00000014        0.00000049        0.00000001
     134         -0.375522        2.000000        0.00000017        0.00000057        0.00000001
     135         -0.373953        2.000000        0.00000019        0.00000055        0.00000001
     136         -0.373564        2.000000        0.00000092        0.00000284        0.00000007
     137         -0.372991        2.000000        0.00000430        0.00001158        0.00000031
     138         -0.372433        2.000000        0.00000065        0.00000285        0.00000005
     139         -0.372037        2.000000        0.00000077        0.00000213        0.00000006
     140         -0.371632        2.000000        0.00000001        0.00000035        0.00000000
     141         -0.371006        2.000000        0.00000027        0.00000094        0.00000001
     142         -0.369840        2.000000        0.00000567        0.00004028        0.00000012
     143         -0.369635        2.000000        0.00000039        0.00000333        0.00000000
     144         -0.369153        2.000000        0.00000028        0.00000077        0.00000002
     145         -0.369131        2.000000        0.00001574        0.00004612        0.00000121
     146         -0.368498        2.000000        0.00000011        0.00000032        0.00000001
     147         -0.367984        2.000000        0.00000000        0.00000002        0.00000000
     148         -0.367257        2.000000        0.00000000        0.00000001        0.00000000
     149         -0.366951        2.000000        0.00000009        0.00000023        0.00000001
     150         -0.366882        2.000000        0.00000049        0.00000142        0.00000003
     151         -0.366558        2.000000        0.00000061        0.00000170        0.00000005
     152         -0.366087        2.000000        0.00000005        0.00000020        0.00000000
     153         -0.365532        2.000000        0.00000566        0.00001508        0.00000041
     154         -0.365292        2.000000        0.00002020        0.00005381        0.00000146
     155         -0.364873        2.000000        0.00000146        0.00000396        0.00000009
     156         -0.364499        2.000000        0.00000564        0.00001562        0.00000042
     157         -0.364385        2.000000        0.00003187        0.00008415        0.00000222
     158         -0.363409        2.000000        0.00000297        0.00000812        0.00000021
     159         -0.362731        2.000000        0.00295597        0.00805528        0.00021433
     160         -0.361690        2.000000        0.00001084        0.00003073        0.00000080
     161         -0.361463        2.000000        0.00115347        0.00316411        0.00008344
     162         -0.360695        2.000000        0.00002602        0.00007162        0.00000187
     163         -0.359909        2.000000        0.00004819        0.00013498        0.00000342
     164         -0.358869        2.000000        0.00007500        0.00020756        0.00000518
     165         -0.358762        2.000000        0.00000659        0.00003681        0.00000053
     166         -0.358424        2.000000        0.00001179        0.00004253        0.00000077
     167         -0.357749        2.000000        0.00000132        0.00000334        0.00000008
     168         -0.357432        2.000000        0.00000003        0.00000018        0.00000000
     169         -0.356226        2.000000        0.00000070        0.00000184        0.00000005
     170         -0.355206        2.000000        0.00000116        0.00000302        0.00000008
     171         -0.354151        2.000000        0.00001201        0.00003157        0.00000086
     172         -0.353675        2.000000        0.00048610        0.00122766        0.00003459
     173         -0.353241        2.000000        0.00000103        0.00000253        0.00000007
     174         -0.352384        2.000000        0.00000507        0.00001370        0.00000034
     175         -0.349281        2.000000        0.00105444        0.00259466        0.00007159
     176         -0.348101        2.000000        0.00152876        0.00385733        0.00010446
     177         -0.347056        2.000000        0.00568528        0.01439418        0.00038871
     178         -0.346421        2.000000        0.00001283        0.00004072        0.00000090
     179         -0.346099        2.000000        0.00053355        0.00134342        0.00003661
     180         -0.344626        2.000000        0.00001226        0.00003191        0.00000087
     181         -0.344227        2.000000        0.00059987        0.00167256        0.00003811
     182         -0.344158        2.000000        0.00002672        0.00006805        0.00000177
     183         -0.343279        2.000000        0.00000013        0.00000207        0.00000001
     184         -0.342186        2.000000        0.00000050        0.00000509        0.00000002
     185         -0.341638        2.000000        0.00000555        0.00001407        0.00000036
     186         -0.341223        2.000000        0.00004459        0.00012012        0.00000285
     187         -0.341051        2.000000        0.00362411        0.00983476        0.00023396
     188         -0.340810        2.000000        0.00000090        0.00000240        0.00000006
     189         -0.340344        2.000000        0.00000492        0.00001261        0.00000032
     190         -0.340103        2.000000        0.00131103        0.00336278        0.00008570
     191         -0.339538        2.000000        0.00000193        0.00000578        0.00000013
     192         -0.338904        2.000000        0.00000059        0.00000155        0.00000004
     193         -0.338737        2.000000        0.00013162        0.00034843        0.00000835
     194         -0.337951        2.000000        0.00008234        0.00021702        0.00000512
     195         -0.337180        2.000000        0.00255948        0.00662733        0.00016779
     196         -0.336960        2.000000        0.00009962        0.00027877        0.00000665
     197         -0.336163        2.000000        0.00103029        0.00270897        0.00006493
     198         -0.335733        2.000000        0.00005240        0.00012546        0.00000353
     199         -0.334956        2.000000        0.00139200        0.00361850        0.00008828
     200         -0.333834        2.000000        0.08947500        0.23329259        0.00563224
     201         -0.331670        2.000000        0.00245728        0.00645017        0.00015302
     202         -0.330715        2.000000        0.00607142        0.01600102        0.00037554
     203         -0.327469        2.000000        0.12564373        0.33477935        0.00772258
     204         -0.326924        2.000000        0.00065839        0.00175428        0.00004042
     205         -0.319799        2.000000        0.00000016        0.00000076        0.00000000
     206         -0.319625        2.000000        0.00043937        0.00125659        0.00003087
     207         -0.318771        2.000000        0.00004262        0.00021996        0.00000090
     208         -0.318487        2.000000        0.00000004        0.00000016        0.00000000
     209         -0.318151        2.000000        0.00000048        0.00000147        0.00000003
     210         -0.317254        2.000000        0.00000001        0.00000004        0.00000000
     211         -0.316615        2.000000        0.00000000        0.00000001        0.00000000
     212         -0.316317        2.000000        0.00000120        0.00000857        0.00000010
     213         -0.315885        2.000000        0.00000008        0.00000028        0.00000001
     214         -0.315512        2.000000        0.00000005        0.00000020        0.00000000
     215         -0.314742        2.000000        0.00000004        0.00000018        0.00000000
     216         -0.314240        2.000000        0.00000001        0.00000006        0.00000000
     217         -0.313093        2.000000        0.00000002        0.00000006        0.00000000
     218         -0.312538        2.000000        0.00000004        0.00000026        0.00000000
     219         -0.312396        2.000000        0.00000005        0.00000025        0.00000000
     220         -0.312037        2.000000        0.00000000        0.00000003        0.00000000
     221         -0.310598        2.000000        0.00000000        0.00000002        0.00000000
     222         -0.310221        2.000000        0.00000001        0.00000017        0.00000000
     223         -0.309408        2.000000        0.00000000        0.00000001        0.00000000
     224         -0.309395        2.000000        0.00000001        0.00000011        0.00000000
     225         -0.309234        2.000000        0.00000000        0.00000008        0.00000000
     226         -0.308381        2.000000        0.00000005        0.00000014        0.00000000
     227         -0.308250        2.000000        0.00000084        0.00000396        0.00000001
     228         -0.308097        2.000000        0.00000001        0.00000008        0.00000000
     229         -0.307179        2.000000        0.00000002        0.00000007        0.00000000
     230         -0.305966        2.000000        0.00000011        0.00000116        0.00000002
     231         -0.305190        2.000000        0.00000369        0.00001279        0.00000013
     232         -0.305170        2.000000        0.00000658        0.00009005        0.00000206
     233         -0.303881        2.000000        0.00000836        0.00004921        0.00000029
     234         -0.303186        2.000000        0.00000001        0.00000004        0.00000000
     235         -0.302644        2.000000        0.00000001        0.00000008        0.00000000
     236         -0.302137        2.000000        0.00000015        0.00000089        0.00000001
     237         -0.301410        2.000000        0.00000003        0.00000016        0.00000000
     238         -0.301270        2.000000        0.00000005        0.00000024        0.00000000
     239         -0.300504        2.000000        0.00000085        0.00000521        0.00000006
     240         -0.300347        2.000000        0.00000006        0.00000052        0.00000000
     241         -0.300010        2.000000        0.00001916        0.00015927        0.00000117
     242         -0.298878        2.000000        0.00000000        0.00000004        0.00000000
     243         -0.298505        2.000000        0.00000003        0.00000008        0.00000000
     244         -0.297847        2.000000        0.00000001        0.00000007        0.00000000
     245         -0.297156        2.000000        0.00000002        0.00000010        0.00000000
     246         -0.297046        2.000000        0.00000001        0.00000008        0.00000000
     247         -0.296671        2.000000        0.00000003        0.00000011        0.00000000
     248         -0.296618        2.000000        0.00000001        0.00000003        0.00000000
     249         -0.295969        2.000000        0.00000006        0.00000039        0.00000001
     250         -0.295348        2.000000        0.00000005        0.00000041        0.00000001
     251         -0.295087        2.000000        0.00000000        0.00000002        0.00000000
     252         -0.294369        2.000000        0.00000000        0.00000001        0.00000000
     253         -0.294183        2.000000        0.00000000        0.00000000        0.00000000
     254         -0.293640        2.000000        0.00000000        0.00000003        0.00000000
     255         -0.293246        2.000000        0.00000000        0.00000000        0.00000000
     256         -0.292577        2.000000        0.00000001        0.00000008        0.00000000
     257         -0.291994        2.000000        0.00000003        0.00000016        0.00000001
     258         -0.291705        2.000000        0.00000004        0.00000034        0.00000000
     259         -0.290928        2.000000        0.00000040        0.00000204        0.00000007
     260         -0.290306        2.000000        0.00000122        0.00000740        0.00000022
     261         -0.289901        2.000000        0.00000250        0.00002062        0.00000055
     262         -0.289451        2.000000        0.00000225        0.00001307        0.00000041
     263         -0.289043        2.000000        0.00000101        0.00000642        0.00000019
     264         -0.288015        2.000000        0.00000048        0.00000372        0.00000010
     265         -0.287861        2.000000        0.00000013        0.00000115        0.00000001
     266         -0.286936        2.000000        0.00000006        0.00000032        0.00000001
     267         -0.286667        2.000000        0.00000004        0.00000028        0.00000001
     268         -0.286302        2.000000        0.00000086        0.00000533        0.00000015
     269         -0.285607        2.000000        0.00000003        0.00000020        0.00000000
     270         -0.285328        2.000000        0.00000012        0.00000047        0.00000001
     271         -0.285085        2.000000        0.00000020        0.00000092        0.00000003
     272         -0.284841        2.000000        0.00000002        0.00000049        0.00000001
     273         -0.284131        2.000000        0.00000036        0.00000245        0.00000006
     274         -0.283572        2.000000        0.00000035        0.00000750        0.00000001
     275         -0.283249        2.000000        0.00000084        0.00000420        0.00000005
     276         -0.283050        2.000000        0.00000305        0.00001317        0.00000034
     277         -0.282957        2.000000        0.00000022        0.00000102        0.00000003
     278         -0.282638        2.000000        0.00000173        0.00000869        0.00000024
     279         -0.282393        2.000000        0.00006225        0.00028274        0.00000764
     280         -0.282190        2.000000        0.00000213        0.00001242        0.00000011
     281         -0.281812        2.000000        0.00000020        0.00000275        0.00000005
     282         -0.281718        2.000000        0.00003258        0.00021171        0.00000573
     283         -0.281529        2.000000        0.00004668        0.00033792        0.00000872
     284         -0.281304        2.000000        0.00010507        0.00075921        0.00001964
     285         -0.281056        2.000000        0.00118520        0.00888076        0.00022841
     286         -0.280948        2.000000        0.00032306        0.00251310        0.00006359
     287         -0.280843        2.000000        0.00495207        0.03797771        0.00097019
     288         -0.280780        2.000000        0.00015447        0.00111488        0.00002932
     289         -0.280282        2.000000        0.00006672        0.00044783        0.00001222
     290         -0.279956        2.000000        0.00001215        0.00006394        0.00000182
     291         -0.279807        2.000000        0.00020800        0.00148794        0.00003977
     292         -0.279686        2.000000        0.00225452        0.01571574        0.00042420
     293         -0.279589        2.000000        0.00024348        0.00182447        0.00004800
     294         -0.279495        2.000000        0.00092421        0.00603879        0.00016645
     295         -0.279217        2.000000        0.00000307        0.00006777        0.00000027
     296         -0.279093        2.000000        0.00010623        0.00219285        0.00002953
     297         -0.278951        2.000000        0.00000479        0.00011417        0.00000062
     298         -0.278592        2.000000        0.00015011        0.00078382        0.00002179
     299         -0.278433        2.000000        0.00000633        0.00006487        0.00000148
     300         -0.278210        2.000000        0.00006231        0.00032311        0.00000882
     301         -0.278135        2.000000        0.00000006        0.00000080        0.00000000
     302         -0.278031        2.000000        0.00000605        0.00002654        0.00000050
     303         -0.277650        2.000000        0.00009147        0.00052133        0.00001426
     304         -0.277312        2.000000        0.00004553        0.00029929        0.00000804
     305         -0.276990        2.000000        0.00034025        0.00196278        0.00005277
     306         -0.276609        2.000000        0.00003302        0.00016982        0.00000438
     307         -0.276405        2.000000        0.00033876        0.00218933        0.00005801