# Projected DOS for list 63 of 3 atoms, at iteration step i = 0, E(Fermi) =    -0.060510 a.u.
#     MO Eigenvalue [a.u.]      Occupation                 s                 p                 d
       1         -0.895259        2.000000        0.00000000        0.00000000        0.00000000
       2         -0.868125        2.000000        0.00000001        0.00000000        0.00000000
       3         -0.864615        2.000000        0.00000005        0.00000001        0.00000000
       4         -0.857993        2.000000        0.00001541        0.00000053        0.00000005
       5         -0.853826        2.000000        0.06589668        0.00995046        0.00014783
       6         -0.850378        2.000000        0.00001836        0.00000722        0.00000006
       7         -0.848222        2.000000        0.00015998        0.00004931        0.00000044
       8         -0.847335        2.000000        0.00994180        0.00133422        0.00001626
       9         -0.842977        2.000000        0.00006798        0.00002190        0.00000016
      10         -0.841504        2.000000        0.02309497        0.00594294        0.00004123
      11         -0.840654        2.000000        0.00316602        0.00097627        0.00000793
      12         -0.839688        2.000000        0.04387811        0.01005257        0.00005725
      13         -0.839172        2.000000        0.18586114        0.04055155        0.00025135
      14         -0.838522        2.000000        0.04771963        0.00920444        0.00007009
      15         -0.837015        2.000000        0.14293266        0.03839011        0.00020452
      16         -0.832753        2.000000        0.03778214        0.01186787        0.00003491
      17         -0.832000        2.000000        0.00640852        0.00199777        0.00000628
      18         -0.831644        2.000000        0.01075041        0.00352766        0.00000983
      19         -0.830027        2.000000        0.00341136        0.00124514        0.00000272
      20         -0.829447        2.000000        0.03730239        0.01378855        0.00003104
      21         -0.828640        2.000000        0.04069985        0.01693247        0.00003024
      22         -0.828147        2.000000        0.00697434        0.00299440        0.00000496
      23         -0.827394        2.000000        0.00534818        0.00222724        0.00000396
      24         -0.826637        2.000000        0.02463258        0.01066029        0.00001833
      25         -0.825864        2.000000        0.01087396        0.00523484        0.00000728
      26         -0.825007        2.000000        0.01129715        0.00556399        0.00000763
      27         -0.824149        2.000000        0.00063681        0.00034259        0.00000030
      28         -0.823003        2.000000        0.00437889        0.00259445        0.00000338
      29         -0.821982        2.000000        0.00147512        0.00067752        0.00000161
      30         -0.820560        2.000000        0.00013656        0.00017893        0.00000020
      31         -0.820223        2.000000        0.00113651        0.00055993        0.00000057
      32         -0.820029        2.000000        0.00043686        0.00034593        0.00000016
      33         -0.819390        2.000000        0.00137547        0.00083723        0.00000088
      34         -0.818664        2.000000        0.00046808        0.00069275        0.00000137
      35         -0.817548        2.000000        0.00007833        0.00005559        0.00000016
      36         -0.816472        2.000000        0.00195551        0.00136145        0.00000065
      37         -0.815444        2.000000        0.00173685        0.00092674        0.00000161
      38         -0.814805        2.000000        0.00000705        0.00000452        0.00000006
      39         -0.814124        2.000000        0.00007822        0.00005942        0.00000056
      40         -0.813968        2.000000        0.00000660        0.00002658        0.00000012
      41         -0.813053        2.000000        0.00004854        0.00091159        0.00000166
      42         -0.812601        2.000000        0.00002923        0.00005473        0.00000015
      43         -0.811948        2.000000        0.00083256        0.00082371        0.00000074
      44         -0.811687        2.000000        0.00036404        0.00031419        0.00000043
      45         -0.810574        2.000000        0.00000877        0.00000661        0.00000000
      46         -0.809310        2.000000        0.00000959        0.00000940        0.00000001
      47         -0.808268        2.000000        0.00009286        0.00007756        0.00000006
      48         -0.807324        2.000000        0.00029084        0.00027807        0.00000031
      49         -0.806602        2.000000        0.00236408        0.00230446        0.00000250
      50         -0.806376        2.000000        0.00006382        0.00004861        0.00000002
      51         -0.806147        2.000000        0.00006448        0.00005168        0.00000003
      52         -0.804835        2.000000        0.00124086        0.00121302        0.00000213
      53         -0.804321        2.000000        0.00031844        0.00032582        0.00000049
      54         -0.803943        2.000000        0.00560782        0.00607209        0.00001306
      55         -0.803401        2.000000        0.00039310        0.00039484        0.00000073
      56         -0.802648        2.000000        0.00025570        0.00019123        0.00000013
      57         -0.801912        2.000000        0.00064882        0.00086878        0.00000241
      58         -0.801342        2.000000        0.00025960        0.00030837        0.00000092
      59         -0.800594        2.000000        0.00018024        0.00019806        0.00000021
      60         -0.799945        2.000000        0.00009222        0.00012794        0.00000028
      61         -0.799254        2.000000        0.00021982        0.00027163        0.00000050
      62         -0.798331        2.000000        0.00000268        0.00002277        0.00000003
      63         -0.797356        2.000000        0.00000921        0.00001288        0.00000005
      64         -0.795713        2.000000        0.00000540        0.00001590        0.00000026
      65         -0.795144        2.000000        0.00010015        0.00016201        0.00000026
      66         -0.794508        2.000000        0.00015989        0.00025445        0.00000034
      67         -0.793501        2.000000        0.00000566        0.00001935        0.00000003
      68         -0.792888        2.000000        0.00005075        0.00007848        0.00000003
      69         -0.792771        2.000000        0.00009989        0.00017632        0.00000006
      70         -0.792166        2.000000        0.00002172        0.00004338        0.00000047
      71         -0.791795        2.000000        0.00017980        0.00032962        0.00000321
      72         -0.790466        2.000000        0.00013109        0.00019852        0.00000093
      73         -0.789691        2.000000        0.00000055        0.00000063        0.00000000
      74         -0.789018        2.000000        0.00000430        0.00001011        0.00000008
      75         -0.788284        2.000000        0.00000006        0.00000030        0.00000000
      76         -0.787044        2.000000        0.00002146        0.00003728        0.00000048
      77         -0.785765        2.000000        0.00000026        0.00000072        0.00000001
      78         -0.783215        2.000000        0.00000001        0.00000004        0.00000000
      79         -0.782853        2.000000        0.00000001        0.00000008        0.00000000
      80         -0.782388        2.000000        0.00000012        0.00000021        0.00000000
      81         -0.781821        2.000000        0.00000000        0.00000001        0.00000000
      82         -0.780108        2.000000        0.00000148        0.00000353        0.00000001
      83         -0.778906        2.000000        0.00000000        0.00000000        0.00000000
      84         -0.778076        2.000000        0.00000001        0.00000008        0.00000000
      85         -0.775317        2.000000        0.00000066        0.00000074        0.00000001
      86         -0.773086        2.000000        0.00000005        0.00000037        0.00000000
      87         -0.772920        2.000000        0.00000000        0.00000002        0.00000000
      88         -0.771409        2.000000        0.00000082        0.00001613        0.00000004
      89         -0.769725        2.000000        0.00000017        0.00000032        0.00000000
      90         -0.769226        2.000000        0.00000001        0.00000005        0.00000000
      91         -0.767566        2.000000        0.00000003        0.00000008        0.00000000
      92         -0.766737        2.000000        0.00000000        0.00000000        0.00000000
      93         -0.755845        2.000000        0.00000000        0.00000000        0.00000000
      94         -0.752538        2.000000        0.00000000        0.00000000        0.00000000
      95         -0.747161        2.000000        0.00000000        0.00000000        0.00000000
      96         -0.736999        2.000000        0.00000000        0.00000000        0.00000000
      97         -0.726419        2.000000        0.00000000        0.00000000        0.00000000
      98         -0.719129        2.000000        0.00000000        0.00000000        0.00000000
      99         -0.696511        2.000000        0.00000000        0.00000000        0.00000000
     100         -0.460315        2.000000        0.00000000        0.00000000        0.00000000
     101         -0.427906        2.000000        0.00000000        0.00000000        0.00000000
     102         -0.424376        2.000000        0.00000000        0.00000000        0.00000000
     103         -0.405781        2.000000        0.00000963        0.00002588        0.00000060
     104         -0.401299        2.000000        0.06491518        0.17236308        0.00405956
     105         -0.398347        2.000000        0.00186728        0.00547769        0.00011681
     106         -0.398267        2.000000        0.00095928        0.00367772        0.00004918
     107         -0.397295        2.000000        0.00008278        0.00029000        0.00000472
     108         -0.395753        2.000000        0.00265784        0.00953705        0.00015154
     109         -0.395158        2.000000        0.00002907        0.00015350        0.00000171
     110         -0.394493        2.000000        0.00026181        0.00086589        0.00001516
     111         -0.394192        2.000000        0.00024202        0.00078136        0.00001542
     112         -0.393919        2.000000        0.00010445        0.00033913        0.00000637
     113         -0.393017        2.000000        0.00007642        0.00030849        0.00000435
     114         -0.391793        2.000000        0.00011063        0.00031182        0.00000717
     115         -0.389280        2.000000        0.01231842        0.03834406        0.00059071
     116         -0.388145        2.000000        0.00003204        0.00010015        0.00000158
     117         -0.387090        2.000000        0.03129604        0.08504920        0.00197309
     118         -0.386138        2.000000        0.00098429        0.00284057        0.00005858
     119         -0.385161        2.000000        0.00000925        0.00004526        0.00000020
     120         -0.384984        2.000000        0.00335650        0.00947871        0.00020389
     121         -0.383823        2.000000        0.01887833        0.05727546        0.00110740
     122         -0.383101        2.000000        0.00003123        0.00012982        0.00000141
     123         -0.383025        2.000000        0.00097112        0.00286181        0.00005781
     124         -0.381208        2.000000        0.00134287        0.00386688        0.00007961
     125         -0.380660        2.000000        0.00032477        0.00087080        0.00002141
     126         -0.380323        2.000000        0.00206853        0.00586538        0.00012575
     127         -0.379623        2.000000        0.00024929        0.00069961        0.00001526
     128         -0.379161        2.000000        0.03030350        0.08957484        0.00173047
     129         -0.378115        2.000000        0.00004247        0.00020929        0.00000186
     130         -0.377757        2.000000        0.03975016        0.11612527        0.00219520
     131         -0.377213        2.000000        0.00028659        0.00125038        0.00001304
     132         -0.376655        2.000000        0.00042202        0.00119401        0.00002554
     133         -0.376089        2.000000        0.00378005        0.01139258        0.00021241
     134         -0.375522        2.000000        0.00046965        0.00136579        0.00002792
     135         -0.373953        2.000000        0.00047705        0.00131346        0.00002842
     136         -0.373564        2.000000        0.00016177        0.00043203        0.00001124
     137         -0.372991        2.000000        0.00084825        0.00249453        0.00005069
     138         -0.372433        2.000000        0.00007753        0.00024816        0.00000491
     139         -0.372037        2.000000        0.00010657        0.00033443        0.00000635
     140         -0.371632        2.000000        0.00019342        0.00064804        0.00000899
     141         -0.371006        2.000000        0.00048132        0.00161964        0.00002361
     142         -0.369840        2.000000        0.00002692        0.00009665        0.00000141
     143         -0.369635        2.000000        0.00044769        0.00151753        0.00002468
     144         -0.369153        2.000000        0.00002963        0.00009496        0.00000128
     145         -0.369131        2.000000        0.00005509        0.00013239        0.00000434
     146         -0.368498        2.000000        0.00025337        0.00075889        0.00001333
     147         -0.367984        2.000000        0.00018808        0.00078791        0.00000826
     148         -0.367257        2.000000        0.00040009        0.00122250        0.00002370
     149         -0.366951        2.000000        0.00004477        0.00027477        0.00000517
     150         -0.366882        2.000000        0.00009207        0.00032155        0.00000416
     151         -0.366558        2.000000        0.00001042        0.00002005        0.00000024
     152         -0.366087        2.000000        0.00006267        0.00027562        0.00000366
     153         -0.365532        2.000000        0.00001352        0.00009302        0.00000050
     154         -0.365292        2.000000        0.00009772        0.00046175        0.00000719
     155         -0.364873        2.000000        0.00009024        0.00035293        0.00000426
     156         -0.364499        2.000000        0.00001457        0.00006529        0.00000063
     157         -0.364385        2.000000        0.00006107        0.00021163        0.00000275
     158         -0.363409        2.000000        0.00004414        0.00013073        0.00000280
     159         -0.362731        2.000000        0.00000454        0.00001560        0.00000021
     160         -0.361690        2.000000        0.00000400        0.00001552        0.00000018
     161         -0.361463        2.000000        0.00001721        0.00006198        0.00000081
     162         -0.360695        2.000000        0.00003487        0.00015144        0.00000186
     163         -0.359909        2.000000        0.00000115        0.00000274        0.00000008
     164         -0.358869        2.000000        0.00001010        0.00003774        0.00000044
     165         -0.358762        2.000000        0.00000168        0.00000610        0.00000008
     166         -0.358424        2.000000        0.00001484        0.00008185        0.00000078
     167         -0.357749        2.000000        0.00000059        0.00000386        0.00000007
     168         -0.357432        2.000000        0.00002027        0.00007952        0.00000093
     169         -0.356226        2.000000        0.00003997        0.00039799        0.00000219
     170         -0.355206        2.000000        0.00386911        0.01463546        0.00017950
     171         -0.354151        2.000000        0.00051803        0.00285803        0.00001545
     172         -0.353675        2.000000        0.00015372        0.00066581        0.00000621
     173         -0.353241        2.000000        0.00040801        0.00165375        0.00001773
     174         -0.352384        2.000000        0.00027220        0.00105481        0.00001247
     175         -0.349281        2.000000        0.00001976        0.00012896        0.00000050
     176         -0.348101        2.000000        0.00001203        0.00009873        0.00000014
     177         -0.347056        2.000000        0.00000749        0.00002519        0.00000062
     178         -0.346421        2.000000        0.00021007        0.00107395        0.00000532
     179         -0.346099        2.000000        0.00000577        0.00002141        0.00000017
     180         -0.344626        2.000000        0.00011180        0.00059365        0.00000567
     181         -0.344227        2.000000        0.00000006        0.00000042        0.00000001
     182         -0.344158        2.000000        0.00001133        0.00006263        0.00000064
     183         -0.343279        2.000000        0.00017934        0.00120252        0.00001033
     184         -0.342186        2.000000        0.00020592        0.00128330        0.00001376
     185         -0.341638        2.000000        0.00004421        0.00012099        0.00000115
     186         -0.341223        2.000000        0.00002578        0.00012578        0.00000162
     187         -0.341051        2.000000        0.00000052        0.00000203        0.00000003
     188         -0.340810        2.000000        0.00003359        0.00014916        0.00000147
     189         -0.340344        2.000000        0.00012511        0.00115884        0.00001454
     190         -0.340103        2.000000        0.00000544        0.00002925        0.00000034
     191         -0.339538        2.000000        0.00038827        0.00301383        0.00002896
     192         -0.338904        2.000000        0.00002546        0.00019077        0.00000226
     193         -0.338737        2.000000        0.00001839        0.00013497        0.00000125
     194         -0.337951        2.000000        0.00000382        0.00001428        0.00000039
     195         -0.337180        2.000000        0.00000023        0.00000122        0.00000001
     196         -0.336960        2.000000        0.00000083        0.00000431        0.00000006
     197         -0.336163        2.000000        0.00000457        0.00001736        0.00000015
     198         -0.335733        2.000000        0.00001045        0.00004143        0.00000032
     199         -0.334956        2.000000        0.00001073        0.00004021        0.00000041
     200         -0.333834        2.000000        0.00000123        0.00000593        0.00000003
     201         -0.331670        2.000000        0.00000201        0.00000666        0.00000010
     202         -0.330715        2.000000        0.00000181        0.00000501        0.00000007
     203         -0.327469        2.000000        0.00000008        0.00000029        0.00000000
     204         -0.326924        2.000000        0.00000034        0.00000149        0.00000001
     205         -0.319799        2.000000        0.00005794        0.00031569        0.00000209
     206         -0.319625        2.000000        0.00000005        0.00000033        0.00000000
     207         -0.318771        2.000000        0.00000015        0.00000057        0.00000001
     208         -0.318487        2.000000        0.00000992        0.00004606        0.00000013
     209         -0.318151        2.000000        0.00143637        0.01088032        0.00007680
     210         -0.317254        2.000000        0.00001442        0.00005975        0.00000084
     211         -0.316615        2.000000        0.00063508        0.00435151        0.00003579
     212         -0.316317        2.000000        0.00000412        0.00002575        0.00000018
     213         -0.315885        2.000000        0.00115360        0.00752375        0.00005440
     214         -0.315512        2.000000        0.00236856        0.01666319        0.00012384
     215         -0.314742        2.000000        0.00512823        0.03453166        0.00025802
     216         -0.314240        2.000000        0.00000111        0.00000358        0.00000010
     217         -0.313093        2.000000        0.00325136        0.02110677        0.00016363
     218         -0.312538        2.000000        0.00037753        0.00141954        0.00000844
     219         -0.312396        2.000000        0.00031318        0.00172044        0.00001057
     220         -0.312037        2.000000        0.00018959        0.00068307        0.00000298
     221         -0.310598        2.000000        0.00574817        0.03250534        0.00024256
     222         -0.310221        2.000000        0.00301479        0.01958550        0.00015375
     223         -0.309408        2.000000        0.00006490        0.00033124        0.00000274
     224         -0.309395        2.000000        0.00068085        0.00262688        0.00001303
     225         -0.309234        2.000000        0.00029749        0.00172395        0.00001599
     226         -0.308381        2.000000        0.00821788        0.04349869        0.00031186
     227         -0.308250        2.000000        0.00000683        0.00007281        0.00000040
     228         -0.308097        2.000000        0.00558547        0.02859810        0.00020014
     229         -0.307179        2.000000        0.01851238        0.09051772        0.00061011
     230         -0.305966        2.000000        0.00999426        0.05489163        0.00041716
     231         -0.305190        2.000000        0.00002933        0.00018664        0.00000050
     232         -0.305170        2.000000        0.00001701        0.00009582        0.00000037
     233         -0.303881        2.000000        0.00002222        0.00012407        0.00000065
     234         -0.303186        2.000000        0.00003825        0.00008485        0.00000105
     235         -0.302644        2.000000        0.00061621        0.00191716        0.00001107
     236         -0.302137        2.000000        0.00016615        0.00095869        0.00000336
     237         -0.301410        2.000000        0.00071600        0.00320364        0.00002459
     238         -0.301270        2.000000        0.00004105        0.00010542        0.00000028
     239         -0.300504        2.000000        0.00035985        0.00201824        0.00000810
     240         -0.300347        2.000000        0.00005377        0.00030414        0.00000102
     241         -0.300010        2.000000        0.00000124        0.00000762        0.00000004
     242         -0.298878        2.000000        0.00077331        0.00436920        0.00002517
     243         -0.298505        2.000000        0.00039792        0.00472942        0.00001477
     244         -0.297847        2.000000        0.00031419        0.00272705        0.00001419
     245         -0.297156        2.000000        0.00037090        0.00401246        0.00001554
     246         -0.297046        2.000000        0.00028987        0.00379006        0.00001692
     247         -0.296671        2.000000        0.00033325        0.00347948        0.00001432
     248         -0.296618        2.000000        0.00011526        0.00067827        0.00000168
     249         -0.295969        2.000000        0.00017675        0.00100314        0.00000443
     250         -0.295348        2.000000        0.00093617        0.00602341        0.00004185
     251         -0.295087        2.000000        0.00007674        0.00053462        0.00000101
     252         -0.294369        2.000000        0.00117898        0.00903730        0.00004632
     253         -0.294183        2.000000        0.00019490        0.00073779        0.00000109
     254         -0.293640        2.000000        0.00036067        0.00260074        0.00001075
     255         -0.293246        2.000000        0.00032712        0.00216339        0.00000951
     256         -0.292577        2.000000        0.00003476        0.00022679        0.00000067
     257         -0.291994        2.000000        0.00120346        0.01233649        0.00006736
     258         -0.291705        2.000000        0.00002775        0.00041533        0.00000161
     259         -0.290928        2.000000        0.00245269        0.02036396        0.00009778
     260         -0.290306        2.000000        0.00130111        0.00495852        0.00001894
     261         -0.289901        2.000000        0.00065598        0.00605152        0.00002896
     262         -0.289451        2.000000        0.00053529        0.00229729        0.00000373
     263         -0.289043        2.000000        0.00120968        0.00730919        0.00004753
     264         -0.288015        2.000000        0.00046212        0.00434637        0.00002078
     265         -0.287861        2.000000        0.00001472        0.00043593        0.00000172
     266         -0.286936        2.000000        0.00001526        0.00006224        0.00000115
     267         -0.286667        2.000000        0.00020112        0.00208480        0.00000929
     268         -0.286302        2.000000        0.00093997        0.00711423        0.00003212
     269         -0.285607        2.000000        0.00006036        0.00089009        0.00000284
     270         -0.285328        2.000000        0.00005050        0.00063475        0.00000152
     271         -0.285085        2.000000        0.00015981        0.00049277        0.00000162
     272         -0.284841        2.000000        0.00015431        0.00075082        0.00000375
     273         -0.284131        2.000000        0.00003882        0.00075108        0.00000325
     274         -0.283572        2.000000        0.00124658        0.01061880        0.00004660
     275         -0.283249        2.000000        0.00033276        0.00167509        0.00000670
     276         -0.283050        2.000000        0.00000164        0.00006315        0.00000063
     277         -0.282957        2.000000        0.00009062        0.00040751        0.00000302
     278         -0.282638        2.000000        0.00000650        0.00002866        0.00000019
     279         -0.282393        2.000000        0.00014165        0.00133650        0.00000642
     280         -0.282190        2.000000        0.00024300        0.00181057        0.00000760
     281         -0.281812        2.000000        0.00008725        0.00028849        0.00000058
     282         -0.281718        2.000000        0.00036131        0.00454330        0.00001510
     283         -0.281529        2.000000        0.00003860        0.00059421        0.00000175
     284         -0.281304        2.000000        0.00000442        0.00004922        0.00000029
     285         -0.281056        2.000000        0.00036620        0.00208081        0.00000699
     286         -0.280948        2.000000        0.00004980        0.00062237        0.00000129
     287         -0.280843        2.000000        0.00003666        0.00034135        0.00000184
     288         -0.280780        2.000000        0.00001934        0.00004727        0.00000120
     289         -0.280282        2.000000        0.00009288        0.00159206        0.00000771
     290         -0.279956        2.000000        0.00005861        0.00094875        0.00000246
     291         -0.279807        2.000000        0.00002451        0.00024619        0.00000087
     292         -0.279686        2.000000        0.00051343        0.00605898        0.00001786
     293         -0.279589        2.000000        0.00015341        0.00233403        0.00000623
     294         -0.279495        2.000000        0.00051724        0.00575342        0.00002144
     295         -0.279217        2.000000        0.00053069        0.00642400        0.00002009
     296         -0.279093        2.000000        0.00006370        0.00045759        0.00000309
     297         -0.278951        2.000000        0.00010532        0.00179589        0.00000475
     298         -0.278592        2.000000        0.00178407        0.01870395        0.00006575
     299         -0.278433        2.000000        0.00085811        0.00904032        0.00003382
     300         -0.278210        2.000000        0.00015733        0.00156642        0.00000506
     301         -0.278135        2.000000        0.00007247        0.00130166        0.00000345
     302         -0.278031        2.000000        0.00003708        0.00021857        0.00000042
     303         -0.277650        2.000000        0.00010293        0.00060311        0.00000209
     304         -0.277312        2.000000        0.00094270        0.00975795        0.00003723
     305         -0.276990        2.000000        0.00027566        0.00182039        0.00000807
     306         -0.276609        2.000000        0.00015258        0.00072407        0.00000116
     307         -0.276405        2.000000        0.00034540        0.00436162        0.00000656