# Projected DOS for list 5 of 3 atoms, at iteration step i = 0, E(Fermi) =    -0.060510 a.u.
#     MO Eigenvalue [a.u.]      Occupation                 s                 p                 d
       1         -0.895259        2.000000        0.00000004        0.00000006        0.00000000
       2         -0.868125        2.000000        0.00001233        0.00002182        0.00000012
       3         -0.864615        2.000000        0.00000544        0.00001681        0.00000010
       4         -0.857993        2.000000        0.00000070        0.00000093        0.00000000
       5         -0.853826        2.000000        0.00000029        0.00000019        0.00000000
       6         -0.850378        2.000000        0.00000001        0.00000043        0.00000000
       7         -0.848222        2.000000        0.00000234        0.00000842        0.00000003
       8         -0.847335        2.000000        0.00000202        0.00000121        0.00000001
       9         -0.842977        2.000000        0.00002434        0.00001288        0.00000012
      10         -0.841504        2.000000        0.00248335        0.00188183        0.00001969
      11         -0.840654        2.000000        0.00483350        0.00398596        0.00004225
      12         -0.839688        2.000000        0.00423276        0.00308142        0.00003419
      13         -0.839172        2.000000        0.00021480        0.00017614        0.00000189
      14         -0.838522        2.000000        0.00010926        0.00008801        0.00000093
      15         -0.837015        2.000000        0.00000144        0.00000073        0.00000001
      16         -0.832753        2.000000        0.00032798        0.00027238        0.00000183
      17         -0.832000        2.000000        0.00174636        0.00090865        0.00001123
      18         -0.831644        2.000000        0.00110756        0.00047305        0.00000674
      19         -0.830027        2.000000        0.00002949        0.00012119        0.00000088
      20         -0.829447        2.000000        0.00013882        0.00046922        0.00000307
      21         -0.828640        2.000000        0.00069350        0.00036272        0.00000496
      22         -0.828147        2.000000        0.00005528        0.00027088        0.00000144
      23         -0.827394        2.000000        0.00034093        0.00054742        0.00000250
      24         -0.826637        2.000000        0.00063133        0.00128471        0.00001086
      25         -0.825864        2.000000        0.00040299        0.00016785        0.00000271
      26         -0.825007        2.000000        0.00034649        0.00079532        0.00000528
      27         -0.824149        2.000000        0.00001865        0.00006908        0.00000041
      28         -0.823003        2.000000        0.00006956        0.00043172        0.00000279
      29         -0.821982        2.000000        0.00003162        0.00001382        0.00000013
      30         -0.820560        2.000000        0.00000718        0.00001874        0.00000008
      31         -0.820223        2.000000        0.00011597        0.00001763        0.00000051
      32         -0.820029        2.000000        0.00032329        0.00005599        0.00000147
      33         -0.819390        2.000000        0.00091535        0.00056073        0.00000321
      34         -0.818664        2.000000        0.00002487        0.00003044        0.00000014
      35         -0.817548        2.000000        0.00005061        0.00004292        0.00000055
      36         -0.816472        2.000000        0.00127467        0.00048582        0.00000744
      37         -0.815444        2.000000        0.00196722        0.00044889        0.00000721
      38         -0.814805        2.000000        0.00038648        0.00003468        0.00000132
      39         -0.814124        2.000000        0.00125720        0.00147956        0.00001448
      40         -0.813968        2.000000        0.00458418        0.00314007        0.00003004
      41         -0.813053        2.000000        0.00001194        0.00000547        0.00000005
      42         -0.812601        2.000000        0.00013514        0.00014538        0.00000128
      43         -0.811948        2.000000        0.00021333        0.00006525        0.00000161
      44         -0.811687        2.000000        0.00001423        0.00008446        0.00000044
      45         -0.810574        2.000000        0.00000576        0.00004525        0.00000080
      46         -0.809310        2.000000        0.00042537        0.00101183        0.00003604
      47         -0.808268        2.000000        0.00003959        0.00003284        0.00000063
      48         -0.807324        2.000000        0.00002083        0.00001672        0.00000029
      49         -0.806602        2.000000        0.00031944        0.00004306        0.00000136
      50         -0.806376        2.000000        0.00007726        0.00004801        0.00000062
      51         -0.806147        2.000000        0.00029464        0.00010083        0.00000178
      52         -0.804835        2.000000        0.00027481        0.00019914        0.00000281
      53         -0.804321        2.000000        0.00022281        0.00009258        0.00000164
      54         -0.803943        2.000000        0.00024601        0.00003931        0.00000097
      55         -0.803401        2.000000        0.00014810        0.00004676        0.00000101
      56         -0.802648        2.000000        0.00040322        0.00014108        0.00000256
      57         -0.801912        2.000000        0.00089810        0.00011193        0.00000249
      58         -0.801342        2.000000        0.00018975        0.00003653        0.00000032
      59         -0.800594        2.000000        0.00099817        0.00017562        0.00000351
      60         -0.799945        2.000000        0.00575101        0.00208032        0.00003071
      61         -0.799254        2.000000        0.00012772        0.00004447        0.00000057
      62         -0.798331        2.000000        0.00001044        0.00000363        0.00000008
      63         -0.797356        2.000000        0.00012406        0.00003109        0.00000062
      64         -0.795713        2.000000        0.00009076        0.00002284        0.00000022
      65         -0.795144        2.000000        0.00013940        0.00011864        0.00000232
      66         -0.794508        2.000000        0.00143036        0.00028951        0.00000542
      67         -0.793501        2.000000        0.00117059        0.00043869        0.00001345
      68         -0.792888        2.000000        0.00001078        0.00005724        0.00000103
      69         -0.792771        2.000000        0.00004561        0.00002302        0.00000068
      70         -0.792166        2.000000        0.00175750        0.00047154        0.00001002
      71         -0.791795        2.000000        0.00033011        0.00007591        0.00000192
      72         -0.790466        2.000000        0.00004093        0.00001320        0.00000020
      73         -0.789691        2.000000        0.00169950        0.00051673        0.00000166
      74         -0.789018        2.000000        0.00001609        0.00001192        0.00000018
      75         -0.788284        2.000000        0.01607385        0.00307449        0.00003233
      76         -0.787044        2.000000        0.00258495        0.00054396        0.00000747
      77         -0.785765        2.000000        0.06428432        0.01504299        0.00019948
      78         -0.783215        2.000000        0.03251026        0.00591565        0.00010482
      79         -0.782853        2.000000        0.06819463        0.01290267        0.00027281
      80         -0.782388        2.000000        0.00157155        0.00027888        0.00000625
      81         -0.781821        2.000000        0.00014323        0.00003463        0.00000156
      82         -0.780108        2.000000        0.00009821        0.00004237        0.00000041
      83         -0.778906        2.000000        0.00002744        0.00000646        0.00000011
      84         -0.778076        2.000000        0.00000018        0.00000115        0.00000003
      85         -0.775317        2.000000        0.00000163        0.00000121        0.00000002
      86         -0.773086        2.000000        0.00036551        0.00010581        0.00000059
      87         -0.772920        2.000000        0.00010610        0.00004617        0.00000034
      88         -0.771409        2.000000        0.00295552        0.00079809        0.00000528
      89         -0.769725        2.000000        0.03174144        0.00969229        0.00006207
      90         -0.769226        2.000000        0.28900518        0.09120191        0.00046285
      91         -0.767566        2.000000        0.21531478        0.06641078        0.00034986
      92         -0.766737        2.000000        0.00490135        0.00141195        0.00001137
      93         -0.755845        2.000000        0.00010429        0.00003715        0.00000026
      94         -0.752538        2.000000        0.00222021        0.00078120        0.00001778
      95         -0.747161        2.000000        0.00000002        0.00000001        0.00000000
      96         -0.736999        2.000000        0.00004533        0.00003865        0.00000201
      97         -0.726419        2.000000        0.00000006        0.00000005        0.00000000
      98         -0.719129        2.000000        0.00000025        0.00000022        0.00000001
      99         -0.696511        2.000000        0.00000012        0.00000016        0.00000000
     100         -0.460315        2.000000        0.00000003        0.00000009        0.00000000
     101         -0.427906        2.000000        0.00002276        0.00008382        0.00000032
     102         -0.424376        2.000000        0.00000056        0.00000247        0.00000014
     103         -0.405781        2.000000        0.00000004        0.00000040        0.00000000
     104         -0.401299        2.000000        0.00000041        0.00000162        0.00000002
     105         -0.398347        2.000000        0.00000068        0.00000170        0.00000005
     106         -0.398267        2.000000        0.00000370        0.00001645        0.00000019
     107         -0.397295        2.000000        0.00000071        0.00000525        0.00000002
     108         -0.395753        2.000000        0.00005252        0.00019802        0.00000325
     109         -0.395158        2.000000        0.00000890        0.00003561        0.00000063
     110         -0.394493        2.000000        0.00136319        0.00490334        0.00009905
     111         -0.394192        2.000000        0.00009947        0.00035178        0.00000735
     112         -0.393919        2.000000        0.00000002        0.00000020        0.00000000
     113         -0.393017        2.000000        0.00000384        0.00001940        0.00000029
     114         -0.391793        2.000000        0.00023007        0.00089638        0.00001588
     115         -0.389280        2.000000        0.00000053        0.00000308        0.00000001
     116         -0.388145        2.000000        0.00000196        0.00000833        0.00000010
     117         -0.387090        2.000000        0.00001604        0.00005345        0.00000131
     118         -0.386138        2.000000        0.00000216        0.00001873        0.00000020
     119         -0.385161        2.000000        0.00000058        0.00001161        0.00000010
     120         -0.384984        2.000000        0.00003048        0.00011993        0.00000217
     121         -0.383823        2.000000        0.00000201        0.00000747        0.00000013
     122         -0.383101        2.000000        0.00000606        0.00001270        0.00000041
     123         -0.383025        2.000000        0.00000819        0.00004267        0.00000062
     124         -0.381208        2.000000        0.00000115        0.00000201        0.00000005
     125         -0.380660        2.000000        0.00000618        0.00006156        0.00000034
     126         -0.380323        2.000000        0.00001788        0.00015177        0.00000037
     127         -0.379623        2.000000        0.00000459        0.00003328        0.00000024
     128         -0.379161        2.000000        0.00000317        0.00002529        0.00000011
     129         -0.378115        2.000000        0.00000695        0.00006428        0.00000018
     130         -0.377757        2.000000        0.00003016        0.00014522        0.00000093
     131         -0.377213        2.000000        0.00002520        0.00006876        0.00000137
     132         -0.376655        2.000000        0.00001970        0.00006251        0.00000112
     133         -0.376089        2.000000        0.00020866        0.00086473        0.00000755
     134         -0.375522        2.000000        0.00009247        0.00033440        0.00000903
     135         -0.373953        2.000000        0.00003521        0.00030441        0.00000207
     136         -0.373564        2.000000        0.00011694        0.00045169        0.00000848
     137         -0.372991        2.000000        0.00001038        0.00012375        0.00000036
     138         -0.372433        2.000000        0.00019937        0.00058106        0.00001250
     139         -0.372037        2.000000        0.00000732        0.00003876        0.00000028
     140         -0.371632        2.000000        0.00005342        0.00012583        0.00000393
     141         -0.371006        2.000000        0.00005345        0.00013669        0.00000299
     142         -0.369840        2.000000        0.00000636        0.00004924        0.00000017
     143         -0.369635        2.000000        0.00029072        0.00077667        0.00001790
     144         -0.369153        2.000000        0.00002196        0.00006948        0.00000139
     145         -0.369131        2.000000        0.00001787        0.00004869        0.00000106
     146         -0.368498        2.000000        0.00004710        0.00011981        0.00000265
     147         -0.367984        2.000000        0.00005333        0.00016581        0.00000211
     148         -0.367257        2.000000        0.00000196        0.00000479        0.00000013
     149         -0.366951        2.000000        0.00004812        0.00019144        0.00000240
     150         -0.366882        2.000000        0.00036467        0.00120602        0.00001797
     151         -0.366558        2.000000        0.00010011        0.00044492        0.00000385
     152         -0.366087        2.000000        0.00009480        0.00043513        0.00000359
     153         -0.365532        2.000000        0.00004104        0.00020197        0.00000147
     154         -0.365292        2.000000        0.00005682        0.00034061        0.00000249
     155         -0.364873        2.000000        0.00002609        0.00026880        0.00000070
     156         -0.364499        2.000000        0.00005806        0.00036273        0.00000179
     157         -0.364385        2.000000        0.00013743        0.00040611        0.00000795
     158         -0.363409        2.000000        0.00001619        0.00005928        0.00000083
     159         -0.362731        2.000000        0.00088817        0.00336032        0.00003661
     160         -0.361690        2.000000        0.00000859        0.00003736        0.00000041
     161         -0.361463        2.000000        0.00154167        0.00537853        0.00007520
     162         -0.360695        2.000000        0.00001623        0.00025504        0.00000334
     163         -0.359909        2.000000        0.00002772        0.00008950        0.00000232
     164         -0.358869        2.000000        0.00011279        0.00043335        0.00000557
     165         -0.358762        2.000000        0.00000664        0.00002629        0.00000030
     166         -0.358424        2.000000        0.00041899        0.00112990        0.00002345
     167         -0.357749        2.000000        0.00000400        0.00000962        0.00000019
     168         -0.357432        2.000000        0.00000860        0.00001962        0.00000067
     169         -0.356226        2.000000        0.00032001        0.00077982        0.00002111
     170         -0.355206        2.000000        0.00009013        0.00023620        0.00000589
     171         -0.354151        2.000000        0.00084514        0.00208785        0.00005521
     172         -0.353675        2.000000        0.02535129        0.06441352        0.00161844
     173         -0.353241        2.000000        0.00000600        0.00001920        0.00000039
     174         -0.352384        2.000000        0.00220239        0.00540010        0.00013614
     175         -0.349281        2.000000        0.00036697        0.00151455        0.00002178
     176         -0.348101        2.000000        0.01785777        0.04820152        0.00101726
     177         -0.347056        2.000000        0.00165908        0.00828743        0.00010186
     178         -0.346421        2.000000        0.00194791        0.00510586        0.00011628
     179         -0.346099        2.000000        0.02690444        0.06755875        0.00170579
     180         -0.344626        2.000000        0.00085497        0.00204908        0.00005694
     181         -0.344227        2.000000        0.00119258        0.00310492        0.00007272
     182         -0.344158        2.000000        0.00037703        0.00088899        0.00002702
     183         -0.343279        2.000000        0.00065295        0.00173458        0.00003804
     184         -0.342186        2.000000        0.00014721        0.00037523        0.00000996
     185         -0.341638        2.000000        0.00008406        0.00020787        0.00000538
     186         -0.341223        2.000000        0.00006787        0.00017885        0.00000405
     187         -0.341051        2.000000        0.00000058        0.00000403        0.00000010
     188         -0.340810        2.000000        0.00000829        0.00002288        0.00000051
     189         -0.340344        2.000000        0.00017784        0.00048158        0.00001021
     190         -0.340103        2.000000        0.00170880        0.00491712        0.00011242
     191         -0.339538        2.000000        0.00033861        0.00090706        0.00001957
     192         -0.338904        2.000000        0.00000045        0.00000666        0.00000004
     193         -0.338737        2.000000        0.00007665        0.00024937        0.00000361
     194         -0.337951        2.000000        0.00006887        0.00026290        0.00000299
     195         -0.337180        2.000000        0.00016348        0.00102245        0.00001324
     196         -0.336960        2.000000        0.00015898        0.00073782        0.00000950
     197         -0.336163        2.000000        0.00002423        0.00008476        0.00000165
     198         -0.335733        2.000000        0.00000506        0.00003208        0.00000031
     199         -0.334956        2.000000        0.02848754        0.07908042        0.00161485
     200         -0.333834        2.000000        0.00111601        0.00531446        0.00008498
     201         -0.331670        2.000000        0.00050978        0.00166336        0.00002624
     202         -0.330715        2.000000        0.06684419        0.19126715        0.00366685
     203         -0.327469        2.000000        0.00263016        0.00715303        0.00017398
     204         -0.326924        2.000000        0.00027066        0.00174928        0.00001781
     205         -0.319799        2.000000        0.00004003        0.00011132        0.00000428
     206         -0.319625        2.000000        0.00027547        0.00069257        0.00002372
     207         -0.318771        2.000000        0.03887205        0.09838420        0.00330481
     208         -0.318487        2.000000        0.00002657        0.00006577        0.00000220
     209         -0.318151        2.000000        0.00000176        0.00000517        0.00000013
     210         -0.317254        2.000000        0.00001557        0.00003967        0.00000117
     211         -0.316615        2.000000        0.00000925        0.00002480        0.00000062
     212         -0.316317        2.000000        0.00015776        0.00048749        0.00001334
     213         -0.315885        2.000000        0.00001247        0.00003577        0.00000081
     214         -0.315512        2.000000        0.00000049        0.00000196        0.00000003
     215         -0.314742        2.000000        0.00000246        0.00000830        0.00000013
     216         -0.314240        2.000000        0.00000039        0.00000100        0.00000003
     217         -0.313093        2.000000        0.00000323        0.00001441        0.00000018
     218         -0.312538        2.000000        0.00000947        0.00002602        0.00000060
     219         -0.312396        2.000000        0.00000542        0.00002193        0.00000029
     220         -0.312037        2.000000        0.00000209        0.00000558        0.00000016
     221         -0.310598        2.000000        0.00000726        0.00001988        0.00000048
     222         -0.310221        2.000000        0.00000134        0.00000680        0.00000007
     223         -0.309408        2.000000        0.00000019        0.00000130        0.00000001
     224         -0.309395        2.000000        0.00000429        0.00001383        0.00000025
     225         -0.309234        2.000000        0.00000582        0.00001895        0.00000033
     226         -0.308381        2.000000        0.00000354        0.00001806        0.00000048
     227         -0.308250        2.000000        0.00022474        0.00080624        0.00002506
     228         -0.308097        2.000000        0.00000319        0.00001251        0.00000039
     229         -0.307179        2.000000        0.00000050        0.00000294        0.00000004
     230         -0.305966        2.000000        0.00004499        0.00017656        0.00000237
     231         -0.305190        2.000000        0.00006257        0.00013195        0.00000657
     232         -0.305170        2.000000        0.00017102        0.00076608        0.00001143
     233         -0.303881        2.000000        0.00002173        0.00016943        0.00000664
     234         -0.303186        2.000000        0.00000047        0.00000301        0.00000002
     235         -0.302644        2.000000        0.00000006        0.00000050        0.00000002
     236         -0.302137        2.000000        0.00000372        0.00002844        0.00000020
     237         -0.301410        2.000000        0.00000025        0.00000190        0.00000007
     238         -0.301270        2.000000        0.00000029        0.00000305        0.00000004
     239         -0.300504        2.000000        0.00000438        0.00003505        0.00000117
     240         -0.300347        2.000000        0.00000199        0.00001206        0.00000016
     241         -0.300010        2.000000        0.00002143        0.00016508        0.00000608
     242         -0.298878        2.000000        0.00000019        0.00000108        0.00000000
     243         -0.298505        2.000000        0.00000206        0.00000817        0.00000013
     244         -0.297847        2.000000        0.00000179        0.00000557        0.00000012
     245         -0.297156        2.000000        0.00000267        0.00000890        0.00000021
     246         -0.297046        2.000000        0.00000069        0.00000250        0.00000004
     247         -0.296671        2.000000        0.00000169        0.00001051        0.00000016
     248         -0.296618        2.000000        0.00000017        0.00000040        0.00000002
     249         -0.295969        2.000000        0.00001191        0.00003396        0.00000098
     250         -0.295348        2.000000        0.00001144        0.00002938        0.00000102
     251         -0.295087        2.000000        0.00000002        0.00000046        0.00000000
     252         -0.294369        2.000000        0.00000027        0.00000125        0.00000003
     253         -0.294183        2.000000        0.00000049        0.00000222        0.00000002
     254         -0.293640        2.000000        0.00000106        0.00000991        0.00000008
     255         -0.293246        2.000000        0.00000019        0.00000115        0.00000001
     256         -0.292577        2.000000        0.00000020        0.00000106        0.00000001
     257         -0.291994        2.000000        0.00000699        0.00004880        0.00000068
     258         -0.291705        2.000000        0.00000113        0.00001160        0.00000009
     259         -0.290928        2.000000        0.00000438        0.00001933        0.00000056
     260         -0.290306        2.000000        0.00000772        0.00003519        0.00000114
     261         -0.289901        2.000000        0.00000761        0.00010660        0.00000118
     262         -0.289451        2.000000        0.00000378        0.00005210        0.00000055
     263         -0.289043        2.000000        0.00000042        0.00002585        0.00000007
     264         -0.288015        2.000000        0.00000690        0.00006463        0.00000073
     265         -0.287861        2.000000        0.00006734        0.00071428        0.00000526
     266         -0.286936        2.000000        0.00000096        0.00000613        0.00000004
     267         -0.286667        2.000000        0.00000082        0.00000698        0.00000010
     268         -0.286302        2.000000        0.00000014        0.00000314        0.00000001
     269         -0.285607        2.000000        0.00000039        0.00000492        0.00000005
     270         -0.285328        2.000000        0.00000109        0.00001523        0.00000011
     271         -0.285085        2.000000        0.00000278        0.00001889        0.00000015
     272         -0.284841        2.000000        0.00000013        0.00000087        0.00000001
     273         -0.284131        2.000000        0.00000180        0.00001235        0.00000010
     274         -0.283572        2.000000        0.00000279        0.00001703        0.00000011
     275         -0.283249        2.000000        0.00000088        0.00000805        0.00000004
     276         -0.283050        2.000000        0.00000074        0.00000461        0.00000003
     277         -0.282957        2.000000        0.00000516        0.00002551        0.00000024
     278         -0.282638        2.000000        0.00000069        0.00000268        0.00000004
     279         -0.282393        2.000000        0.00000370        0.00001604        0.00000023
     280         -0.282190        2.000000        0.00000021        0.00000106        0.00000001
     281         -0.281812        2.000000        0.00000022        0.00000113        0.00000001
     282         -0.281718        2.000000        0.00000306        0.00001131        0.00000011
     283         -0.281529        2.000000        0.00001129        0.00003784        0.00000046
     284         -0.281304        2.000000        0.00000095        0.00000482        0.00000008
     285         -0.281056        2.000000        0.00004467        0.00016884        0.00000152
     286         -0.280948        2.000000        0.00000264        0.00001343        0.00000014
     287         -0.280843        2.000000        0.00007324        0.00030269        0.00000260
     288         -0.280780        2.000000        0.00000178        0.00000895        0.00000006
     289         -0.280282        2.000000        0.00000008        0.00000244        0.00000001
     290         -0.279956        2.000000        0.00000032        0.00000156        0.00000002
     291         -0.279807        2.000000        0.00000146        0.00000462        0.00000008
     292         -0.279686        2.000000        0.00000750        0.00003700        0.00000061
     293         -0.279589        2.000000        0.00000059        0.00000257        0.00000006
     294         -0.279495        2.000000        0.00000299        0.00001424        0.00000019
     295         -0.279217        2.000000        0.00000027        0.00000181        0.00000002
     296         -0.279093        2.000000        0.00002295        0.00010162        0.00000089
     297         -0.278951        2.000000        0.00000656        0.00002838        0.00000025
     298         -0.278592        2.000000        0.00000422        0.00002263        0.00000014
     299         -0.278433        2.000000        0.00000260        0.00001886        0.00000012
     300         -0.278210        2.000000        0.00000115        0.00000477        0.00000004
     301         -0.278135        2.000000        0.00000950        0.00003220        0.00000042
     302         -0.278031        2.000000        0.00000946        0.00003691        0.00000046
     303         -0.277650        2.000000        0.00000570        0.00001938        0.00000021
     304         -0.277312        2.000000        0.00000659        0.00002312        0.00000019
     305         -0.276990        2.000000        0.00015176        0.00047861        0.00000564
     306         -0.276609        2.000000        0.00001298        0.00003833        0.00000051
     307         -0.276405        2.000000        0.00016250        0.00053025        0.00000610