# Projected DOS for list 6 of 3 atoms, at iteration step i = 0, E(Fermi) =    -0.060510 a.u.
#     MO Eigenvalue [a.u.]      Occupation                 s                 p                 d
       1         -0.895259        2.000000        0.00000005        0.00000011        0.00000000
       2         -0.868125        2.000000        0.00000381        0.00000628        0.00000002
       3         -0.864615        2.000000        0.00000973        0.00001495        0.00000005
       4         -0.857993        2.000000        0.00000479        0.00000379        0.00000026
       5         -0.853826        2.000000        0.00001586        0.00001849        0.00000008
       6         -0.850378        2.000000        0.00000013        0.00000021        0.00000000
       7         -0.848222        2.000000        0.00000159        0.00000184        0.00000001
       8         -0.847335        2.000000        0.00000013        0.00000134        0.00000000
       9         -0.842977        2.000000        0.00006112        0.00001052        0.00000013
      10         -0.841504        2.000000        0.00241627        0.00053320        0.00000361
      11         -0.840654        2.000000        0.00144745        0.00028567        0.00000144
      12         -0.839688        2.000000        0.00467909        0.00108347        0.00001061
      13         -0.839172        2.000000        0.00261449        0.00087526        0.00000739
      14         -0.838522        2.000000        0.00009613        0.00044616        0.00000732
      15         -0.837015        2.000000        0.00003812        0.00001486        0.00000013
      16         -0.832753        2.000000        0.00001005        0.00000297        0.00000006
      17         -0.832000        2.000000        0.00030158        0.00004474        0.00000029
      18         -0.831644        2.000000        0.00031621        0.00003313        0.00000008
      19         -0.830027        2.000000        0.00104616        0.00008606        0.00000063
      20         -0.829447        2.000000        0.00039395        0.00003360        0.00000145
      21         -0.828640        2.000000        0.00009437        0.00012503        0.00000154
      22         -0.828147        2.000000        0.00993786        0.00199003        0.00000454
      23         -0.827394        2.000000        0.00348571        0.00100631        0.00000957
      24         -0.826637        2.000000        0.02131764        0.00514274        0.00001047
      25         -0.825864        2.000000        0.04147797        0.01415196        0.00004288
      26         -0.825007        2.000000        0.00134242        0.00098220        0.00000623
      27         -0.824149        2.000000        0.00078055        0.00012089        0.00000108
      28         -0.823003        2.000000        0.00071873        0.00056143        0.00000871
      29         -0.821982        2.000000        0.00002712        0.00018282        0.00001003
      30         -0.820560        2.000000        0.00304199        0.00044357        0.00002370
      31         -0.820223        2.000000        0.00018542        0.00040278        0.00000349
      32         -0.820029        2.000000        0.00031797        0.00020737        0.00000411
      33         -0.819390        2.000000        0.00184659        0.00051654        0.00001535
      34         -0.818664        2.000000        0.00045336        0.00005125        0.00000288
      35         -0.817548        2.000000        0.00254108        0.00046721        0.00000365
      36         -0.816472        2.000000        0.00124526        0.00035516        0.00001001
      37         -0.815444        2.000000        0.00056846        0.00011682        0.00000230
      38         -0.814805        2.000000        0.00833621        0.00122835        0.00001229
      39         -0.814124        2.000000        0.00104191        0.00017877        0.00000183
      40         -0.813968        2.000000        0.00001807        0.00003058        0.00000022
      41         -0.813053        2.000000        0.00542401        0.00203539        0.00001141
      42         -0.812601        2.000000        0.04267168        0.00780197        0.00002541
      43         -0.811948        2.000000        0.00083060        0.00040572        0.00001849
      44         -0.811687        2.000000        0.00060364        0.00038085        0.00001330
      45         -0.810574        2.000000        0.08612083        0.01079461        0.00020772
      46         -0.809310        2.000000        0.00297835        0.00067056        0.00000473
      47         -0.808268        2.000000        0.00828214        0.00533295        0.00000966
      48         -0.807324        2.000000        0.00105194        0.00027646        0.00000133
      49         -0.806602        2.000000        0.01184364        0.00450713        0.00003681
      50         -0.806376        2.000000        0.00830335        0.00194040        0.00002894
      51         -0.806147        2.000000        0.00683001        0.00079128        0.00003493
      52         -0.804835        2.000000        0.00260770        0.00035925        0.00000762
      53         -0.804321        2.000000        0.10487911        0.02892277        0.00023373
      54         -0.803943        2.000000        0.00349103        0.00122962        0.00000732
      55         -0.803401        2.000000        0.00256590        0.00073087        0.00000549
      56         -0.802648        2.000000        0.00883161        0.00170249        0.00003050
      57         -0.801912        2.000000        0.00587732        0.00229464        0.00001478
      58         -0.801342        2.000000        0.00758908        0.00156125        0.00004301
      59         -0.800594        2.000000        0.07458113        0.01781447        0.00012047
      60         -0.799945        2.000000        0.00543888        0.00113629        0.00001057
      61         -0.799254        2.000000        0.00224364        0.00078335        0.00000232
      62         -0.798331        2.000000        0.00000682        0.00003549        0.00000018
      63         -0.797356        2.000000        0.00021317        0.00009425        0.00000227
      64         -0.795713        2.000000        0.00001823        0.00000974        0.00000006
      65         -0.795144        2.000000        0.00071132        0.00054014        0.00000119
      66         -0.794508        2.000000        0.00136618        0.00078517        0.00000699
      67         -0.793501        2.000000        0.00055068        0.00234961        0.00002461
      68         -0.792888        2.000000        0.00010884        0.00019365        0.00000276
      69         -0.792771        2.000000        0.00089526        0.00071228        0.00000816
      70         -0.792166        2.000000        0.00839217        0.00655194        0.00004452
      71         -0.791795        2.000000        0.00351219        0.00175616        0.00000716
      72         -0.790466        2.000000        0.00244169        0.00756588        0.00009818
      73         -0.789691        2.000000        0.00000102        0.00001238        0.00000044
      74         -0.789018        2.000000        0.00256810        0.00064249        0.00001016
      75         -0.788284        2.000000        0.00001183        0.00006171        0.00000125
      76         -0.787044        2.000000        0.02134637        0.00709491        0.00027240
      77         -0.785765        2.000000        0.00031851        0.00041911        0.00001045
      78         -0.783215        2.000000        0.00004753        0.00005005        0.00000019
      79         -0.782853        2.000000        0.00035658        0.00020835        0.00000029
      80         -0.782388        2.000000        0.00100548        0.00058601        0.00000104
      81         -0.781821        2.000000        0.00096203        0.00039860        0.00000145
      82         -0.780108        2.000000        0.14192489        0.06239749        0.00020188
      83         -0.778906        2.000000        0.00010247        0.00004454        0.00000012
      84         -0.778076        2.000000        0.00003352        0.00001202        0.00000009
      85         -0.775317        2.000000        0.05996458        0.02116178        0.00021355
      86         -0.773086        2.000000        0.00112253        0.00038101        0.00000550
      87         -0.772920        2.000000        0.00014819        0.00007613        0.00000047
      88         -0.771409        2.000000        0.00006139        0.00002492        0.00000028
      89         -0.769725        2.000000        0.00017337        0.00022473        0.00001430
      90         -0.769226        2.000000        0.00049301        0.00014023        0.00000321
      91         -0.767566        2.000000        0.00116256        0.00029454        0.00001330
      92         -0.766737        2.000000        0.00002766        0.00000710        0.00000026
      93         -0.755845        2.000000        0.00003837        0.00001144        0.00000043
      94         -0.752538        2.000000        0.00017621        0.00005412        0.00000221
      95         -0.747161        2.000000        0.00000004        0.00000014        0.00000000
      96         -0.736999        2.000000        0.00000915        0.00000338        0.00000016
      97         -0.726419        2.000000        0.00000001        0.00000000        0.00000000
      98         -0.719129        2.000000        0.00000021        0.00000010        0.00000001
      99         -0.696511        2.000000        0.00000001        0.00000000        0.00000000
     100         -0.460315        2.000000        0.00000000        0.00000001        0.00000000
     101         -0.427906        2.000000        0.00000043        0.00000209        0.00000002
     102         -0.424376        2.000000        0.00000009        0.00000034        0.00000000
     103         -0.405781        2.000000        0.00000124        0.00000533        0.00000016
     104         -0.401299        2.000000        0.00000725        0.00002965        0.00000061
     105         -0.398347        2.000000        0.00000040        0.00000125        0.00000003
     106         -0.398267        2.000000        0.00000645        0.00002087        0.00000045
     107         -0.397295        2.000000        0.00001613        0.00004648        0.00000130
     108         -0.395753        2.000000        0.00000049        0.00000493        0.00000001
     109         -0.395158        2.000000        0.00000655        0.00007827        0.00000119
     110         -0.394493        2.000000        0.00000701        0.00001876        0.00000034
     111         -0.394192        2.000000        0.00000306        0.00007767        0.00000106
     112         -0.393919        2.000000        0.00001045        0.00005706        0.00000089
     113         -0.393017        2.000000        0.00003539        0.00008126        0.00000235
     114         -0.391793        2.000000        0.00017735        0.00058139        0.00001296
     115         -0.389280        2.000000        0.00025478        0.00224527        0.00004140
     116         -0.388145        2.000000        0.00002215        0.00005371        0.00000154
     117         -0.387090        2.000000        0.00005077        0.00047520        0.00000799
     118         -0.386138        2.000000        0.00007133        0.00023042        0.00000355
     119         -0.385161        2.000000        0.00056741        0.00129326        0.00003711
     120         -0.384984        2.000000        0.00000952        0.00003058        0.00000077
     121         -0.383823        2.000000        0.00000360        0.00004059        0.00000063
     122         -0.383101        2.000000        0.00004265        0.00010761        0.00000271
     123         -0.383025        2.000000        0.00006810        0.00028397        0.00000493
     124         -0.381208        2.000000        0.00010616        0.00025830        0.00000681
     125         -0.380660        2.000000        0.00011905        0.00039386        0.00000810
     126         -0.380323        2.000000        0.00013002        0.00066978        0.00001143
     127         -0.379623        2.000000        0.00074446        0.00192708        0.00004824
     128         -0.379161        2.000000        0.00031162        0.00153806        0.00002507
     129         -0.378115        2.000000        0.00419337        0.01651765        0.00029174
     130         -0.377757        2.000000        0.00001646        0.00004604        0.00000236
     131         -0.377213        2.000000        0.00038153        0.00092554        0.00002444
     132         -0.376655        2.000000        0.00144865        0.00375364        0.00010287
     133         -0.376089        2.000000        0.00082783        0.00224313        0.00005290
     134         -0.375522        2.000000        0.00136863        0.00439401        0.00009478
     135         -0.373953        2.000000        0.00204601        0.00990983        0.00017325
     136         -0.373564        2.000000        0.00601139        0.02147611        0.00041889
     137         -0.372991        2.000000        0.01908475        0.06363841        0.00129607
     138         -0.372433        2.000000        0.00259223        0.01024375        0.00018857
     139         -0.372037        2.000000        0.00065453        0.00185329        0.00004309
     140         -0.371632        2.000000        0.00062960        0.00188689        0.00003810
     141         -0.371006        2.000000        0.00005262        0.00014529        0.00000377
     142         -0.369840        2.000000        0.00007661        0.00065525        0.00001167
     143         -0.369635        2.000000        0.00001607        0.00007141        0.00000185
     144         -0.369153        2.000000        0.00048517        0.00154453        0.00003473
     145         -0.369131        2.000000        0.03126407        0.10270788        0.00231430
     146         -0.368498        2.000000        0.00003306        0.00012968        0.00000290
     147         -0.367984        2.000000        0.00011345        0.00080281        0.00001386
     148         -0.367257        2.000000        0.00004538        0.00029240        0.00000454
     149         -0.366951        2.000000        0.00010449        0.00046338        0.00000883
     150         -0.366882        2.000000        0.00013065        0.00077090        0.00001577
     151         -0.366558        2.000000        0.00002651        0.00010566        0.00000241
     152         -0.366087        2.000000        0.00008792        0.00056935        0.00000907
     153         -0.365532        2.000000        0.00015961        0.00069543        0.00001324
     154         -0.365292        2.000000        0.00008334        0.00057199        0.00001350
     155         -0.364873        2.000000        0.00008925        0.00076959        0.00001502
     156         -0.364499        2.000000        0.00002776        0.00007942        0.00000103
     157         -0.364385        2.000000        0.00028122        0.00244705        0.00005093
     158         -0.363409        2.000000        0.00000378        0.00001891        0.00000037
     159         -0.362731        2.000000        0.00102333        0.00826403        0.00020438
     160         -0.361690        2.000000        0.00001406        0.00003914        0.00000042
     161         -0.361463        2.000000        0.00145553        0.00346373        0.00009042
     162         -0.360695        2.000000        0.00011701        0.00046572        0.00001673
     163         -0.359909        2.000000        0.00080650        0.00558640        0.00015081
     164         -0.358869        2.000000        0.00144041        0.01064708        0.00032907
     165         -0.358762        2.000000        0.00008787        0.00052754        0.00001419
     166         -0.358424        2.000000        0.00142881        0.01069769        0.00033617
     167         -0.357749        2.000000        0.00088291        0.00269775        0.00003620
     168         -0.357432        2.000000        0.00042776        0.00084258        0.00002371
     169         -0.356226        2.000000        0.00020706        0.00060124        0.00001194
     170         -0.355206        2.000000        0.00001153        0.00002953        0.00000045
     171         -0.354151        2.000000        0.00083102        0.00237431        0.00005979
     172         -0.353675        2.000000        0.00002931        0.00009848        0.00000065
     173         -0.353241        2.000000        0.00001317        0.00003627        0.00000106
     174         -0.352384        2.000000        0.00001312        0.00002568        0.00000061
     175         -0.349281        2.000000        0.00162401        0.00623121        0.00008597
     176         -0.348101        2.000000        0.00001127        0.00009622        0.00000098
     177         -0.347056        2.000000        0.00109808        0.00399455        0.00005782
     178         -0.346421        2.000000        0.00020115        0.00089396        0.00001154
     179         -0.346099        2.000000        0.00003817        0.00013245        0.00000219
     180         -0.344626        2.000000        0.00000450        0.00002015        0.00000035
     181         -0.344227        2.000000        0.00000402        0.00001127        0.00000022
     182         -0.344158        2.000000        0.00002024        0.00007362        0.00000102
     183         -0.343279        2.000000        0.00009876        0.00031020        0.00000511
     184         -0.342186        2.000000        0.00458708        0.01386250        0.00024699
     185         -0.341638        2.000000        0.00002563        0.00007075        0.00000153
     186         -0.341223        2.000000        0.00146193        0.00443915        0.00008437
     187         -0.341051        2.000000        0.00002927        0.00008557        0.00000174
     188         -0.340810        2.000000        0.00086228        0.00259439        0.00004899
     189         -0.340344        2.000000        0.00007451        0.00021860        0.00000429
     190         -0.340103        2.000000        0.00020364        0.00072575        0.00001087
     191         -0.339538        2.000000        0.00000017        0.00000148        0.00000007
     192         -0.338904        2.000000        0.00000741        0.00002625        0.00000059
     193         -0.338737        2.000000        0.00001923        0.00007609        0.00000102
     194         -0.337951        2.000000        0.02521086        0.07065305        0.00151967
     195         -0.337180        2.000000        0.00339509        0.00969015        0.00019875
     196         -0.336960        2.000000        0.09882877        0.27922184        0.00590803
     197         -0.336163        2.000000        0.01055790        0.03015884        0.00061792
     198         -0.335733        2.000000        0.00499098        0.01436300        0.00028959
     199         -0.334956        2.000000        0.00010540        0.00031151        0.00000692
     200         -0.333834        2.000000        0.00197463        0.00604739        0.00014018
     201         -0.331670        2.000000        0.00004600        0.00013725        0.00000306
     202         -0.330715        2.000000        0.00003728        0.00012224        0.00000213
     203         -0.327469        2.000000        0.00050253        0.00263188        0.00005215
     204         -0.326924        2.000000        0.00012328        0.00037197        0.00000731
     205         -0.319799        2.000000        0.00001357        0.00004285        0.00000098
     206         -0.319625        2.000000        0.00000237        0.00001219        0.00000025
     207         -0.318771        2.000000        0.00000096        0.00000946        0.00000005
     208         -0.318487        2.000000        0.00000010        0.00000016        0.00000001
     209         -0.318151        2.000000        0.00000469        0.00002138        0.00000043
     210         -0.317254        2.000000        0.00000134        0.00000533        0.00000011
     211         -0.316615        2.000000        0.00000228        0.00001121        0.00000017
     212         -0.316317        2.000000        0.00001055        0.00003333        0.00000045
     213         -0.315885        2.000000        0.00000754        0.00002028        0.00000050
     214         -0.315512        2.000000        0.00000473        0.00001459        0.00000032
     215         -0.314742        2.000000        0.00001106        0.00002982        0.00000074
     216         -0.314240        2.000000        0.00000032        0.00000106        0.00000004
     217         -0.313093        2.000000        0.00000127        0.00000478        0.00000007
     218         -0.312538        2.000000        0.00000802        0.00002030        0.00000057
     219         -0.312396        2.000000        0.00001510        0.00004906        0.00000087
     220         -0.312037        2.000000        0.00000138        0.00000588        0.00000010
     221         -0.310598        2.000000        0.00000643        0.00003102        0.00000041
     222         -0.310221        2.000000        0.00000242        0.00000934        0.00000024
     223         -0.309408        2.000000        0.00000122        0.00000421        0.00000006
     224         -0.309395        2.000000        0.00000960        0.00002944        0.00000057
     225         -0.309234        2.000000        0.00000505        0.00001929        0.00000032
     226         -0.308381        2.000000        0.00001783        0.00007872        0.00000073
     227         -0.308250        2.000000        0.00000150        0.00001240        0.00000007
     228         -0.308097        2.000000        0.00000359        0.00001466        0.00000013
     229         -0.307179        2.000000        0.00001822        0.00006946        0.00000080
     230         -0.305966        2.000000        0.00009653        0.00029748        0.00000634
     231         -0.305190        2.000000        0.00000782        0.00002265        0.00000013
     232         -0.305170        2.000000        0.00000319        0.00001459        0.00000017
     233         -0.303881        2.000000        0.00000960        0.00005500        0.00000068
     234         -0.303186        2.000000        0.00000026        0.00000107        0.00000002
     235         -0.302644        2.000000        0.00000841        0.00003652        0.00000029
     236         -0.302137        2.000000        0.00002133        0.00006735        0.00000108
     237         -0.301410        2.000000        0.00000121        0.00000790        0.00000011
     238         -0.301270        2.000000        0.00001131        0.00005078        0.00000049
     239         -0.300504        2.000000        0.00000189        0.00001066        0.00000011
     240         -0.300347        2.000000        0.00004833        0.00029010        0.00000241
     241         -0.300010        2.000000        0.00001205        0.00009707        0.00000119
     242         -0.298878        2.000000        0.00000047        0.00000306        0.00000004
     243         -0.298505        2.000000        0.00000092        0.00000676        0.00000002
     244         -0.297847        2.000000        0.00000548        0.00002183        0.00000018
     245         -0.297156        2.000000        0.00000568        0.00002804        0.00000018
     246         -0.297046        2.000000        0.00000357        0.00002060        0.00000010
     247         -0.296671        2.000000        0.00000085        0.00000565        0.00000004
     248         -0.296618        2.000000        0.00000315        0.00002060        0.00000019
     249         -0.295969        2.000000        0.00002593        0.00009064        0.00000061
     250         -0.295348        2.000000        0.00001401        0.00004991        0.00000025
     251         -0.295087        2.000000        0.00000064        0.00000323        0.00000002
     252         -0.294369        2.000000        0.00000161        0.00000610        0.00000002
     253         -0.294183        2.000000        0.00000032        0.00000174        0.00000002
     254         -0.293640        2.000000        0.00000225        0.00003090        0.00000013
     255         -0.293246        2.000000        0.00000062        0.00000695        0.00000006
     256         -0.292577        2.000000        0.00000437        0.00001736        0.00000020
     257         -0.291994        2.000000        0.00004926        0.00020461        0.00000122
     258         -0.291705        2.000000        0.00000771        0.00003238        0.00000035
     259         -0.290928        2.000000        0.00000935        0.00003996        0.00000026
     260         -0.290306        2.000000        0.00002564        0.00015913        0.00000125
     261         -0.289901        2.000000        0.00022280        0.00088848        0.00000624
     262         -0.289451        2.000000        0.00003083        0.00016267        0.00000125
     263         -0.289043        2.000000        0.00002078        0.00007987        0.00000030
     264         -0.288015        2.000000        0.00000388        0.00001670        0.00000004
     265         -0.287861        2.000000        0.00004728        0.00018489        0.00000046
     266         -0.286936        2.000000        0.00000207        0.00001043        0.00000012
     267         -0.286667        2.000000        0.00000014        0.00000190        0.00000001
     268         -0.286302        2.000000        0.00000420        0.00001836        0.00000012
     269         -0.285607        2.000000        0.00000799        0.00003364        0.00000026
     270         -0.285328        2.000000        0.00003739        0.00015639        0.00000107
     271         -0.285085        2.000000        0.00003429        0.00013562        0.00000087
     272         -0.284841        2.000000        0.00002590        0.00010166        0.00000069
     273         -0.284131        2.000000        0.00000824        0.00003379        0.00000023
     274         -0.283572        2.000000        0.00057785        0.00232191        0.00001475
     275         -0.283249        2.000000        0.00026924        0.00105753        0.00000736
     276         -0.283050        2.000000        0.00040123        0.00157327        0.00001056
     277         -0.282957        2.000000        0.00002577        0.00010402        0.00000055
     278         -0.282638        2.000000        0.00015047        0.00058150        0.00000370
     279         -0.282393        2.000000        0.00619622        0.02442876        0.00016526
     280         -0.282190        2.000000        0.00075378        0.00305459        0.00002067
     281         -0.281812        2.000000        0.00002895        0.00012519        0.00000096
     282         -0.281718        2.000000        0.00016398        0.00064661        0.00000487
     283         -0.281529        2.000000        0.00000414        0.00001933        0.00000013
     284         -0.281304        2.000000        0.00001868        0.00006364        0.00000042
     285         -0.281056        2.000000        0.00007908        0.00039108        0.00000277
     286         -0.280948        2.000000        0.00019518        0.00084696        0.00000523
     287         -0.280843        2.000000        0.00159532        0.00671873        0.00004986
     288         -0.280780        2.000000        0.00000382        0.00001674        0.00000016
     289         -0.280282        2.000000        0.00015451        0.00063307        0.00000463
     290         -0.279956        2.000000        0.00031766        0.00132992        0.00000995
     291         -0.279807        2.000000        0.00007895        0.00031718        0.00000182
     292         -0.279686        2.000000        0.00177919        0.00736236        0.00004447
     293         -0.279589        2.000000        0.00000290        0.00001839        0.00000016
     294         -0.279495        2.000000        0.00279386        0.01143901        0.00008166
     295         -0.279217        2.000000        0.00120276        0.00525742        0.00003450
     296         -0.279093        2.000000        0.01762999        0.07544954        0.00052684
     297         -0.278951        2.000000        0.00193960        0.00838375        0.00005503
     298         -0.278592        2.000000        0.00361304        0.01508813        0.00011585
     299         -0.278433        2.000000        0.00013609        0.00057323        0.00000429
     300         -0.278210        2.000000        0.00104765        0.00462577        0.00003389
     301         -0.278135        2.000000        0.00000075        0.00001961        0.00000003
     302         -0.278031        2.000000        0.00031449        0.00139864        0.00001020
     303         -0.277650        2.000000        0.00103099        0.00464411        0.00003434
     304         -0.277312        2.000000        0.00012520        0.00065388        0.00000398
     305         -0.276990        2.000000        0.00326924        0.01512537        0.00011137
     306         -0.276609        2.000000        0.00055090        0.00252301        0.00001932
     307         -0.276405        2.000000        0.00188873        0.00874634        0.00006270