# Projected DOS for list 27 of 3 atoms, at iteration step i = 0, E(Fermi) =    -0.060510 a.u.
#     MO Eigenvalue [a.u.]      Occupation                 s                 p                 d
       1         -0.895259        2.000000        0.00000013        0.00000015        0.00000000
       2         -0.868125        2.000000        0.00068803        0.00041056        0.00000261
       3         -0.864615        2.000000        0.00127982        0.00122944        0.00001223
       4         -0.857993        2.000000        0.00000001        0.00000001        0.00000000
       5         -0.853826        2.000000        0.00007201        0.00001956        0.00000084
       6         -0.850378        2.000000        0.00056431        0.00022322        0.00000328
       7         -0.848222        2.000000        0.02284666        0.00794452        0.00013366
       8         -0.847335        2.000000        0.00001121        0.00007324        0.00000150
       9         -0.842977        2.000000        0.00000604        0.00000315        0.00000004
      10         -0.841504        2.000000        0.00145786        0.00038926        0.00000628
      11         -0.840654        2.000000        0.00109136        0.00040339        0.00000628
      12         -0.839688        2.000000        0.00001060        0.00014258        0.00000280
      13         -0.839172        2.000000        0.00043341        0.00033728        0.00000697
      14         -0.838522        2.000000        0.00000382        0.00006457        0.00000124
      15         -0.837015        2.000000        0.00366669        0.00093723        0.00001427
      16         -0.832753        2.000000        0.00133380        0.00056388        0.00000488
      17         -0.832000        2.000000        0.00306102        0.00078939        0.00000866
      18         -0.831644        2.000000        0.00252489        0.00100907        0.00001385
      19         -0.830027        2.000000        0.00000853        0.00000294        0.00000005
      20         -0.829447        2.000000        0.00018548        0.00006472        0.00000049
      21         -0.828640        2.000000        0.00010052        0.00002316        0.00000017
      22         -0.828147        2.000000        0.00025440        0.00006373        0.00000056
      23         -0.827394        2.000000        0.00052116        0.00010784        0.00000077
      24         -0.826637        2.000000        0.00014918        0.00005321        0.00000038
      25         -0.825864        2.000000        0.00019376        0.00004710        0.00000028
      26         -0.825007        2.000000        0.00029661        0.00007404        0.00000050
      27         -0.824149        2.000000        0.17769367        0.03714177        0.00029011
      28         -0.823003        2.000000        0.01563583        0.00302775        0.00002798
      29         -0.821982        2.000000        0.04291333        0.00815613        0.00008269
      30         -0.820560        2.000000        0.00596156        0.00108203        0.00001602
      31         -0.820223        2.000000        0.01040816        0.00194181        0.00003045
      32         -0.820029        2.000000        0.00000363        0.00000905        0.00000021
      33         -0.819390        2.000000        0.00003775        0.00001391        0.00000038
      34         -0.818664        2.000000        0.00439947        0.00104126        0.00002612
      35         -0.817548        2.000000        0.02482865        0.00955473        0.00028518
      36         -0.816472        2.000000        0.00019604        0.00029074        0.00000798
      37         -0.815444        2.000000        0.00004458        0.00036968        0.00000873
      38         -0.814805        2.000000        0.00005149        0.00018661        0.00000260
      39         -0.814124        2.000000        0.00019536        0.00055686        0.00000425
      40         -0.813968        2.000000        0.00003994        0.00020084        0.00000655
      41         -0.813053        2.000000        0.00049951        0.00054907        0.00000421
      42         -0.812601        2.000000        0.00365761        0.00323253        0.00002108
      43         -0.811948        2.000000        0.00041745        0.00033909        0.00000180
      44         -0.811687        2.000000        0.00076546        0.00054649        0.00000228
      45         -0.810574        2.000000        0.00297856        0.00174148        0.00000692
      46         -0.809310        2.000000        0.00014817        0.00005892        0.00000108
      47         -0.808268        2.000000        0.00764344        0.00292191        0.00000691
      48         -0.807324        2.000000        0.01005165        0.00406830        0.00000962
      49         -0.806602        2.000000        0.01156971        0.00422082        0.00001175
      50         -0.806376        2.000000        0.00004474        0.00003183        0.00000009
      51         -0.806147        2.000000        0.00155264        0.00056311        0.00000171
      52         -0.804835        2.000000        0.01677486        0.00573779        0.00002204
      53         -0.804321        2.000000        0.02658216        0.00895901        0.00003699
      54         -0.803943        2.000000        0.01236453        0.00409431        0.00001850
      55         -0.803401        2.000000        0.27418405        0.08913412        0.00045595
      56         -0.802648        2.000000        0.00092227        0.00028585        0.00000179
      57         -0.801912        2.000000        0.00309408        0.00099571        0.00000661
      58         -0.801342        2.000000        0.02382083        0.00730140        0.00005380
      59         -0.800594        2.000000        0.00349588        0.00107009        0.00000867
      60         -0.799945        2.000000        0.00001776        0.00000797        0.00000017
      61         -0.799254        2.000000        0.00043981        0.00015418        0.00000225
      62         -0.798331        2.000000        0.00080324        0.00026836        0.00000205
      63         -0.797356        2.000000        0.00436161        0.00128436        0.00001631
      64         -0.795713        2.000000        0.00002870        0.00001031        0.00000015
      65         -0.795144        2.000000        0.00034687        0.00009772        0.00000121
      66         -0.794508        2.000000        0.00151492        0.00047063        0.00000686
      67         -0.793501        2.000000        0.00000450        0.00001487        0.00000060
      68         -0.792888        2.000000        0.00000418        0.00000154        0.00000002
      69         -0.792771        2.000000        0.00012219        0.00005988        0.00000203
      70         -0.792166        2.000000        0.00000680        0.00000292        0.00000014
      71         -0.791795        2.000000        0.00000326        0.00000217        0.00000008
      72         -0.790466        2.000000        0.00000567        0.00000148        0.00000005
      73         -0.789691        2.000000        0.00011771        0.00003704        0.00000219
      74         -0.789018        2.000000        0.00001151        0.00000306        0.00000010
      75         -0.788284        2.000000        0.00056347        0.00021076        0.00000746
      76         -0.787044        2.000000        0.00001916        0.00000558        0.00000029
      77         -0.785765        2.000000        0.00045201        0.00011773        0.00000557
      78         -0.783215        2.000000        0.00209419        0.00178860        0.00000621
      79         -0.782853        2.000000        0.00066772        0.00061365        0.00000201
      80         -0.782388        2.000000        0.00079413        0.00040766        0.00000747
      81         -0.781821        2.000000        0.00664516        0.00228238        0.00010719
      82         -0.780108        2.000000        0.00000721        0.00000400        0.00000027
      83         -0.778906        2.000000        0.00003660        0.00003602        0.00000225
      84         -0.778076        2.000000        0.00000271        0.00001358        0.00000010
      85         -0.775317        2.000000        0.00004997        0.00001704        0.00000057
      86         -0.773086        2.000000        0.00051534        0.00022677        0.00000998
      87         -0.772920        2.000000        0.00018911        0.00008697        0.00000092
      88         -0.771409        2.000000        0.00001504        0.00000532        0.00000019
      89         -0.769725        2.000000        0.00000061        0.00000128        0.00000001
      90         -0.769226        2.000000        0.00000201        0.00000292        0.00000026
      91         -0.767566        2.000000        0.00029186        0.00010989        0.00000658
      92         -0.766737        2.000000        0.02027036        0.00767092        0.00051998
      93         -0.755845        2.000000        0.00000578        0.00000236        0.00000020
      94         -0.752538        2.000000        0.00001823        0.00000886        0.00000056
      95         -0.747161        2.000000        0.00000691        0.00001371        0.00000012
      96         -0.736999        2.000000        0.00000302        0.00000208        0.00000011
      97         -0.726419        2.000000        0.00017200        0.00014409        0.00000081
      98         -0.719129        2.000000        0.00000264        0.00000480        0.00000007
      99         -0.696511        2.000000        0.00000026        0.00000050        0.00000002
     100         -0.460315        2.000000        0.00000009        0.00000024        0.00000001
     101         -0.427906        2.000000        0.00008564        0.00025163        0.00000875
     102         -0.424376        2.000000        0.00002487        0.00011064        0.00000379
     103         -0.405781        2.000000        0.00000007        0.00000027        0.00000000
     104         -0.401299        2.000000        0.00000179        0.00000505        0.00000011
     105         -0.398347        2.000000        0.00069052        0.00173481        0.00003872
     106         -0.398267        2.000000        0.00873644        0.02193202        0.00048861
     107         -0.397295        2.000000        0.00003276        0.00008264        0.00000191
     108         -0.395753        2.000000        0.01801580        0.04543500        0.00098755
     109         -0.395158        2.000000        0.00003334        0.00014765        0.00000268
     110         -0.394493        2.000000        0.00103934        0.00264063        0.00005712
     111         -0.394192        2.000000        0.00059430        0.00165871        0.00003705
     112         -0.393919        2.000000        0.00230287        0.00593850        0.00012639
     113         -0.393017        2.000000        0.04914652        0.12562384        0.00261739
     114         -0.391793        2.000000        0.00140844        0.00359930        0.00007536
     115         -0.389280        2.000000        0.00000512        0.00003304        0.00000067
     116         -0.388145        2.000000        0.00157364        0.00398954        0.00008455
     117         -0.387090        2.000000        0.00021904        0.00073400        0.00001565
     118         -0.386138        2.000000        0.04870411        0.12469662        0.00265846
     119         -0.385161        2.000000        0.01927342        0.04861378        0.00102745
     120         -0.384984        2.000000        0.00046804        0.00196399        0.00003706
     121         -0.383823        2.000000        0.00019350        0.00134726        0.00002678
     122         -0.383101        2.000000        0.00034391        0.00251653        0.00004357
     123         -0.383025        2.000000        0.00637568        0.02831849        0.00052351
     124         -0.381208        2.000000        0.00120948        0.01032947        0.00018848
     125         -0.380660        2.000000        0.00112829        0.00649505        0.00012630
     126         -0.380323        2.000000        0.00124077        0.00596775        0.00011309
     127         -0.379623        2.000000        0.00212444        0.00591900        0.00011763
     128         -0.379161        2.000000        0.00002354        0.00018652        0.00000314
     129         -0.378115        2.000000        0.00178494        0.00461259        0.00009531
     130         -0.377757        2.000000        0.00018689        0.00050140        0.00000866
     131         -0.377213        2.000000        0.00441721        0.01143736        0.00023754
     132         -0.376655        2.000000        0.02957946        0.07570851        0.00155092
     133         -0.376089        2.000000        0.01688745        0.04328523        0.00086261
     134         -0.375522        2.000000        0.00241475        0.00644645        0.00012029
     135         -0.373953        2.000000        0.00547828        0.01435240        0.00027422
     136         -0.373564        2.000000        0.00185941        0.00502446        0.00008540
     137         -0.372991        2.000000        0.00159963        0.00415147        0.00008321
     138         -0.372433        2.000000        0.00841394        0.02211550        0.00040105
     139         -0.372037        2.000000        0.00111026        0.00294209        0.00005286
     140         -0.371632        2.000000        0.00129696        0.00347492        0.00006326
     141         -0.371006        2.000000        0.00065294        0.00191892        0.00003028
     142         -0.369840        2.000000        0.00034197        0.00089197        0.00001709
     143         -0.369635        2.000000        0.00007954        0.00023800        0.00000368
     144         -0.369153        2.000000        0.00000477        0.00001574        0.00000027
     145         -0.369131        2.000000        0.00092472        0.00244544        0.00004583
     146         -0.368498        2.000000        0.00004850        0.00018063        0.00000316
     147         -0.367984        2.000000        0.00015768        0.00061494        0.00001074
     148         -0.367257        2.000000        0.00000270        0.00001424        0.00000025
     149         -0.366951        2.000000        0.00000152        0.00000561        0.00000011
     150         -0.366882        2.000000        0.00006888        0.00018467        0.00000356
     151         -0.366558        2.000000        0.00002326        0.00006458        0.00000129
     152         -0.366087        2.000000        0.00001601        0.00005899        0.00000094
     153         -0.365532        2.000000        0.00001285        0.00009081        0.00000141
     154         -0.365292        2.000000        0.00001300        0.00005988        0.00000113
     155         -0.364873        2.000000        0.00003854        0.00013858        0.00000294
     156         -0.364499        2.000000        0.00000442        0.00001530        0.00000029
     157         -0.364385        2.000000        0.00009740        0.00027385        0.00000547
     158         -0.363409        2.000000        0.00006561        0.00066104        0.00001044
     159         -0.362731        2.000000        0.00012662        0.00043032        0.00000786
     160         -0.361690        2.000000        0.00011455        0.00028256        0.00000796
     161         -0.361463        2.000000        0.00034888        0.00144481        0.00003067
     162         -0.360695        2.000000        0.00000089        0.00000642        0.00000012
     163         -0.359909        2.000000        0.00001379        0.00022481        0.00000584
     164         -0.358869        2.000000        0.00001665        0.00023422        0.00000069
     165         -0.358762        2.000000        0.00027673        0.00430695        0.00002551
     166         -0.358424        2.000000        0.00001713        0.00004742        0.00000094
     167         -0.357749        2.000000        0.00137954        0.00378610        0.00006488
     168         -0.357432        2.000000        0.00003833        0.00020032        0.00000529
     169         -0.356226        2.000000        0.00000657        0.00001973        0.00000032
     170         -0.355206        2.000000        0.00000899        0.00003258        0.00000046
     171         -0.354151        2.000000        0.00000820        0.00002634        0.00000067
     172         -0.353675        2.000000        0.00003578        0.00066771        0.00001968
     173         -0.353241        2.000000        0.00000991        0.00006188        0.00000103
     174         -0.352384        2.000000        0.00000211        0.00004401        0.00000135
     175         -0.349281        2.000000        0.00000661        0.00005772        0.00000120
     176         -0.348101        2.000000        0.00002767        0.00043945        0.00001170
     177         -0.347056        2.000000        0.00013604        0.00134433        0.00002905
     178         -0.346421        2.000000        0.00000109        0.00002162        0.00000064
     179         -0.346099        2.000000        0.00035137        0.00393602        0.00008990
     180         -0.344626        2.000000        0.00000470        0.00005313        0.00000119
     181         -0.344227        2.000000        0.00002286        0.00007073        0.00000069
     182         -0.344158        2.000000        0.00000054        0.00000696        0.00000016
     183         -0.343279        2.000000        0.00000508        0.00004618        0.00000092
     184         -0.342186        2.000000        0.00003589        0.00036506        0.00000781
     185         -0.341638        2.000000        0.00000040        0.00000363        0.00000007
     186         -0.341223        2.000000        0.00000326        0.00004252        0.00000098
     187         -0.341051        2.000000        0.00019617        0.00177073        0.00003819
     188         -0.340810        2.000000        0.00000014        0.00000224        0.00000005
     189         -0.340344        2.000000        0.00003057        0.00035342        0.00000782
     190         -0.340103        2.000000        0.00362575        0.04030049        0.00087238
     191         -0.339538        2.000000        0.00017689        0.00201133        0.00004360
     192         -0.338904        2.000000        0.00000161        0.00002500        0.00000058
     193         -0.338737        2.000000        0.00028817        0.00400075        0.00009057
     194         -0.337951        2.000000        0.00017430        0.00106780        0.00001256
     195         -0.337180        2.000000        0.00010995        0.00147011        0.00003384
     196         -0.336960        2.000000        0.00001885        0.00012792        0.00000198
     197         -0.336163        2.000000        0.00001707        0.00009193        0.00000130
     198         -0.335733        2.000000        0.00000175        0.00004146        0.00000044
     199         -0.334956        2.000000        0.00000067        0.00001141        0.00000017
     200         -0.333834        2.000000        0.00005650        0.00076198        0.00001822
     201         -0.331670        2.000000        0.00001969        0.00046087        0.00000762
     202         -0.330715        2.000000        0.00003874        0.00046185        0.00000957
     203         -0.327469        2.000000        0.00000569        0.00006089        0.00000123
     204         -0.326924        2.000000        0.00000035        0.00000292        0.00000005
     205         -0.319799        2.000000        0.00000022        0.00000248        0.00000004
     206         -0.319625        2.000000        0.00001736        0.00006823        0.00000046
     207         -0.318771        2.000000        0.00007555        0.00067085        0.00001007
     208         -0.318487        2.000000        0.00000000        0.00000004        0.00000000
     209         -0.318151        2.000000        0.00000005        0.00000029        0.00000000
     210         -0.317254        2.000000        0.00000000        0.00000004        0.00000000
     211         -0.316615        2.000000        0.00000010        0.00000057        0.00000001
     212         -0.316317        2.000000        0.00179058        0.01532355        0.00028594
     213         -0.315885        2.000000        0.00000044        0.00000386        0.00000007
     214         -0.315512        2.000000        0.00000010        0.00000043        0.00000001
     215         -0.314742        2.000000        0.00000039        0.00000187        0.00000002
     216         -0.314240        2.000000        0.00000001        0.00000012        0.00000000
     217         -0.313093        2.000000        0.00000088        0.00000378        0.00000003
     218         -0.312538        2.000000        0.00000046        0.00000166        0.00000002
     219         -0.312396        2.000000        0.00000112        0.00000471        0.00000004
     220         -0.312037        2.000000        0.00000019        0.00000094        0.00000001
     221         -0.310598        2.000000        0.00000268        0.00000859        0.00000006
     222         -0.310221        2.000000        0.00000120        0.00000363        0.00000003
     223         -0.309408        2.000000        0.00000122        0.00000470        0.00000004
     224         -0.309395        2.000000        0.00000250        0.00000916        0.00000007
     225         -0.309234        2.000000        0.00000061        0.00000221        0.00000002
     226         -0.308381        2.000000        0.00005223        0.00025453        0.00000221
     227         -0.308250        2.000000        0.00026473        0.00296722        0.00003012
     228         -0.308097        2.000000        0.00000427        0.00003820        0.00000040
     229         -0.307179        2.000000        0.00008407        0.00025476        0.00000190
     230         -0.305966        2.000000        0.00039529        0.00119758        0.00000954
     231         -0.305190        2.000000        0.00473342        0.01452731        0.00011634
     232         -0.305170        2.000000        0.00093959        0.00280259        0.00001988
     233         -0.303881        2.000000        0.00173734        0.00580523        0.00005421
     234         -0.303186        2.000000        0.00000177        0.00000631        0.00000005
     235         -0.302644        2.000000        0.00000461        0.00002948        0.00000024
     236         -0.302137        2.000000        0.00000134        0.00003691        0.00000068
     237         -0.301410        2.000000        0.00003530        0.00014416        0.00000154
     238         -0.301270        2.000000        0.00002134        0.00008378        0.00000119
     239         -0.300504        2.000000        0.00451525        0.01608224        0.00014208
     240         -0.300347        2.000000        0.00006089        0.00026109        0.00000303
     241         -0.300010        2.000000        0.00001907        0.00038281        0.00000145
     242         -0.298878        2.000000        0.00019806        0.00066658        0.00000538
     243         -0.298505        2.000000        0.00036335        0.00140420        0.00001009
     244         -0.297847        2.000000        0.00027587        0.00098924        0.00000725
     245         -0.297156        2.000000        0.00037883        0.00134651        0.00000962
     246         -0.297046        2.000000        0.00001790        0.00008572        0.00000057
     247         -0.296671        2.000000        0.00016459        0.00058728        0.00000406
     248         -0.296618        2.000000        0.00005153        0.00017951        0.00000121
     249         -0.295969        2.000000        0.00084759        0.00268831        0.00001871
     250         -0.295348        2.000000        0.00055317        0.00164316        0.00001074
     251         -0.295087        2.000000        0.00000033        0.00000127        0.00000001
     252         -0.294369        2.000000        0.00000693        0.00002452        0.00000013
     253         -0.294183        2.000000        0.00000273        0.00001982        0.00000013
     254         -0.293640        2.000000        0.00000077        0.00000485        0.00000004
     255         -0.293246        2.000000        0.00000079        0.00000628        0.00000006
     256         -0.292577        2.000000        0.00000192        0.00001212        0.00000006
     257         -0.291994        2.000000        0.00011578        0.00066635        0.00000507
     258         -0.291705        2.000000        0.00000009        0.00000060        0.00000000
     259         -0.290928        2.000000        0.00063956        0.00308126        0.00002849
     260         -0.290306        2.000000        0.00168922        0.00753646        0.00007009
     261         -0.289901        2.000000        0.00393128        0.01673716        0.00017020
     262         -0.289451        2.000000        0.00210931        0.00867209        0.00008704
     263         -0.289043        2.000000        0.00088695        0.00359557        0.00003591
     264         -0.288015        2.000000        0.00042083        0.00176132        0.00001562
     265         -0.287861        2.000000        0.00011995        0.00065753        0.00000423
     266         -0.286936        2.000000        0.00002155        0.00008254        0.00000081
     267         -0.286667        2.000000        0.00002046        0.00008804        0.00000074
     268         -0.286302        2.000000        0.00024912        0.00097285        0.00000909
     269         -0.285607        2.000000        0.00000181        0.00000862        0.00000012
     270         -0.285328        2.000000        0.00002668        0.00015780        0.00000091
     271         -0.285085        2.000000        0.00002174        0.00008753        0.00000074
     272         -0.284841        2.000000        0.00000723        0.00004520        0.00000050
     273         -0.284131        2.000000        0.00003523        0.00018232        0.00000117
     274         -0.283572        2.000000        0.00000946        0.00008683        0.00000052
     275         -0.283249        2.000000        0.00003638        0.00026471        0.00000131
     276         -0.283050        2.000000        0.00008739        0.00049113        0.00000284
     277         -0.282957        2.000000        0.00000185        0.00001028        0.00000006
     278         -0.282638        2.000000        0.00003608        0.00022959        0.00000122
     279         -0.282393        2.000000        0.00090956        0.00592342        0.00003033
     280         -0.282190        2.000000        0.00001914        0.00008792        0.00000061
     281         -0.281812        2.000000        0.00000022        0.00000187        0.00000001
     282         -0.281718        2.000000        0.00009036        0.00045100        0.00000276
     283         -0.281529        2.000000        0.00003869        0.00030731        0.00000158
     284         -0.281304        2.000000        0.00005658        0.00046706        0.00000245
     285         -0.281056        2.000000        0.00002543        0.00014388        0.00000069
     286         -0.280948        2.000000        0.00000667        0.00005826        0.00000035
     287         -0.280843        2.000000        0.00013929        0.00115128        0.00000694
     288         -0.280780        2.000000        0.00000627        0.00004861        0.00000031
     289         -0.280282        2.000000        0.00001469        0.00009913        0.00000119
     290         -0.279956        2.000000        0.00000346        0.00001074        0.00000020
     291         -0.279807        2.000000        0.00000682        0.00009907        0.00000063
     292         -0.279686        2.000000        0.00002139        0.00051822        0.00000398
     293         -0.279589        2.000000        0.00000507        0.00003889        0.00000016
     294         -0.279495        2.000000        0.00006440        0.00036341        0.00000568
     295         -0.279217        2.000000        0.00015042        0.00104795        0.00000527
     296         -0.279093        2.000000        0.00101764        0.00806632        0.00003543
     297         -0.278951        2.000000        0.00013871        0.00107790        0.00000482
     298         -0.278592        2.000000        0.00032085        0.00209854        0.00001216
     299         -0.278433        2.000000        0.00001636        0.00010315        0.00000060
     300         -0.278210        2.000000        0.00001430        0.00005745        0.00000037
     301         -0.278135        2.000000        0.00003719        0.00022937        0.00000130
     302         -0.278031        2.000000        0.00004453        0.00027886        0.00000147
     303         -0.277650        2.000000        0.00007545        0.00052511        0.00000225
     304         -0.277312        2.000000        0.00005359        0.00020873        0.00000161
     305         -0.276990        2.000000        0.00015399        0.00097129        0.00000354
     306         -0.276609        2.000000        0.00000170        0.00001220        0.00000005
     307         -0.276405        2.000000        0.00014646        0.00107428        0.00000493