# Projected DOS for list 65 of 3 atoms, at iteration step i = 0, E(Fermi) =    -0.060510 a.u.
#     MO Eigenvalue [a.u.]      Occupation                 s                 p                 d
       1         -0.895259        2.000000        0.00000000        0.00000000        0.00000000
       2         -0.868125        2.000000        0.00000000        0.00000000        0.00000000
       3         -0.864615        2.000000        0.00000001        0.00000000        0.00000000
       4         -0.857993        2.000000        0.01160943        0.00764958        0.00006185
       5         -0.853826        2.000000        0.00001744        0.00003306        0.00000011
       6         -0.850378        2.000000        0.00000011        0.00000006        0.00000000
       7         -0.848222        2.000000        0.00000061        0.00000029        0.00000000
       8         -0.847335        2.000000        0.00000346        0.00000588        0.00000002
       9         -0.842977        2.000000        0.00000514        0.00000195        0.00000001
      10         -0.841504        2.000000        0.00057529        0.00021612        0.00000129
      11         -0.840654        2.000000        0.00005414        0.00004712        0.00000046
      12         -0.839688        2.000000        0.00003843        0.00005828        0.00000057
      13         -0.839172        2.000000        0.00083592        0.00030796        0.00000261
      14         -0.838522        2.000000        0.00036093        0.00011132        0.00000104
      15         -0.837015        2.000000        0.00118639        0.00040889        0.00000375
      16         -0.832753        2.000000        0.00090931        0.00021942        0.00000118
      17         -0.832000        2.000000        0.00001558        0.00003259        0.00000015
      18         -0.831644        2.000000        0.00003531        0.00003429        0.00000004
      19         -0.830027        2.000000        0.00005234        0.00001294        0.00000028
      20         -0.829447        2.000000        0.00052793        0.00015930        0.00000315
      21         -0.828640        2.000000        0.00693536        0.00145706        0.00001531
      22         -0.828147        2.000000        0.01019999        0.00303148        0.00000989
      23         -0.827394        2.000000        0.00016398        0.00048289        0.00000210
      24         -0.826637        2.000000        0.02461860        0.00523383        0.00004313
      25         -0.825864        2.000000        0.00463920        0.00096691        0.00001412
      26         -0.825007        2.000000        0.00073656        0.00027313        0.00000614
      27         -0.824149        2.000000        0.00029559        0.00014141        0.00000016
      28         -0.823003        2.000000        0.00467145        0.00096554        0.00001135
      29         -0.821982        2.000000        0.00826027        0.00181575        0.00001284
      30         -0.820560        2.000000        0.01242243        0.00233601        0.00002766
      31         -0.820223        2.000000        0.00987750        0.00294418        0.00001759
      32         -0.820029        2.000000        0.13008579        0.02877864        0.00022954
      33         -0.819390        2.000000        0.10398969        0.02349332        0.00017698
      34         -0.818664        2.000000        0.16554059        0.03769167        0.00027794
      35         -0.817548        2.000000        0.00239289        0.00060132        0.00000362
      36         -0.816472        2.000000        0.01021407        0.00235620        0.00001755
      37         -0.815444        2.000000        0.00015674        0.00065565        0.00000275
      38         -0.814805        2.000000        0.00000976        0.00003629        0.00000100
      39         -0.814124        2.000000        0.00170475        0.00063885        0.00001856
      40         -0.813968        2.000000        0.00074688        0.00050167        0.00001203
      41         -0.813053        2.000000        0.00002485        0.00008205        0.00000114
      42         -0.812601        2.000000        0.00000527        0.00003305        0.00000059
      43         -0.811948        2.000000        0.04448882        0.01922895        0.00005344
      44         -0.811687        2.000000        0.05026565        0.02350113        0.00006137
      45         -0.810574        2.000000        0.00056386        0.00019605        0.00000164
      46         -0.809310        2.000000        0.00018408        0.00004896        0.00000042
      47         -0.808268        2.000000        0.00000274        0.00005080        0.00000205
      48         -0.807324        2.000000        0.00021959        0.00007566        0.00000039
      49         -0.806602        2.000000        0.00061573        0.00080368        0.00000101
      50         -0.806376        2.000000        0.00240763        0.00056260        0.00001242
      51         -0.806147        2.000000        0.00003793        0.00008294        0.00000152
      52         -0.804835        2.000000        0.04207543        0.01447683        0.00020462
      53         -0.804321        2.000000        0.00029886        0.00019102        0.00000131
      54         -0.803943        2.000000        0.00147162        0.00085073        0.00003908
      55         -0.803401        2.000000        0.00198060        0.00070927        0.00000687
      56         -0.802648        2.000000        0.00057689        0.00016125        0.00000167
      57         -0.801912        2.000000        0.00068622        0.00019851        0.00000550
      58         -0.801342        2.000000        0.00144869        0.00061862        0.00000630
      59         -0.800594        2.000000        0.00390671        0.00121015        0.00002441
      60         -0.799945        2.000000        0.08391646        0.02253830        0.00036097
      61         -0.799254        2.000000        0.00656299        0.00169393        0.00002939
      62         -0.798331        2.000000        0.00134398        0.00038364        0.00000874
      63         -0.797356        2.000000        0.00014630        0.00007135        0.00000129
      64         -0.795713        2.000000        0.00031153        0.00010873        0.00000149
      65         -0.795144        2.000000        0.00028815        0.00008135        0.00000148
      66         -0.794508        2.000000        0.00023118        0.00011441        0.00000147
      67         -0.793501        2.000000        0.00042805        0.00013177        0.00000283
      68         -0.792888        2.000000        0.00093191        0.00032494        0.00001453
      69         -0.792771        2.000000        0.00098228        0.00028546        0.00000851
      70         -0.792166        2.000000        0.00013987        0.00004413        0.00000133
      71         -0.791795        2.000000        0.00000183        0.00002198        0.00000035
      72         -0.790466        2.000000        0.00000281        0.00002207        0.00000087
      73         -0.789691        2.000000        0.00000557        0.00000320        0.00000012
      74         -0.789018        2.000000        0.00007094        0.00003487        0.00000020
      75         -0.788284        2.000000        0.00079329        0.00025780        0.00000874
      76         -0.787044        2.000000        0.00000305        0.00000429        0.00000029
      77         -0.785765        2.000000        0.00035206        0.00012340        0.00000391
      78         -0.783215        2.000000        0.00069128        0.00025341        0.00000874
      79         -0.782853        2.000000        0.00163783        0.00059764        0.00002213
      80         -0.782388        2.000000        0.00000289        0.00000928        0.00000027
      81         -0.781821        2.000000        0.00000664        0.00000285        0.00000006
      82         -0.780108        2.000000        0.00000303        0.00000600        0.00000005
      83         -0.778906        2.000000        0.00000007        0.00000003        0.00000000
      84         -0.778076        2.000000        0.00000039        0.00000022        0.00000000
      85         -0.775317        2.000000        0.00001763        0.00001751        0.00000011
      86         -0.773086        2.000000        0.00000023        0.00000116        0.00000003
      87         -0.772920        2.000000        0.00000024        0.00000020        0.00000001
      88         -0.771409        2.000000        0.00000174        0.00000437        0.00000040
      89         -0.769725        2.000000        0.00001269        0.00000608        0.00000030
      90         -0.769226        2.000000        0.00009235        0.00004425        0.00000202
      91         -0.767566        2.000000        0.00004348        0.00002156        0.00000097
      92         -0.766737        2.000000        0.00000066        0.00000034        0.00000002
      93         -0.755845        2.000000        0.00000001        0.00000002        0.00000000
      94         -0.752538        2.000000        0.00000004        0.00000003        0.00000000
      95         -0.747161        2.000000        0.00000000        0.00000000        0.00000000
      96         -0.736999        2.000000        0.00000000        0.00000000        0.00000000
      97         -0.726419        2.000000        0.00000000        0.00000000        0.00000000
      98         -0.719129        2.000000        0.00000000        0.00000000        0.00000000
      99         -0.696511        2.000000        0.00000000        0.00000000        0.00000000
     100         -0.460315        2.000000        0.00000000        0.00000000        0.00000000
     101         -0.427906        2.000000        0.00000000        0.00000000        0.00000000
     102         -0.424376        2.000000        0.00000000        0.00000000        0.00000000
     103         -0.405781        2.000000        0.00114559        0.00408424        0.00008181
     104         -0.401299        2.000000        0.00058896        0.00182879        0.00004271
     105         -0.398347        2.000000        0.00013674        0.00040565        0.00000933
     106         -0.398267        2.000000        0.00146824        0.00425159        0.00009499
     107         -0.397295        2.000000        0.00009697        0.00029473        0.00000638
     108         -0.395753        2.000000        0.00543857        0.01554901        0.00033445
     109         -0.395158        2.000000        0.00011965        0.00034817        0.00000728
     110         -0.394493        2.000000        0.00019962        0.00054320        0.00001421
     111         -0.394192        2.000000        0.00002258        0.00008896        0.00000196
     112         -0.393919        2.000000        0.00003390        0.00011800        0.00000158
     113         -0.393017        2.000000        0.00084179        0.00238104        0.00005006
     114         -0.391793        2.000000        0.00013953        0.00040417        0.00000696
     115         -0.389280        2.000000        0.00403110        0.01126791        0.00022739
     116         -0.388145        2.000000        0.00002709        0.00007969        0.00000127
     117         -0.387090        2.000000        0.01908547        0.05265442        0.00104117
     118         -0.386138        2.000000        0.00138335        0.00389646        0.00007457
     119         -0.385161        2.000000        0.00000698        0.00003907        0.00000044
     120         -0.384984        2.000000        0.00306402        0.00828270        0.00017202
     121         -0.383823        2.000000        0.05952499        0.16336123        0.00317757
     122         -0.383101        2.000000        0.00077244        0.00211307        0.00004078
     123         -0.383025        2.000000        0.00445741        0.01225834        0.00023386
     124         -0.381208        2.000000        0.00182340        0.00501028        0.00009551
     125         -0.380660        2.000000        0.00946633        0.02588744        0.00049665
     126         -0.380323        2.000000        0.00274031        0.00744137        0.00014233
     127         -0.379623        2.000000        0.00036412        0.00098182        0.00001916
     128         -0.379161        2.000000        0.08294036        0.22668754        0.00433017
     129         -0.378115        2.000000        0.00174115        0.00477198        0.00009301
     130         -0.377757        2.000000        0.00125213        0.00347057        0.00006375
     131         -0.377213        2.000000        0.00285336        0.00776458        0.00015040
     132         -0.376655        2.000000        0.00000769        0.00002561        0.00000038
     133         -0.376089        2.000000        0.00114293        0.00316795        0.00006236
     134         -0.375522        2.000000        0.00002013        0.00005830        0.00000186
     135         -0.373953        2.000000        0.00012973        0.00045444        0.00000547
     136         -0.373564        2.000000        0.00054725        0.00167481        0.00002762
     137         -0.372991        2.000000        0.00003884        0.00020915        0.00000249
     138         -0.372433        2.000000        0.00000522        0.00002668        0.00000027
     139         -0.372037        2.000000        0.00011784        0.00032954        0.00000539
     140         -0.371632        2.000000        0.00548553        0.01535408        0.00027392
     141         -0.371006        2.000000        0.00001180        0.00013561        0.00000082
     142         -0.369840        2.000000        0.00087191        0.00240767        0.00004408
     143         -0.369635        2.000000        0.00668987        0.01842680        0.00033892
     144         -0.369153        2.000000        0.00005895        0.00016135        0.00000326
     145         -0.369131        2.000000        0.00000325        0.00001543        0.00000024
     146         -0.368498        2.000000        0.00030351        0.00083779        0.00001440
     147         -0.367984        2.000000        0.00030873        0.00084128        0.00001629
     148         -0.367257        2.000000        0.00020261        0.00058757        0.00000900
     149         -0.366951        2.000000        0.00008410        0.00027078        0.00000386
     150         -0.366882        2.000000        0.00011622        0.00034987        0.00000659
     151         -0.366558        2.000000        0.00052364        0.00149712        0.00002484
     152         -0.366087        2.000000        0.00071814        0.00197125        0.00003992
     153         -0.365532        2.000000        0.00062572        0.00193846        0.00002494
     154         -0.365292        2.000000        0.00004302        0.00012118        0.00000220
     155         -0.364873        2.000000        0.00002977        0.00010244        0.00000148
     156         -0.364499        2.000000        0.00002219        0.00005643        0.00000110
     157         -0.364385        2.000000        0.00001124        0.00003861        0.00000067
     158         -0.363409        2.000000        0.00022866        0.00072152        0.00001828
     159         -0.362731        2.000000        0.00000229        0.00002093        0.00000035
     160         -0.361690        2.000000        0.00000518        0.00007820        0.00000095
     161         -0.361463        2.000000        0.00003460        0.00012821        0.00000205
     162         -0.360695        2.000000        0.00010574        0.00034940        0.00000379
     163         -0.359909        2.000000        0.00005092        0.00074455        0.00000573
     164         -0.358869        2.000000        0.00004800        0.00013995        0.00000404
     165         -0.358762        2.000000        0.00000390        0.00001137        0.00000033
     166         -0.358424        2.000000        0.00010813        0.00039650        0.00000883
     167         -0.357749        2.000000        0.00001150        0.00005895        0.00000080
     168         -0.357432        2.000000        0.00002208        0.00050404        0.00000449
     169         -0.356226        2.000000        0.00006526        0.00018425        0.00000339
     170         -0.355206        2.000000        0.00036615        0.00171465        0.00002802
     171         -0.354151        2.000000        0.00038109        0.00166432        0.00002633
     172         -0.353675        2.000000        0.00018881        0.00046332        0.00001200
     173         -0.353241        2.000000        0.01177803        0.04639026        0.00091591
     174         -0.352384        2.000000        0.00002072        0.00010388        0.00000305
     175         -0.349281        2.000000        0.00005096        0.00033614        0.00000302
     176         -0.348101        2.000000        0.00311311        0.01850862        0.00019376
     177         -0.347056        2.000000        0.00219569        0.01237855        0.00014105
     178         -0.346421        2.000000        0.00035241        0.00225338        0.00002659
     179         -0.346099        2.000000        0.00304221        0.01758909        0.00021176
     180         -0.344626        2.000000        0.00006515        0.00049257        0.00000473
     181         -0.344227        2.000000        0.00001994        0.00012009        0.00000239
     182         -0.344158        2.000000        0.00008527        0.00048733        0.00000158
     183         -0.343279        2.000000        0.00079834        0.00453805        0.00004296
     184         -0.342186        2.000000        0.00010551        0.00051600        0.00000871
     185         -0.341638        2.000000        0.00003413        0.00017183        0.00000184
     186         -0.341223        2.000000        0.00068010        0.00209601        0.00003324
     187         -0.341051        2.000000        0.00000839        0.00002475        0.00000059
     188         -0.340810        2.000000        0.00003600        0.00015253        0.00000194
     189         -0.340344        2.000000        0.00019695        0.00136652        0.00001173
     190         -0.340103        2.000000        0.00002089        0.00008246        0.00000337
     191         -0.339538        2.000000        0.00003200        0.00031317        0.00000303
     192         -0.338904        2.000000        0.00008881        0.00028393        0.00000276
     193         -0.338737        2.000000        0.00000409        0.00001016        0.00000031
     194         -0.337951        2.000000        0.00000146        0.00001042        0.00000008
     195         -0.337180        2.000000        0.00000235        0.00001288        0.00000068
     196         -0.336960        2.000000        0.00001193        0.00003667        0.00000070
     197         -0.336163        2.000000        0.00000079        0.00001235        0.00000035
     198         -0.335733        2.000000        0.00000100        0.00002349        0.00000055
     199         -0.334956        2.000000        0.00519722        0.02643528        0.00117042
     200         -0.333834        2.000000        0.00033681        0.00179661        0.00007336
     201         -0.331670        2.000000        0.00004836        0.00020306        0.00000888
     202         -0.330715        2.000000        0.00173715        0.01030753        0.00032307
     203         -0.327469        2.000000        0.00000802        0.00005064        0.00000121
     204         -0.326924        2.000000        0.00000171        0.00000692        0.00000009
     205         -0.319799        2.000000        0.00124089        0.00515112        0.00003528
     206         -0.319625        2.000000        0.00000017        0.00000087        0.00000001
     207         -0.318771        2.000000        0.00000287        0.00002728        0.00000062
     208         -0.318487        2.000000        0.00002004        0.00007585        0.00000078
     209         -0.318151        2.000000        0.00024717        0.00109855        0.00000771
     210         -0.317254        2.000000        0.00028944        0.00111971        0.00000826
     211         -0.316615        2.000000        0.00026248        0.00105866        0.00000624
     212         -0.316317        2.000000        0.00000055        0.00000238        0.00000008
     213         -0.315885        2.000000        0.00001994        0.00010999        0.00000103
     214         -0.315512        2.000000        0.00007910        0.00027550        0.00000361
     215         -0.314742        2.000000        0.00003356        0.00007730        0.00000383
     216         -0.314240        2.000000        0.00000991        0.00003896        0.00000038
     217         -0.313093        2.000000        0.00009865        0.00027836        0.00000741
     218         -0.312538        2.000000        0.00018395        0.00076927        0.00000500
     219         -0.312396        2.000000        0.00006402        0.00019930        0.00000311
     220         -0.312037        2.000000        0.00030335        0.00118525        0.00001115
     221         -0.310598        2.000000        0.00026867        0.00118178        0.00000880
     222         -0.310221        2.000000        0.00015351        0.00047443        0.00000206
     223         -0.309408        2.000000        0.00001760        0.00005629        0.00000092
     224         -0.309395        2.000000        0.00003711        0.00018983        0.00000215
     225         -0.309234        2.000000        0.00018766        0.00079686        0.00000582
     226         -0.308381        2.000000        0.00061427        0.00246101        0.00002339
     227         -0.308250        2.000000        0.00000375        0.00008581        0.00000106
     228         -0.308097        2.000000        0.00011265        0.00037127        0.00000591
     229         -0.307179        2.000000        0.00014182        0.00036889        0.00001062
     230         -0.305966        2.000000        0.00000794        0.00003823        0.00000068
     231         -0.305190        2.000000        0.00000185        0.00000346        0.00000019
     232         -0.305170        2.000000        0.00000061        0.00000114        0.00000008
     233         -0.303881        2.000000        0.00000114        0.00000210        0.00000011
     234         -0.303186        2.000000        0.00001396        0.00006608        0.00000059
     235         -0.302644        2.000000        0.00001408        0.00004151        0.00000066
     236         -0.302137        2.000000        0.00003633        0.00009448        0.00000226
     237         -0.301410        2.000000        0.00007243        0.00030339        0.00000370
     238         -0.301270        2.000000        0.00003300        0.00010418        0.00000129
     239         -0.300504        2.000000        0.00002546        0.00007931        0.00000078
     240         -0.300347        2.000000        0.00001257        0.00003850        0.00000028
     241         -0.300010        2.000000        0.00000013        0.00000044        0.00000001
     242         -0.298878        2.000000        0.00006241        0.00020032        0.00000128
     243         -0.298505        2.000000        0.00004319        0.00013353        0.00000108
     244         -0.297847        2.000000        0.00002022        0.00005694        0.00000098
     245         -0.297156        2.000000        0.00004963        0.00018043        0.00000251
     246         -0.297046        2.000000        0.00001150        0.00003438        0.00000045
     247         -0.296671        2.000000        0.00000534        0.00005108        0.00000039
     248         -0.296618        2.000000        0.00000874        0.00004025        0.00000037
     249         -0.295969        2.000000        0.00011836        0.00040434        0.00000645
     250         -0.295348        2.000000        0.00002617        0.00007769        0.00000186
     251         -0.295087        2.000000        0.00000617        0.00002516        0.00000032
     252         -0.294369        2.000000        0.00010081        0.00037304        0.00000262
     253         -0.294183        2.000000        0.00005295        0.00019034        0.00000096
     254         -0.293640        2.000000        0.00001338        0.00008267        0.00000022
     255         -0.293246        2.000000        0.00001393        0.00005897        0.00000036
     256         -0.292577        2.000000        0.00001499        0.00006657        0.00000041
     257         -0.291994        2.000000        0.00001986        0.00006092        0.00000063
     258         -0.291705        2.000000        0.00002351        0.00008343        0.00000044
     259         -0.290928        2.000000        0.00001152        0.00002721        0.00000068
     260         -0.290306        2.000000        0.00002833        0.00009958        0.00000141
     261         -0.289901        2.000000        0.00000506        0.00004147        0.00000031
     262         -0.289451        2.000000        0.00006452        0.00023698        0.00000215
     263         -0.289043        2.000000        0.00001140        0.00004653        0.00000037
     264         -0.288015        2.000000        0.00003819        0.00019343        0.00000186
     265         -0.287861        2.000000        0.00004393        0.00022660        0.00000210
     266         -0.286936        2.000000        0.00001506        0.00008311        0.00000010
     267         -0.286667        2.000000        0.00006787        0.00022104        0.00000055
     268         -0.286302        2.000000        0.00002050        0.00007411        0.00000031
     269         -0.285607        2.000000        0.00006233        0.00023450        0.00000163
     270         -0.285328        2.000000        0.00000872        0.00001866        0.00000058
     271         -0.285085        2.000000        0.00008661        0.00029783        0.00000259
     272         -0.284841        2.000000        0.00005087        0.00021535        0.00000201
     273         -0.284131        2.000000        0.00000752        0.00002965        0.00000007
     274         -0.283572        2.000000        0.00001560        0.00008853        0.00000047
     275         -0.283249        2.000000        0.00000438        0.00002111        0.00000031
     276         -0.283050        2.000000        0.00004024        0.00015690        0.00000097
     277         -0.282957        2.000000        0.00007756        0.00033582        0.00000229
     278         -0.282638        2.000000        0.00001983        0.00008993        0.00000036
     279         -0.282393        2.000000        0.00001184        0.00007375        0.00000028
     280         -0.282190        2.000000        0.00000100        0.00000654        0.00000004
     281         -0.281812        2.000000        0.00003796        0.00012431        0.00000120
     282         -0.281718        2.000000        0.00000042        0.00000602        0.00000006
     283         -0.281529        2.000000        0.00020468        0.00091341        0.00000507
     284         -0.281304        2.000000        0.00008687        0.00034652        0.00000304
     285         -0.281056        2.000000        0.00000342        0.00004401        0.00000062
     286         -0.280948        2.000000        0.00005476        0.00021278        0.00000118
     287         -0.280843        2.000000        0.00004227        0.00018912        0.00000166
     288         -0.280780        2.000000        0.00000227        0.00001101        0.00000006
     289         -0.280282        2.000000        0.00001308        0.00004699        0.00000048
     290         -0.279956        2.000000        0.00000754        0.00002877        0.00000022
     291         -0.279807        2.000000        0.00003917        0.00018194        0.00000085
     292         -0.279686        2.000000        0.00000245        0.00000902        0.00000010
     293         -0.279589        2.000000        0.00005984        0.00025949        0.00000150
     294         -0.279495        2.000000        0.00000548        0.00002110        0.00000019
     295         -0.279217        2.000000        0.00010423        0.00044230        0.00000321
     296         -0.279093        2.000000        0.00003835        0.00009609        0.00000091
     297         -0.278951        2.000000        0.00000189        0.00001145        0.00000013
     298         -0.278592        2.000000        0.00001355        0.00005066        0.00000101
     299         -0.278433        2.000000        0.00002882        0.00009475        0.00000079
     300         -0.278210        2.000000        0.00000357        0.00003099        0.00000026
     301         -0.278135        2.000000        0.00016606        0.00062075        0.00000398
     302         -0.278031        2.000000        0.00004905        0.00017328        0.00000170
     303         -0.277650        2.000000        0.00001084        0.00003563        0.00000019
     304         -0.277312        2.000000        0.00005895        0.00018925        0.00000128
     305         -0.276990        2.000000        0.00027255        0.00148031        0.00000743
     306         -0.276609        2.000000        0.00010726        0.00045441        0.00000301
     307         -0.276405        2.000000        0.00013060        0.00093463        0.00000407