# Projected DOS for list 26 of 3 atoms, at iteration step i = 0, E(Fermi) =    -0.060510 a.u.
#     MO Eigenvalue [a.u.]      Occupation                 s                 p                 d
       1         -0.895259        2.000000        0.00000000        0.00000000        0.00000000
       2         -0.868125        2.000000        0.00000012        0.00000002        0.00000000
       3         -0.864615        2.000000        0.00000034        0.00000012        0.00000000
       4         -0.857993        2.000000        0.00000015        0.00000003        0.00000000
       5         -0.853826        2.000000        0.00004797        0.00001403        0.00000007
       6         -0.850378        2.000000        0.00000787        0.00000122        0.00000001
       7         -0.848222        2.000000        0.00001096        0.00000269        0.00000001
       8         -0.847335        2.000000        0.00000970        0.00000234        0.00000006
       9         -0.842977        2.000000        0.00063978        0.00011325        0.00000048
      10         -0.841504        2.000000        0.10267415        0.02006316        0.00007210
      11         -0.840654        2.000000        0.04466463        0.00815826        0.00004071
      12         -0.839688        2.000000        0.21134312        0.04599321        0.00015662
      13         -0.839172        2.000000        0.16530466        0.03431848        0.00014954
      14         -0.838522        2.000000        0.02682825        0.00532888        0.00002703
      15         -0.837015        2.000000        0.00183245        0.00038651        0.00000230
      16         -0.832753        2.000000        0.00007255        0.00003790        0.00000016
      17         -0.832000        2.000000        0.00326689        0.00062799        0.00001355
      18         -0.831644        2.000000        0.00086010        0.00015512        0.00000467
      19         -0.830027        2.000000        0.00192735        0.00104049        0.00000347
      20         -0.829447        2.000000        0.00277880        0.00068832        0.00001193
      21         -0.828640        2.000000        0.00270497        0.00075541        0.00000758
      22         -0.828147        2.000000        0.00378958        0.00114869        0.00000373
      23         -0.827394        2.000000        0.00217210        0.00050388        0.00000429
      24         -0.826637        2.000000        0.00078635        0.00096534        0.00001271
      25         -0.825864        2.000000        0.01036523        0.00381643        0.00001304
      26         -0.825007        2.000000        0.00050419        0.00016033        0.00000211
      27         -0.824149        2.000000        0.00007673        0.00004148        0.00000120
      28         -0.823003        2.000000        0.00102902        0.00020833        0.00000494
      29         -0.821982        2.000000        0.00040428        0.00015589        0.00000464
      30         -0.820560        2.000000        0.00377797        0.00355810        0.00001851
      31         -0.820223        2.000000        0.00496997        0.00296141        0.00001235
      32         -0.820029        2.000000        0.00026004        0.00134965        0.00001846
      33         -0.819390        2.000000        0.00072892        0.00009791        0.00000500
      34         -0.818664        2.000000        0.00016352        0.00014571        0.00000631
      35         -0.817548        2.000000        0.00092836        0.00089045        0.00000421
      36         -0.816472        2.000000        0.00250907        0.00103749        0.00005623
      37         -0.815444        2.000000        0.00009313        0.00028766        0.00002099
      38         -0.814805        2.000000        0.00612993        0.00134897        0.00002996
      39         -0.814124        2.000000        0.00036069        0.00009874        0.00000808
      40         -0.813968        2.000000        0.00016720        0.00002809        0.00000232
      41         -0.813053        2.000000        0.00012119        0.00003611        0.00000391
      42         -0.812601        2.000000        0.00201526        0.00080029        0.00000459
      43         -0.811948        2.000000        0.00075715        0.00027387        0.00000749
      44         -0.811687        2.000000        0.00025233        0.00004972        0.00000328
      45         -0.810574        2.000000        0.00065828        0.00038558        0.00002842
      46         -0.809310        2.000000        0.00033529        0.00012150        0.00000475
      47         -0.808268        2.000000        0.00026844        0.00032758        0.00000489
      48         -0.807324        2.000000        0.00040911        0.00275055        0.00003889
      49         -0.806602        2.000000        0.00065350        0.00136624        0.00006332
      50         -0.806376        2.000000        0.00034899        0.00047232        0.00003895
      51         -0.806147        2.000000        0.00181419        0.00162054        0.00010931
      52         -0.804835        2.000000        0.00007406        0.00049938        0.00000733
      53         -0.804321        2.000000        0.00271048        0.00157155        0.00013062
      54         -0.803943        2.000000        0.00242745        0.00281566        0.00001062
      55         -0.803401        2.000000        0.00097832        0.00046164        0.00000908
      56         -0.802648        2.000000        0.00041496        0.00285786        0.00004745
      57         -0.801912        2.000000        0.00464882        0.00784695        0.00003610
      58         -0.801342        2.000000        0.00115702        0.00470184        0.00007679
      59         -0.800594        2.000000        0.01802354        0.01182584        0.00006732
      60         -0.799945        2.000000        0.00104908        0.00086592        0.00000450
      61         -0.799254        2.000000        0.00124737        0.00217418        0.00001276
      62         -0.798331        2.000000        0.00005981        0.00004226        0.00000049
      63         -0.797356        2.000000        0.00028593        0.00030916        0.00000157
      64         -0.795713        2.000000        0.00000168        0.00001165        0.00000016
      65         -0.795144        2.000000        0.00046729        0.00071912        0.00001111
      66         -0.794508        2.000000        0.00058088        0.00050834        0.00001903
      67         -0.793501        2.000000        0.00005956        0.00087576        0.00004382
      68         -0.792888        2.000000        0.00051614        0.00036601        0.00000631
      69         -0.792771        2.000000        0.00176820        0.00166200        0.00004961
      70         -0.792166        2.000000        0.00013671        0.00015597        0.00000234
      71         -0.791795        2.000000        0.00015699        0.00017951        0.00000922
      72         -0.790466        2.000000        0.00030174        0.00475541        0.00032445
      73         -0.789691        2.000000        0.00003571        0.00017141        0.00000108
      74         -0.789018        2.000000        0.00114204        0.00032118        0.00001676
      75         -0.788284        2.000000        0.00002694        0.00001637        0.00000063
      76         -0.787044        2.000000        0.03527013        0.00938323        0.00039998
      77         -0.785765        2.000000        0.00182072        0.00054134        0.00002816
      78         -0.783215        2.000000        0.00013258        0.00004305        0.00000133
      79         -0.782853        2.000000        0.00000887        0.00005008        0.00000115
      80         -0.782388        2.000000        0.00042199        0.00012021        0.00000711
      81         -0.781821        2.000000        0.00003785        0.00005683        0.00000333
      82         -0.780108        2.000000        0.03076962        0.01015525        0.00044181
      83         -0.778906        2.000000        0.00002138        0.00000915        0.00000016
      84         -0.778076        2.000000        0.00000114        0.00000071        0.00000005
      85         -0.775317        2.000000        0.00358065        0.00131164        0.00005970
      86         -0.773086        2.000000        0.00003810        0.00001222        0.00000060
      87         -0.772920        2.000000        0.00000733        0.00003691        0.00000078
      88         -0.771409        2.000000        0.00007042        0.00019643        0.00000286
      89         -0.769725        2.000000        0.01407898        0.01964487        0.00004643
      90         -0.769226        2.000000        0.00015676        0.00032787        0.00000097
      91         -0.767566        2.000000        0.00315744        0.00535609        0.00001255
      92         -0.766737        2.000000        0.00002683        0.00005848        0.00000026
      93         -0.755845        2.000000        0.00000229        0.00000910        0.00000004
      94         -0.752538        2.000000        0.00000841        0.00004034        0.00000024
      95         -0.747161        2.000000        0.00000000        0.00000000        0.00000000
      96         -0.736999        2.000000        0.00000024        0.00000231        0.00000002
      97         -0.726419        2.000000        0.00000000        0.00000001        0.00000000
      98         -0.719129        2.000000        0.00000001        0.00000003        0.00000000
      99         -0.696511        2.000000        0.00000000        0.00000000        0.00000000
     100         -0.460315        2.000000        0.00000000        0.00000000        0.00000000
     101         -0.427906        2.000000        0.00000001        0.00000006        0.00000000
     102         -0.424376        2.000000        0.00000001        0.00000003        0.00000000
     103         -0.405781        2.000000        0.00000003        0.00000009        0.00000000
     104         -0.401299        2.000000        0.00002816        0.00009638        0.00000189
     105         -0.398347        2.000000        0.00003170        0.00010277        0.00000155
     106         -0.398267        2.000000        0.00034387        0.00108374        0.00001689
     107         -0.397295        2.000000        0.00002800        0.00008572        0.00000140
     108         -0.395753        2.000000        0.00094614        0.00272423        0.00004716
     109         -0.395158        2.000000        0.00143408        0.00411182        0.00007262
     110         -0.394493        2.000000        0.02407114        0.06821526        0.00120989
     111         -0.394192        2.000000        0.00422959        0.01207541        0.00021222
     112         -0.393919        2.000000        0.00038713        0.00114751        0.00001895
     113         -0.393017        2.000000        0.00236545        0.00718111        0.00011555
     114         -0.391793        2.000000        0.15292043        0.44680755        0.00752513
     115         -0.389280        2.000000        0.00021423        0.00061509        0.00001097
     116         -0.388145        2.000000        0.00077618        0.00223240        0.00003830
     117         -0.387090        2.000000        0.00062837        0.00182462        0.00003322
     118         -0.386138        2.000000        0.00021980        0.00065452        0.00001635
     119         -0.385161        2.000000        0.00016583        0.00062044        0.00001569
     120         -0.384984        2.000000        0.00023824        0.00075940        0.00001311
     121         -0.383823        2.000000        0.00032038        0.00095244        0.00001833
     122         -0.383101        2.000000        0.00005807        0.00023482        0.00000349
     123         -0.383025        2.000000        0.00029552        0.00080856        0.00001712
     124         -0.381208        2.000000        0.00007477        0.00044343        0.00000772
     125         -0.380660        2.000000        0.00036752        0.00125949        0.00002093
     126         -0.380323        2.000000        0.00000647        0.00005418        0.00000136
     127         -0.379623        2.000000        0.00447216        0.01538723        0.00024224
     128         -0.379161        2.000000        0.00020587        0.00059824        0.00001404
     129         -0.378115        2.000000        0.00046914        0.00305875        0.00006033
     130         -0.377757        2.000000        0.00042651        0.00137403        0.00002759
     131         -0.377213        2.000000        0.00009133        0.00058119        0.00001295
     132         -0.376655        2.000000        0.00137459        0.00442527        0.00010673
     133         -0.376089        2.000000        0.00127020        0.00357879        0.00008485
     134         -0.375522        2.000000        0.00022359        0.00168469        0.00003269
     135         -0.373953        2.000000        0.00041564        0.00149627        0.00003669
     136         -0.373564        2.000000        0.00252379        0.00889857        0.00021025
     137         -0.372991        2.000000        0.00608258        0.02643164        0.00061221
     138         -0.372433        2.000000        0.00048528        0.00221425        0.00004889
     139         -0.372037        2.000000        0.00045969        0.00150145        0.00003511
     140         -0.371632        2.000000        0.00040097        0.00146330        0.00003327
     141         -0.371006        2.000000        0.00010667        0.00032996        0.00000726
     142         -0.369840        2.000000        0.00000463        0.00004426        0.00000098
     143         -0.369635        2.000000        0.00012065        0.00041849        0.00000820
     144         -0.369153        2.000000        0.00021778        0.00098869        0.00002176
     145         -0.369131        2.000000        0.01276653        0.05560779        0.00126386
     146         -0.368498        2.000000        0.00000468        0.00001819        0.00000047
     147         -0.367984        2.000000        0.00002241        0.00016190        0.00000305
     148         -0.367257        2.000000        0.00010141        0.00037936        0.00000721
     149         -0.366951        2.000000        0.00024019        0.00075978        0.00001674
     150         -0.366882        2.000000        0.00074320        0.00321304        0.00005580
     151         -0.366558        2.000000        0.00012943        0.00063442        0.00000982
     152         -0.366087        2.000000        0.00018616        0.00079856        0.00001318
     153         -0.365532        2.000000        0.00000628        0.00037460        0.00000544
     154         -0.365292        2.000000        0.00000820        0.00134049        0.00002142
     155         -0.364873        2.000000        0.00064064        0.00289794        0.00007033
     156         -0.364499        2.000000        0.00010185        0.00041714        0.00001001
     157         -0.364385        2.000000        0.00386001        0.01471175        0.00034685
     158         -0.363409        2.000000        0.00001605        0.00007557        0.00000165
     159         -0.362731        2.000000        0.00090011        0.00392549        0.00010175
     160         -0.361690        2.000000        0.00004216        0.00017650        0.00000335
     161         -0.361463        2.000000        0.00030202        0.00100293        0.00002184
     162         -0.360695        2.000000        0.00006059        0.00085516        0.00001304
     163         -0.359909        2.000000        0.00222439        0.00914297        0.00022258
     164         -0.358869        2.000000        0.00223490        0.00765124        0.00019983
     165         -0.358762        2.000000        0.00003829        0.00011561        0.00000322
     166         -0.358424        2.000000        0.00070222        0.00409957        0.00010547
     167         -0.357749        2.000000        0.00378104        0.02095251        0.00043557
     168         -0.357432        2.000000        0.00024300        0.00112537        0.00002465
     169         -0.356226        2.000000        0.00013534        0.00069069        0.00002121
     170         -0.355206        2.000000        0.00012548        0.00066069        0.00001394
     171         -0.354151        2.000000        0.00001835        0.00058597        0.00000708
     172         -0.353675        2.000000        0.00001695        0.00022240        0.00000281
     173         -0.353241        2.000000        0.00000716        0.00008024        0.00000110
     174         -0.352384        2.000000        0.00006516        0.00031465        0.00000618
     175         -0.349281        2.000000        0.00507614        0.03745686        0.00052417
     176         -0.348101        2.000000        0.00006562        0.00054285        0.00001267
     177         -0.347056        2.000000        0.00081747        0.00638762        0.00009969
     178         -0.346421        2.000000        0.00040124        0.00194038        0.00003539
     179         -0.346099        2.000000        0.00003890        0.00029265        0.00000612
     180         -0.344626        2.000000        0.00006998        0.00090217        0.00001634
     181         -0.344227        2.000000        0.00000316        0.00002641        0.00000053
     182         -0.344158        2.000000        0.00015969        0.00166003        0.00003191
     183         -0.343279        2.000000        0.00004959        0.00025533        0.00000501
     184         -0.342186        2.000000        0.00526696        0.06012712        0.00128003
     185         -0.341638        2.000000        0.00003245        0.00029006        0.00000516
     186         -0.341223        2.000000        0.00023014        0.00126407        0.00002807
     187         -0.341051        2.000000        0.00000467        0.00002840        0.00000057
     188         -0.340810        2.000000        0.00012593        0.00069637        0.00001478
     189         -0.340344        2.000000        0.00002860        0.00044966        0.00000866
     190         -0.340103        2.000000        0.00002885        0.00026689        0.00000539
     191         -0.339538        2.000000        0.00000657        0.00007362        0.00000161
     192         -0.338904        2.000000        0.00000048        0.00000408        0.00000008
     193         -0.338737        2.000000        0.00000136        0.00003828        0.00000051
     194         -0.337951        2.000000        0.00214067        0.01272063        0.00024983
     195         -0.337180        2.000000        0.00027123        0.00156441        0.00002845
     196         -0.336960        2.000000        0.00902756        0.05217717        0.00098346
     197         -0.336163        2.000000        0.00092433        0.00567038        0.00010493
     198         -0.335733        2.000000        0.00036395        0.00237381        0.00004376
     199         -0.334956        2.000000        0.00001761        0.00010665        0.00000213
     200         -0.333834        2.000000        0.00018375        0.00113913        0.00002076
     201         -0.331670        2.000000        0.00000643        0.00002294        0.00000068
     202         -0.330715        2.000000        0.00001114        0.00004878        0.00000100
     203         -0.327469        2.000000        0.00006600        0.00035881        0.00000649
     204         -0.326924        2.000000        0.00016077        0.00033920        0.00000820
     205         -0.319799        2.000000        0.00000078        0.00003190        0.00000034
     206         -0.319625        2.000000        0.00000009        0.00000024        0.00000001
     207         -0.318771        2.000000        0.00000214        0.00001008        0.00000009
     208         -0.318487        2.000000        0.00000056        0.00000550        0.00000006
     209         -0.318151        2.000000        0.00001727        0.00016400        0.00000252
     210         -0.317254        2.000000        0.00000047        0.00000263        0.00000004
     211         -0.316615        2.000000        0.00000215        0.00003390        0.00000046
     212         -0.316317        2.000000        0.00002899        0.00012415        0.00000075
     213         -0.315885        2.000000        0.00002756        0.00031268        0.00000408
     214         -0.315512        2.000000        0.00002857        0.00030721        0.00000416
     215         -0.314742        2.000000        0.00005202        0.00059121        0.00000798
     216         -0.314240        2.000000        0.00000142        0.00001655        0.00000016
     217         -0.313093        2.000000        0.00001608        0.00017076        0.00000239
     218         -0.312538        2.000000        0.00004187        0.00050147        0.00000568
     219         -0.312396        2.000000        0.00010368        0.00105357        0.00001245
     220         -0.312037        2.000000        0.00000038        0.00000342        0.00000006
     221         -0.310598        2.000000        0.00001415        0.00018620        0.00000235
     222         -0.310221        2.000000        0.00001346        0.00009669        0.00000113
     223         -0.309408        2.000000        0.00001600        0.00016406        0.00000185
     224         -0.309395        2.000000        0.00005790        0.00060295        0.00000697
     225         -0.309234        2.000000        0.00003060        0.00032059        0.00000380
     226         -0.308381        2.000000        0.00012796        0.00133798        0.00001458
     227         -0.308250        2.000000        0.00000534        0.00004655        0.00000047
     228         -0.308097        2.000000        0.00003192        0.00032771        0.00000369
     229         -0.307179        2.000000        0.00013392        0.00141294        0.00001581
     230         -0.305966        2.000000        0.00124961        0.01275798        0.00013896
     231         -0.305190        2.000000        0.00005318        0.00028748        0.00000426
     232         -0.305170        2.000000        0.00001041        0.00004749        0.00000078
     233         -0.303881        2.000000        0.00000200        0.00004798        0.00000046
     234         -0.303186        2.000000        0.00000956        0.00009770        0.00000088
     235         -0.302644        2.000000        0.00003175        0.00031432        0.00000265
     236         -0.302137        2.000000        0.00032610        0.00329126        0.00003066
     237         -0.301410        2.000000        0.00002627        0.00029792        0.00000238
     238         -0.301270        2.000000        0.00007038        0.00072674        0.00000614
     239         -0.300504        2.000000        0.00002481        0.00029293        0.00000225
     240         -0.300347        2.000000        0.00000914        0.00008380        0.00000060
     241         -0.300010        2.000000        0.00000026        0.00001424        0.00000007
     242         -0.298878        2.000000        0.00003538        0.00039360        0.00000345
     243         -0.298505        2.000000        0.00002113        0.00026560        0.00000199
     244         -0.297847        2.000000        0.00006142        0.00061561        0.00000487
     245         -0.297156        2.000000        0.00007132        0.00076290        0.00000623
     246         -0.297046        2.000000        0.00000816        0.00003851        0.00000060
     247         -0.296671        2.000000        0.00001163        0.00015328        0.00000134
     248         -0.296618        2.000000        0.00000500        0.00006404        0.00000050
     249         -0.295969        2.000000        0.00037937        0.00360439        0.00002783
     250         -0.295348        2.000000        0.00035091        0.00313798        0.00002426
     251         -0.295087        2.000000        0.00000097        0.00000552        0.00000004
     252         -0.294369        2.000000        0.00001041        0.00007674        0.00000045
     253         -0.294183        2.000000        0.00000375        0.00003796        0.00000030
     254         -0.293640        2.000000        0.00000108        0.00000410        0.00000002
     255         -0.293246        2.000000        0.00000007        0.00000106        0.00000001
     256         -0.292577        2.000000        0.00000751        0.00005073        0.00000048
     257         -0.291994        2.000000        0.00007590        0.00051785        0.00000418
     258         -0.291705        2.000000        0.00001448        0.00008347        0.00000072
     259         -0.290928        2.000000        0.00000465        0.00004486        0.00000028
     260         -0.290306        2.000000        0.00000447        0.00003799        0.00000027
     261         -0.289901        2.000000        0.00064810        0.00543445        0.00004104
     262         -0.289451        2.000000        0.00000186        0.00011507        0.00000053
     263         -0.289043        2.000000        0.00003123        0.00024782        0.00000196
     264         -0.288015        2.000000        0.00007429        0.00051731        0.00000445
     265         -0.287861        2.000000        0.00023322        0.00181941        0.00001644
     266         -0.286936        2.000000        0.00000932        0.00006004        0.00000054
     267         -0.286667        2.000000        0.00001217        0.00010276        0.00000086
     268         -0.286302        2.000000        0.00008962        0.00060014        0.00000428
     269         -0.285607        2.000000        0.00000838        0.00004915        0.00000052
     270         -0.285328        2.000000        0.00007544        0.00049221        0.00000371
     271         -0.285085        2.000000        0.00007213        0.00044714        0.00000332
     272         -0.284841        2.000000        0.00003464        0.00019398        0.00000133
     273         -0.284131        2.000000        0.00006869        0.00049022        0.00000302
     274         -0.283572        2.000000        0.00058457        0.00315914        0.00001937
     275         -0.283249        2.000000        0.00044356        0.00247029        0.00001617
     276         -0.283050        2.000000        0.00067281        0.00371808        0.00002384
     277         -0.282957        2.000000        0.00002759        0.00015400        0.00000113
     278         -0.282638        2.000000        0.00023389        0.00127155        0.00000730
     279         -0.282393        2.000000        0.00792490        0.04228932        0.00024935
     280         -0.282190        2.000000        0.00067885        0.00353290        0.00002135
     281         -0.281812        2.000000        0.00001498        0.00007524        0.00000051
     282         -0.281718        2.000000        0.00030362        0.00173309        0.00001046
     283         -0.281529        2.000000        0.00003296        0.00022211        0.00000145
     284         -0.281304        2.000000        0.00007607        0.00041586        0.00000231
     285         -0.281056        2.000000        0.00000202        0.00009384        0.00000050
     286         -0.280948        2.000000        0.00007589        0.00043513        0.00000223
     287         -0.280843        2.000000        0.00096735        0.00500734        0.00002842
     288         -0.280780        2.000000        0.00000833        0.00004646        0.00000028
     289         -0.280282        2.000000        0.00014154        0.00073606        0.00000427
     290         -0.279956        2.000000        0.00015132        0.00076175        0.00000433
     291         -0.279807        2.000000        0.00006372        0.00033387        0.00000181
     292         -0.279686        2.000000        0.00098722        0.00525271        0.00002732
     293         -0.279589        2.000000        0.00000024        0.00000170        0.00000001
     294         -0.279495        2.000000        0.00168145        0.00848380        0.00004749
     295         -0.279217        2.000000        0.00029686        0.00207146        0.00000846
     296         -0.279093        2.000000        0.00548202        0.03158893        0.00014281
     297         -0.278951        2.000000        0.00051109        0.00335378        0.00001398
     298         -0.278592        2.000000        0.00111607        0.00573099        0.00002854
     299         -0.278433        2.000000        0.00007362        0.00034787        0.00000170
     300         -0.278210        2.000000        0.00006964        0.00105885        0.00000421
     301         -0.278135        2.000000        0.00000331        0.00004861        0.00000027
     302         -0.278031        2.000000        0.00002859        0.00033738        0.00000127
     303         -0.277650        2.000000        0.00000494        0.00127075        0.00000553
     304         -0.277312        2.000000        0.00006905        0.00103849        0.00000517
     305         -0.276990        2.000000        0.00004036        0.00520278        0.00002258
     306         -0.276609        2.000000        0.00000589        0.00059452        0.00000230
     307         -0.276405        2.000000        0.00005180        0.00340634        0.00001470