# Projected DOS for list 20 of 3 atoms, at iteration step i = 0, E(Fermi) =    -0.060510 a.u.
#     MO Eigenvalue [a.u.]      Occupation                 s                 p                 d
       1         -0.895259        2.000000        0.00000003        0.00000002        0.00000000
       2         -0.868125        2.000000        0.00001114        0.00000749        0.00000026
       3         -0.864615        2.000000        0.00002009        0.00001141        0.00000032
       4         -0.857993        2.000000        0.00000000        0.00000000        0.00000000
       5         -0.853826        2.000000        0.00000244        0.00000128        0.00000005
       6         -0.850378        2.000000        0.00002412        0.00001029        0.00000016
       7         -0.848222        2.000000        0.00094919        0.00036145        0.00000731
       8         -0.847335        2.000000        0.00000027        0.00000020        0.00000001
       9         -0.842977        2.000000        0.00000065        0.00000171        0.00000005
      10         -0.841504        2.000000        0.00011040        0.00003453        0.00000043
      11         -0.840654        2.000000        0.00008826        0.00002636        0.00000029
      12         -0.839688        2.000000        0.00000025        0.00000007        0.00000001
      13         -0.839172        2.000000        0.00003758        0.00001372        0.00000029
      14         -0.838522        2.000000        0.00000004        0.00000003        0.00000000
      15         -0.837015        2.000000        0.00040115        0.00012521        0.00000170
      16         -0.832753        2.000000        0.00023995        0.00006157        0.00000039
      17         -0.832000        2.000000        0.00056936        0.00015657        0.00000135
      18         -0.831644        2.000000        0.00047551        0.00013357        0.00000131
      19         -0.830027        2.000000        0.00000053        0.00000020        0.00000001
      20         -0.829447        2.000000        0.00005125        0.00001294        0.00000009
      21         -0.828640        2.000000        0.00003256        0.00000765        0.00000004
      22         -0.828147        2.000000        0.00008466        0.00001927        0.00000013
      23         -0.827394        2.000000        0.00018335        0.00004371        0.00000025
      24         -0.826637        2.000000        0.00006664        0.00001469        0.00000006
      25         -0.825864        2.000000        0.00008447        0.00002190        0.00000009
      26         -0.825007        2.000000        0.00015696        0.00004103        0.00000014
      27         -0.824149        2.000000        0.11818688        0.02756672        0.00011184
      28         -0.823003        2.000000        0.01384349        0.00310518        0.00001243
      29         -0.821982        2.000000        0.04918626        0.01110345        0.00004285
      30         -0.820560        2.000000        0.01029021        0.00224655        0.00000974
      31         -0.820223        2.000000        0.02029310        0.00447034        0.00001893
      32         -0.820029        2.000000        0.00003093        0.00000509        0.00000005
      33         -0.819390        2.000000        0.00025921        0.00004443        0.00000032
      34         -0.818664        2.000000        0.01959637        0.00425917        0.00001888
      35         -0.817548        2.000000        0.23206322        0.04951976        0.00025085
      36         -0.816472        2.000000        0.00672041        0.00139906        0.00000823
      37         -0.815444        2.000000        0.00626836        0.00129496        0.00000862
      38         -0.814805        2.000000        0.00249773        0.00048810        0.00000411
      39         -0.814124        2.000000        0.00738776        0.00151885        0.00001208
      40         -0.813968        2.000000        0.00201686        0.00042371        0.00000343
      41         -0.813053        2.000000        0.00476424        0.00096361        0.00000871
      42         -0.812601        2.000000        0.02341864        0.00467036        0.00004603
      43         -0.811948        2.000000        0.00228454        0.00046793        0.00000457
      44         -0.811687        2.000000        0.00329805        0.00066845        0.00000696
      45         -0.810574        2.000000        0.00896405        0.00192977        0.00001952
      46         -0.809310        2.000000        0.00031548        0.00006993        0.00000065
      47         -0.808268        2.000000        0.00651731        0.00120331        0.00002295
      48         -0.807324        2.000000        0.01020835        0.00210858        0.00003179
      49         -0.806602        2.000000        0.00863406        0.00176052        0.00003040
      50         -0.806376        2.000000        0.00025505        0.00008745        0.00000045
      51         -0.806147        2.000000        0.00089063        0.00016439        0.00000385
      52         -0.804835        2.000000        0.00898379        0.00185963        0.00003642
      53         -0.804321        2.000000        0.01300275        0.00270219        0.00005480
      54         -0.803943        2.000000        0.00563521        0.00116557        0.00002473
      55         -0.803401        2.000000        0.11074372        0.02312396        0.00051037
      56         -0.802648        2.000000        0.00027066        0.00006000        0.00000142
      57         -0.801912        2.000000        0.00110244        0.00022741        0.00000557
      58         -0.801342        2.000000        0.00651323        0.00139003        0.00003629
      59         -0.800594        2.000000        0.00090376        0.00020103        0.00000504
      60         -0.799945        2.000000        0.00001172        0.00000283        0.00000005
      61         -0.799254        2.000000        0.00014988        0.00003280        0.00000077
      62         -0.798331        2.000000        0.00016302        0.00003569        0.00000113
      63         -0.797356        2.000000        0.00066606        0.00014809        0.00000531
      64         -0.795713        2.000000        0.00000900        0.00000273        0.00000004
      65         -0.795144        2.000000        0.00008727        0.00002411        0.00000047
      66         -0.794508        2.000000        0.00040192        0.00011594        0.00000201
      67         -0.793501        2.000000        0.00010056        0.00008397        0.00000019
      68         -0.792888        2.000000        0.00000078        0.00000041        0.00000000
      69         -0.792771        2.000000        0.00001077        0.00000287        0.00000016
      70         -0.792166        2.000000        0.00000797        0.00001151        0.00000003
      71         -0.791795        2.000000        0.00000056        0.00000105        0.00000001
      72         -0.790466        2.000000        0.00000310        0.00000467        0.00000002
      73         -0.789691        2.000000        0.00003708        0.00002236        0.00000011
      74         -0.789018        2.000000        0.00000190        0.00000062        0.00000001
      75         -0.788284        2.000000        0.00011613        0.00004194        0.00000056
      76         -0.787044        2.000000        0.00000310        0.00000418        0.00000003
      77         -0.785765        2.000000        0.00022554        0.00036806        0.00000119
      78         -0.783215        2.000000        0.02647461        0.02971909        0.00007363
      79         -0.782853        2.000000        0.00932657        0.01051729        0.00002646
      80         -0.782388        2.000000        0.00223216        0.00202289        0.00000645
      81         -0.781821        2.000000        0.00001570        0.00017787        0.00001168
      82         -0.780108        2.000000        0.00001515        0.00001443        0.00000009
      83         -0.778906        2.000000        0.00043153        0.00139927        0.00000905
      84         -0.778076        2.000000        0.00010019        0.00018229        0.00000055
      85         -0.775317        2.000000        0.00000161        0.00000072        0.00000004
      86         -0.773086        2.000000        0.00000320        0.00001178        0.00000044
      87         -0.772920        2.000000        0.00069663        0.00098773        0.00000314
      88         -0.771409        2.000000        0.00000068        0.00000047        0.00000001
      89         -0.769725        2.000000        0.00002937        0.00004588        0.00000015
      90         -0.769226        2.000000        0.00004227        0.00008382        0.00000031
      91         -0.767566        2.000000        0.00011013        0.00009763        0.00000052
      92         -0.766737        2.000000        0.00135548        0.00040215        0.00001657
      93         -0.755845        2.000000        0.00000094        0.00000036        0.00000002
      94         -0.752538        2.000000        0.00002207        0.00001335        0.00000024
      95         -0.747161        2.000000        0.00031844        0.00029097        0.00000210
      96         -0.736999        2.000000        0.00005264        0.00003818        0.00000284
      97         -0.726419        2.000000        0.00978460        0.00995154        0.00075113
      98         -0.719129        2.000000        0.00019715        0.00037173        0.00000372
      99         -0.696511        2.000000        0.00001665        0.00003986        0.00000057
     100         -0.460315        2.000000        0.00000000        0.00000001        0.00000000
     101         -0.427906        2.000000        0.00000059        0.00000469        0.00000019
     102         -0.424376        2.000000        0.00000031        0.00000340        0.00000011
     103         -0.405781        2.000000        0.00000000        0.00000002        0.00000000
     104         -0.401299        2.000000        0.00000005        0.00000038        0.00000001
     105         -0.398347        2.000000        0.00001228        0.00010765        0.00000298
     106         -0.398267        2.000000        0.00015668        0.00137351        0.00003795
     107         -0.397295        2.000000        0.00000102        0.00000672        0.00000018
     108         -0.395753        2.000000        0.00034076        0.00301722        0.00008150
     109         -0.395158        2.000000        0.00000151        0.00001182        0.00000027
     110         -0.394493        2.000000        0.00001918        0.00017021        0.00000460
     111         -0.394192        2.000000        0.00000749        0.00006696        0.00000192
     112         -0.393919        2.000000        0.00004136        0.00037253        0.00000993
     113         -0.393017        2.000000        0.00101111        0.00890825        0.00023372
     114         -0.391793        2.000000        0.00002795        0.00024910        0.00000657
     115         -0.389280        2.000000        0.00000011        0.00000035        0.00000001
     116         -0.388145        2.000000        0.00003065        0.00027634        0.00000744
     117         -0.387090        2.000000        0.00000247        0.00001848        0.00000053
     118         -0.386138        2.000000        0.00090655        0.00838237        0.00021620
     119         -0.385161        2.000000        0.00041469        0.00381743        0.00009606
     120         -0.384984        2.000000        0.00002717        0.00019420        0.00000418
     121         -0.383823        2.000000        0.00000545        0.00001724        0.00000030
     122         -0.383101        2.000000        0.00002042        0.00007694        0.00000139
     123         -0.383025        2.000000        0.00040849        0.00284591        0.00005962
     124         -0.381208        2.000000        0.00009624        0.00033836        0.00000573
     125         -0.380660        2.000000        0.00009661        0.00059853        0.00001161
     126         -0.380323        2.000000        0.00009051        0.00060220        0.00001218
     127         -0.379623        2.000000        0.00007201        0.00063818        0.00001481
     128         -0.379161        2.000000        0.00000279        0.00001504        0.00000027
     129         -0.378115        2.000000        0.00005620        0.00049123        0.00001105
     130         -0.377757        2.000000        0.00000498        0.00004404        0.00000100
     131         -0.377213        2.000000        0.00009700        0.00090897        0.00002197
     132         -0.376655        2.000000        0.00081380        0.00747335        0.00017252
     133         -0.376089        2.000000        0.00046045        0.00425110        0.00009781
     134         -0.375522        2.000000        0.00005370        0.00050152        0.00001191
     135         -0.373953        2.000000        0.00017789        0.00156658        0.00003489
     136         -0.373564        2.000000        0.00005521        0.00048672        0.00001094
     137         -0.372991        2.000000        0.00004115        0.00038655        0.00000896
     138         -0.372433        2.000000        0.00025295        0.00225496        0.00004987
     139         -0.372037        2.000000        0.00003710        0.00031760        0.00000704
     140         -0.371632        2.000000        0.00003260        0.00030502        0.00000707
     141         -0.371006        2.000000        0.00001646        0.00015917        0.00000362
     142         -0.369840        2.000000        0.00001120        0.00008830        0.00000237
     143         -0.369635        2.000000        0.00000327        0.00003291        0.00000060
     144         -0.369153        2.000000        0.00000016        0.00000092        0.00000002
     145         -0.369131        2.000000        0.00003324        0.00029545        0.00000621
     146         -0.368498        2.000000        0.00000210        0.00000892        0.00000021
     147         -0.367984        2.000000        0.00000968        0.00003509        0.00000081
     148         -0.367257        2.000000        0.00000126        0.00000399        0.00000007
     149         -0.366951        2.000000        0.00000056        0.00000215        0.00000004
     150         -0.366882        2.000000        0.00000795        0.00003945        0.00000081
     151         -0.366558        2.000000        0.00000152        0.00001023        0.00000022
     152         -0.366087        2.000000        0.00000067        0.00000750        0.00000015
     153         -0.365532        2.000000        0.00000564        0.00001953        0.00000037
     154         -0.365292        2.000000        0.00000490        0.00001840        0.00000034
     155         -0.364873        2.000000        0.00001200        0.00004511        0.00000082
     156         -0.364499        2.000000        0.00000056        0.00000189        0.00000004
     157         -0.364385        2.000000        0.00000320        0.00002589        0.00000052
     158         -0.363409        2.000000        0.00014993        0.00045625        0.00000866
     159         -0.362731        2.000000        0.00000614        0.00004317        0.00000105
     160         -0.361690        2.000000        0.00001569        0.00005901        0.00000111
     161         -0.361463        2.000000        0.00017551        0.00064159        0.00001277
     162         -0.360695        2.000000        0.00000005        0.00000025        0.00000000
     163         -0.359909        2.000000        0.00016961        0.00049860        0.00000973
     164         -0.358869        2.000000        0.00996467        0.02883877        0.00058132
     165         -0.358762        2.000000        0.21792790        0.63057692        0.01274403
     166         -0.358424        2.000000        0.00007994        0.00023349        0.00000486
     167         -0.357749        2.000000        0.00069505        0.00239172        0.00005077
     168         -0.357432        2.000000        0.00007293        0.00020960        0.00000449
     169         -0.356226        2.000000        0.00000174        0.00000750        0.00000015
     170         -0.355206        2.000000        0.00000045        0.00000162        0.00000004
     171         -0.354151        2.000000        0.00000019        0.00000106        0.00000001
     172         -0.353675        2.000000        0.00005559        0.00015576        0.00000358
     173         -0.353241        2.000000        0.00000046        0.00000238        0.00000004
     174         -0.352384        2.000000        0.00001552        0.00004328        0.00000097
     175         -0.349281        2.000000        0.00000038        0.00000390        0.00000009
     176         -0.348101        2.000000        0.00000080        0.00000606        0.00000009
     177         -0.347056        2.000000        0.00000453        0.00005845        0.00000122
     178         -0.346421        2.000000        0.00000049        0.00000153        0.00000004
     179         -0.346099        2.000000        0.00000434        0.00010833        0.00000117
     180         -0.344626        2.000000        0.00000082        0.00000866        0.00000007
     181         -0.344227        2.000000        0.00002960        0.00071594        0.00000782
     182         -0.344158        2.000000        0.00000244        0.00000707        0.00000019
     183         -0.343279        2.000000        0.00000018        0.00000245        0.00000005
     184         -0.342186        2.000000        0.00000057        0.00000928        0.00000017
     185         -0.341638        2.000000        0.00000032        0.00000110        0.00000002
     186         -0.341223        2.000000        0.00002336        0.00008007        0.00000146
     187         -0.341051        2.000000        0.00300958        0.01030794        0.00018668
     188         -0.340810        2.000000        0.00000003        0.00000011        0.00000000
     189         -0.340344        2.000000        0.00000037        0.00000715        0.00000013
     190         -0.340103        2.000000        0.00002234        0.00071498        0.00001230
     191         -0.339538        2.000000        0.00000133        0.00003722        0.00000064
     192         -0.338904        2.000000        0.00000004        0.00000058        0.00000001
     193         -0.338737        2.000000        0.00000350        0.00007852        0.00000160
     194         -0.337951        2.000000        0.00000499        0.00003285        0.00000041
     195         -0.337180        2.000000        0.00000145        0.00000793        0.00000020
     196         -0.336960        2.000000        0.00000050        0.00000403        0.00000007
     197         -0.336163        2.000000        0.00000739        0.00005178        0.00000014
     198         -0.335733        2.000000        0.00001019        0.00007557        0.00000028
     199         -0.334956        2.000000        0.00000004        0.00000139        0.00000003
     200         -0.333834        2.000000        0.00000523        0.00007185        0.00000073
     201         -0.331670        2.000000        0.00000751        0.00002781        0.00000061
     202         -0.330715        2.000000        0.00000049        0.00001045        0.00000011
     203         -0.327469        2.000000        0.00000293        0.00002306        0.00000029
     204         -0.326924        2.000000        0.00000525        0.00002690        0.00000061
     205         -0.319799        2.000000        0.00000005        0.00000019        0.00000001
     206         -0.319625        2.000000        0.00003628        0.00041171        0.00000097
     207         -0.318771        2.000000        0.00001617        0.00006104        0.00000199
     208         -0.318487        2.000000        0.00000000        0.00000003        0.00000000
     209         -0.318151        2.000000        0.00000002        0.00000010        0.00000000
     210         -0.317254        2.000000        0.00000000        0.00000002        0.00000000
     211         -0.316615        2.000000        0.00000000        0.00000000        0.00000000
     212         -0.316317        2.000000        0.00010630        0.00139215        0.00001100
     213         -0.315885        2.000000        0.00000001        0.00000012        0.00000000
     214         -0.315512        2.000000        0.00000002        0.00000012        0.00000000
     215         -0.314742        2.000000        0.00000002        0.00000013        0.00000000
     216         -0.314240        2.000000        0.00000000        0.00000000        0.00000000
     217         -0.313093        2.000000        0.00000021        0.00000136        0.00000002
     218         -0.312538        2.000000        0.00000004        0.00000030        0.00000000
     219         -0.312396        2.000000        0.00000024        0.00000171        0.00000002
     220         -0.312037        2.000000        0.00000002        0.00000014        0.00000000
     221         -0.310598        2.000000        0.00000070        0.00000422        0.00000006
     222         -0.310221        2.000000        0.00000028        0.00000162        0.00000002
     223         -0.309408        2.000000        0.00000035        0.00000218        0.00000003
     224         -0.309395        2.000000        0.00000080        0.00000475        0.00000006
     225         -0.309234        2.000000        0.00000017        0.00000108        0.00000001
     226         -0.308381        2.000000        0.00001675        0.00009907        0.00000133
     227         -0.308250        2.000000        0.00005886        0.00037932        0.00000468
     228         -0.308097        2.000000        0.00000084        0.00000489        0.00000008
     229         -0.307179        2.000000        0.00003646        0.00019922        0.00000291
     230         -0.305966        2.000000        0.00027661        0.00143465        0.00002261
     231         -0.305190        2.000000        0.00760289        0.03962165        0.00067598
     232         -0.305170        2.000000        0.00032706        0.00188973        0.00002475
     233         -0.303881        2.000000        0.01217577        0.09073212        0.00156095
     234         -0.303186        2.000000        0.00000084        0.00001032        0.00000016
     235         -0.302644        2.000000        0.00000014        0.00000765        0.00000005
     236         -0.302137        2.000000        0.00000008        0.00000141        0.00000002
     237         -0.301410        2.000000        0.00000438        0.00004809        0.00000042
     238         -0.301270        2.000000        0.00000081        0.00002329        0.00000023
     239         -0.300504        2.000000        0.00038236        0.00620558        0.00004735
     240         -0.300347        2.000000        0.00000828        0.00011537        0.00000181
     241         -0.300010        2.000000        0.00663126        0.04582610        0.00075508
     242         -0.298878        2.000000        0.00002773        0.00029496        0.00000238
     243         -0.298505        2.000000        0.00005423        0.00055587        0.00000440
     244         -0.297847        2.000000        0.00004103        0.00042806        0.00000335
     245         -0.297156        2.000000        0.00005946        0.00060200        0.00000470
     246         -0.297046        2.000000        0.00000309        0.00002738        0.00000022
     247         -0.296671        2.000000        0.00002724        0.00026684        0.00000209
     248         -0.296618        2.000000        0.00000806        0.00008224        0.00000064
     249         -0.295969        2.000000        0.00013542        0.00136208        0.00001054
     250         -0.295348        2.000000        0.00008181        0.00084182        0.00000649
     251         -0.295087        2.000000        0.00000001        0.00000022        0.00000000
     252         -0.294369        2.000000        0.00000063        0.00000744        0.00000006
     253         -0.294183        2.000000        0.00000007        0.00000027        0.00000001
     254         -0.293640        2.000000        0.00000010        0.00000064        0.00000001
     255         -0.293246        2.000000        0.00000004        0.00000017        0.00000000
     256         -0.292577        2.000000        0.00000028        0.00000254        0.00000002
     257         -0.291994        2.000000        0.00002163        0.00017152        0.00000142
     258         -0.291705        2.000000        0.00000001        0.00000009        0.00000000
     259         -0.290928        2.000000        0.00014657        0.00115018        0.00000928
     260         -0.290306        2.000000        0.00040056        0.00318988        0.00002515
     261         -0.289901        2.000000        0.00098338        0.00773849        0.00006054
     262         -0.289451        2.000000        0.00053772        0.00424040        0.00003288
     263         -0.289043        2.000000        0.00022950        0.00180638        0.00001382
     264         -0.288015        2.000000        0.00011093        0.00086317        0.00000642
     265         -0.287861        2.000000        0.00002581        0.00020363        0.00000148
     266         -0.286936        2.000000        0.00000621        0.00004766        0.00000035
     267         -0.286667        2.000000        0.00000573        0.00004348        0.00000031
     268         -0.286302        2.000000        0.00007278        0.00055584        0.00000401
     269         -0.285607        2.000000        0.00000028        0.00000223        0.00000002
     270         -0.285328        2.000000        0.00000591        0.00004384        0.00000031
     271         -0.285085        2.000000        0.00000650        0.00004937        0.00000035
     272         -0.284841        2.000000        0.00000095        0.00000706        0.00000006
     273         -0.284131        2.000000        0.00000952        0.00006966        0.00000048
     274         -0.283572        2.000000        0.00000011        0.00000034        0.00000001
     275         -0.283249        2.000000        0.00000626        0.00004270        0.00000031
     276         -0.283050        2.000000        0.00002420        0.00016888        0.00000116
     277         -0.282957        2.000000        0.00000059        0.00000397        0.00000003
     278         -0.282638        2.000000        0.00000889        0.00006016        0.00000041
     279         -0.282393        2.000000        0.00022523        0.00150275        0.00001023
     280         -0.282190        2.000000        0.00000705        0.00004761        0.00000034
     281         -0.281812        2.000000        0.00000002        0.00000010        0.00000000
     282         -0.281718        2.000000        0.00003769        0.00024741        0.00000153
     283         -0.281529        2.000000        0.00001272        0.00007224        0.00000041
     284         -0.281304        2.000000        0.00002081        0.00011134        0.00000062
     285         -0.281056        2.000000        0.00008933        0.00042497        0.00000178
     286         -0.280948        2.000000        0.00001781        0.00007977        0.00000031
     287         -0.280843        2.000000        0.00010363        0.00035187        0.00000100
     288         -0.280780        2.000000        0.00000811        0.00003748        0.00000014
     289         -0.280282        2.000000        0.00000706        0.00004112        0.00000023
     290         -0.279956        2.000000        0.00000256        0.00001583        0.00000010
     291         -0.279807        2.000000        0.00000202        0.00000870        0.00000001
     292         -0.279686        2.000000        0.00002194        0.00009957        0.00000021
     293         -0.279589        2.000000        0.00000121        0.00000970        0.00000002
     294         -0.279495        2.000000        0.00005587        0.00032450        0.00000197
     295         -0.279217        2.000000        0.00001617        0.00013528        0.00000089
     296         -0.279093        2.000000        0.00003281        0.00029623        0.00000186
     297         -0.278951        2.000000        0.00000773        0.00006592        0.00000043
     298         -0.278592        2.000000        0.00007370        0.00046932        0.00000336
     299         -0.278433        2.000000        0.00000115        0.00000830        0.00000006
     300         -0.278210        2.000000        0.00000085        0.00001087        0.00000008
     301         -0.278135        2.000000        0.00000839        0.00005918        0.00000039
     302         -0.278031        2.000000        0.00000818        0.00006280        0.00000040
     303         -0.277650        2.000000        0.00000150        0.00000656        0.00000014
     304         -0.277312        2.000000        0.00000699        0.00006279        0.00000042
     305         -0.276990        2.000000        0.00000690        0.00003192        0.00000052
     306         -0.276609        2.000000        0.00000041        0.00000300        0.00000003
     307         -0.276405        2.000000        0.00002568        0.00010188        0.00000108