# Projected DOS for list 64 of 3 atoms, at iteration step i = 0, E(Fermi) =    -0.060510 a.u.
#     MO Eigenvalue [a.u.]      Occupation                 s                 p                 d
       1         -0.895259        2.000000        0.00000210        0.00000232        0.00000001
       2         -0.868125        2.000000        0.00021552        0.00027178        0.00000107
       3         -0.864615        2.000000        0.00051854        0.00060263        0.00000288
       4         -0.857993        2.000000        0.00000507        0.00000391        0.00000010
       5         -0.853826        2.000000        0.00000070        0.00000108        0.00000000
       6         -0.850378        2.000000        0.00000139        0.00000160        0.00000000
       7         -0.848222        2.000000        0.00010589        0.00005173        0.00000029
       8         -0.847335        2.000000        0.00000078        0.00000011        0.00000000
       9         -0.842977        2.000000        0.00097031        0.00046179        0.00000529
      10         -0.841504        2.000000        0.00013270        0.00005384        0.00000024
      11         -0.840654        2.000000        0.00002919        0.00002326        0.00000034
      12         -0.839688        2.000000        0.00012002        0.00006441        0.00000088
      13         -0.839172        2.000000        0.00016736        0.00004903        0.00000020
      14         -0.838522        2.000000        0.00001838        0.00000479        0.00000003
      15         -0.837015        2.000000        0.00000296        0.00000178        0.00000004
      16         -0.832753        2.000000        0.00002990        0.00001969        0.00000007
      17         -0.832000        2.000000        0.00003878        0.00000712        0.00000007
      18         -0.831644        2.000000        0.00023259        0.00003726        0.00000011
      19         -0.830027        2.000000        0.00330371        0.00045477        0.00000422
      20         -0.829447        2.000000        0.00275179        0.00052552        0.00000338
      21         -0.828640        2.000000        0.00007225        0.00003604        0.00000070
      22         -0.828147        2.000000        0.02013397        0.00322789        0.00001426
      23         -0.827394        2.000000        0.04549527        0.01051109        0.00005697
      24         -0.826637        2.000000        0.00657674        0.00147786        0.00000259
      25         -0.825864        2.000000        0.00017633        0.00084297        0.00002802
      26         -0.825007        2.000000        0.00485954        0.00136396        0.00003922
      27         -0.824149        2.000000        0.00409035        0.00054725        0.00000762
      28         -0.823003        2.000000        0.03028492        0.00405498        0.00010304
      29         -0.821982        2.000000        0.00238501        0.00044381        0.00000318
      30         -0.820560        2.000000        0.03324049        0.00665573        0.00003829
      31         -0.820223        2.000000        0.01216019        0.00368199        0.00001416
      32         -0.820029        2.000000        0.01135253        0.00148570        0.00004020
      33         -0.819390        2.000000        0.03455791        0.00470381        0.00012427
      34         -0.818664        2.000000        0.00349558        0.00055736        0.00001076
      35         -0.817548        2.000000        0.00168786        0.00074679        0.00000071
      36         -0.816472        2.000000        0.00032187        0.00008790        0.00000262
      37         -0.815444        2.000000        0.00007912        0.00036890        0.00000260
      38         -0.814805        2.000000        0.00121375        0.00553707        0.00003486
      39         -0.814124        2.000000        0.00100467        0.00032519        0.00000147
      40         -0.813968        2.000000        0.00030841        0.00026943        0.00000110
      41         -0.813053        2.000000        0.00275733        0.00088404        0.00000218
      42         -0.812601        2.000000        0.02629607        0.00871281        0.00002579
      43         -0.811948        2.000000        0.00149617        0.00043812        0.00000140
      44         -0.811687        2.000000        0.00027097        0.00009029        0.00000112
      45         -0.810574        2.000000        0.17831941        0.05106798        0.00019494
      46         -0.809310        2.000000        0.00053224        0.00025441        0.00000271
      47         -0.808268        2.000000        0.04674539        0.01001145        0.00012131
      48         -0.807324        2.000000        0.00068587        0.00017111        0.00000330
      49         -0.806602        2.000000        0.02878347        0.00718102        0.00007963
      50         -0.806376        2.000000        0.02207412        0.01084748        0.00002961
      51         -0.806147        2.000000        0.02668261        0.00995817        0.00003546
      52         -0.804835        2.000000        0.00177686        0.00063814        0.00000412
      53         -0.804321        2.000000        0.06794840        0.01635153        0.00027314
      54         -0.803943        2.000000        0.00185014        0.00061011        0.00000667
      55         -0.803401        2.000000        0.00037453        0.00015988        0.00000229
      56         -0.802648        2.000000        0.00032256        0.00013020        0.00000522
      57         -0.801912        2.000000        0.00454396        0.00117661        0.00001965
      58         -0.801342        2.000000        0.00062120        0.00017749        0.00000899
      59         -0.800594        2.000000        0.00950430        0.00245006        0.00008013
      60         -0.799945        2.000000        0.00000523        0.00006284        0.00000214
      61         -0.799254        2.000000        0.00012941        0.00025648        0.00000377
      62         -0.798331        2.000000        0.00056682        0.00051406        0.00000044
      63         -0.797356        2.000000        0.00018673        0.00017315        0.00000154
      64         -0.795713        2.000000        0.00001210        0.00002099        0.00000016
      65         -0.795144        2.000000        0.00037723        0.00020374        0.00000184
      66         -0.794508        2.000000        0.00006122        0.00004122        0.00000113
      67         -0.793501        2.000000        0.01969099        0.00948213        0.00002162
      68         -0.792888        2.000000        0.00437568        0.00271445        0.00000534
      69         -0.792771        2.000000        0.00393868        0.00225109        0.00000623
      70         -0.792166        2.000000        0.07109102        0.03197993        0.00009980
      71         -0.791795        2.000000        0.00625839        0.00253275        0.00001146
      72         -0.790466        2.000000        0.00307387        0.00209040        0.00000213
      73         -0.789691        2.000000        0.00009363        0.00005447        0.00000018
      74         -0.789018        2.000000        0.00086776        0.00029965        0.00000320
      75         -0.788284        2.000000        0.00199955        0.00064046        0.00000670
      76         -0.787044        2.000000        0.00389141        0.00138278        0.00001710
      77         -0.785765        2.000000        0.00242473        0.00098357        0.00000619
      78         -0.783215        2.000000        0.00003780        0.00002077        0.00000132
      79         -0.782853        2.000000        0.00067766        0.00017849        0.00000589
      80         -0.782388        2.000000        0.00009987        0.00002530        0.00000115
      81         -0.781821        2.000000        0.00004539        0.00001547        0.00000053
      82         -0.780108        2.000000        0.00592479        0.00183319        0.00008221
      83         -0.778906        2.000000        0.00007680        0.00004245        0.00000009
      84         -0.778076        2.000000        0.00000093        0.00000051        0.00000002
      85         -0.775317        2.000000        0.00201333        0.00069277        0.00003141
      86         -0.773086        2.000000        0.00005456        0.00001587        0.00000064
      87         -0.772920        2.000000        0.00000281        0.00001136        0.00000011
      88         -0.771409        2.000000        0.00000014        0.00000082        0.00000003
      89         -0.769725        2.000000        0.00000450        0.00000526        0.00000007
      90         -0.769226        2.000000        0.00001085        0.00001683        0.00000042
      91         -0.767566        2.000000        0.00005146        0.00001484        0.00000109
      92         -0.766737        2.000000        0.00000194        0.00000064        0.00000003
      93         -0.755845        2.000000        0.00000037        0.00000024        0.00000002
      94         -0.752538        2.000000        0.00000151        0.00000103        0.00000009
      95         -0.747161        2.000000        0.00000576        0.00000772        0.00000002
      96         -0.736999        2.000000        0.00000004        0.00000007        0.00000001
      97         -0.726419        2.000000        0.00000000        0.00000000        0.00000000
      98         -0.719129        2.000000        0.00000000        0.00000000        0.00000000
      99         -0.696511        2.000000        0.00000000        0.00000000        0.00000000
     100         -0.460315        2.000000        0.00000020        0.00000029        0.00000001
     101         -0.427906        2.000000        0.00002954        0.00005435        0.00000079
     102         -0.424376        2.000000        0.00000124        0.00000590        0.00000004
     103         -0.405781        2.000000        0.00001879        0.00018094        0.00000477
     104         -0.401299        2.000000        0.00000003        0.00000009        0.00000000
     105         -0.398347        2.000000        0.00000184        0.00000794        0.00000016
     106         -0.398267        2.000000        0.00002002        0.00006996        0.00000162
     107         -0.397295        2.000000        0.00069726        0.00183073        0.00005272
     108         -0.395753        2.000000        0.00001668        0.00007991        0.00000106
     109         -0.395158        2.000000        0.00001417        0.00004612        0.00000106
     110         -0.394493        2.000000        0.00000231        0.00000792        0.00000013
     111         -0.394192        2.000000        0.00002985        0.00012247        0.00000185
     112         -0.393919        2.000000        0.00039496        0.00147019        0.00003061
     113         -0.393017        2.000000        0.00027175        0.00096447        0.00001849
     114         -0.391793        2.000000        0.00002904        0.00009893        0.00000165
     115         -0.389280        2.000000        0.00004389        0.00014353        0.00000355
     116         -0.388145        2.000000        0.00137734        0.00345739        0.00009954
     117         -0.387090        2.000000        0.00001219        0.00004853        0.00000172
     118         -0.386138        2.000000        0.00180908        0.00936748        0.00015918
     119         -0.385161        2.000000        0.00231142        0.01236359        0.00035808
     120         -0.384984        2.000000        0.00011217        0.00115233        0.00002582
     121         -0.383823        2.000000        0.00000117        0.00001907        0.00000033
     122         -0.383101        2.000000        0.00005518        0.00017088        0.00000453
     123         -0.383025        2.000000        0.00013098        0.00038827        0.00000953
     124         -0.381208        2.000000        0.00006208        0.00017706        0.00000496
     125         -0.380660        2.000000        0.00003698        0.00013081        0.00000330
     126         -0.380323        2.000000        0.00002915        0.00010481        0.00000233
     127         -0.379623        2.000000        0.00007865        0.00031860        0.00000614
     128         -0.379161        2.000000        0.00000234        0.00000838        0.00000024
     129         -0.378115        2.000000        0.00005099        0.00032325        0.00000577
     130         -0.377757        2.000000        0.00000293        0.00001633        0.00000043
     131         -0.377213        2.000000        0.00054266        0.00141838        0.00003434
     132         -0.376655        2.000000        0.00165140        0.00419734        0.00010827
     133         -0.376089        2.000000        0.00120268        0.00314644        0.00007867
     134         -0.375522        2.000000        0.00023830        0.00069550        0.00001777
     135         -0.373953        2.000000        0.00025833        0.00076482        0.00001826
     136         -0.373564        2.000000        0.00010128        0.00053410        0.00001238
     137         -0.372991        2.000000        0.00014743        0.00105169        0.00003225
     138         -0.372433        2.000000        0.00007343        0.00043892        0.00000845
     139         -0.372037        2.000000        0.00021044        0.00064148        0.00001438
     140         -0.371632        2.000000        0.00002611        0.00007656        0.00000391
     141         -0.371006        2.000000        0.00012242        0.00035060        0.00000766
     142         -0.369840        2.000000        0.00013601        0.00041267        0.00000972
     143         -0.369635        2.000000        0.00006113        0.00017162        0.00000406
     144         -0.369153        2.000000        0.00038984        0.00117997        0.00002459
     145         -0.369131        2.000000        0.02614947        0.07886416        0.00165454
     146         -0.368498        2.000000        0.00004516        0.00013259        0.00000295
     147         -0.367984        2.000000        0.00011488        0.00035132        0.00000701
     148         -0.367257        2.000000        0.00023235        0.00065001        0.00001449
     149         -0.366951        2.000000        0.00034722        0.00099268        0.00002135
     150         -0.366882        2.000000        0.00013915        0.00040569        0.00001028
     151         -0.366558        2.000000        0.00001779        0.00005689        0.00000120
     152         -0.366087        2.000000        0.00055661        0.00157289        0.00003402
     153         -0.365532        2.000000        0.00303237        0.00821638        0.00019207
     154         -0.365292        2.000000        0.00144209        0.00396682        0.00009097
     155         -0.364873        2.000000        0.00875436        0.02346300        0.00056239
     156         -0.364499        2.000000        0.00145603        0.00391297        0.00009299
     157         -0.364385        2.000000        0.03677498        0.09895451        0.00234804
     158         -0.363409        2.000000        0.00000079        0.00000608        0.00000007
     159         -0.362731        2.000000        0.00242604        0.00745275        0.00013973
     160         -0.361690        2.000000        0.00112101        0.00317799        0.00006678
     161         -0.361463        2.000000        0.02639833        0.07433325        0.00160914
     162         -0.360695        2.000000        0.00001478        0.00005382        0.00000128
     163         -0.359909        2.000000        0.01324939        0.03884240        0.00078191
     164         -0.358869        2.000000        0.01841237        0.05117595        0.00114585
     165         -0.358762        2.000000        0.00166808        0.00460035        0.00010332
     166         -0.358424        2.000000        0.01260499        0.03453880        0.00078967
     167         -0.357749        2.000000        0.05080709        0.13886093        0.00309514
     168         -0.357432        2.000000        0.01594600        0.04611348        0.00094554
     169         -0.356226        2.000000        0.00098759        0.00269027        0.00006136
     170         -0.355206        2.000000        0.00076405        0.00225246        0.00004467
     171         -0.354151        2.000000        0.00035827        0.00105379        0.00002447
     172         -0.353675        2.000000        0.00126885        0.00388251        0.00007947
     173         -0.353241        2.000000        0.00015159        0.00046055        0.00000931
     174         -0.352384        2.000000        0.00062757        0.00203520        0.00003451
     175         -0.349281        2.000000        0.00056130        0.00167305        0.00004371
     176         -0.348101        2.000000        0.00004257        0.00013762        0.00000282
     177         -0.347056        2.000000        0.00045912        0.00133198        0.00003615
     178         -0.346421        2.000000        0.00000865        0.00005440        0.00000144
     179         -0.346099        2.000000        0.00002675        0.00007939        0.00000254
     180         -0.344626        2.000000        0.00000022        0.00000118        0.00000002
     181         -0.344227        2.000000        0.00002288        0.00007463        0.00000105
     182         -0.344158        2.000000        0.00000669        0.00002088        0.00000056
     183         -0.343279        2.000000        0.00001067        0.00003398        0.00000103
     184         -0.342186        2.000000        0.00044280        0.00160561        0.00004532
     185         -0.341638        2.000000        0.00000127        0.00000537        0.00000015
     186         -0.341223        2.000000        0.00008944        0.00040702        0.00001073
     187         -0.341051        2.000000        0.00001029        0.00003448        0.00000083
     188         -0.340810        2.000000        0.00005431        0.00023924        0.00000637
     189         -0.340344        2.000000        0.00000792        0.00002846        0.00000076
     190         -0.340103        2.000000        0.00016251        0.00046986        0.00001126
     191         -0.339538        2.000000        0.00000312        0.00000988        0.00000021
     192         -0.338904        2.000000        0.00000039        0.00000270        0.00000008
     193         -0.338737        2.000000        0.00005025        0.00012815        0.00000405
     194         -0.337951        2.000000        0.00019011        0.00342193        0.00009299
     195         -0.337180        2.000000        0.00013659        0.00077503        0.00002136
     196         -0.336960        2.000000        0.00597474        0.02451343        0.00068977
     197         -0.336163        2.000000        0.00187570        0.00557857        0.00016390
     198         -0.335733        2.000000        0.00124639        0.00356662        0.00010469
     199         -0.334956        2.000000        0.00000581        0.00002416        0.00000054
     200         -0.333834        2.000000        0.00005884        0.00026094        0.00000721
     201         -0.331670        2.000000        0.00000106        0.00001290        0.00000020
     202         -0.330715        2.000000        0.00023715        0.00079816        0.00001936
     203         -0.327469        2.000000        0.00000170        0.00000886        0.00000036
     204         -0.326924        2.000000        0.00001155        0.00004310        0.00000118
     205         -0.319799        2.000000        0.00000017        0.00000337        0.00000003
     206         -0.319625        2.000000        0.00000117        0.00000606        0.00000010
     207         -0.318771        2.000000        0.00005239        0.00033942        0.00000422
     208         -0.318487        2.000000        0.00000004        0.00000018        0.00000000
     209         -0.318151        2.000000        0.00000110        0.00000349        0.00000010
     210         -0.317254        2.000000        0.00000003        0.00000013        0.00000000
     211         -0.316615        2.000000        0.00000002        0.00000008        0.00000000
     212         -0.316317        2.000000        0.00001810        0.00007451        0.00000130
     213         -0.315885        2.000000        0.00000062        0.00000275        0.00000006
     214         -0.315512        2.000000        0.00000083        0.00000299        0.00000008
     215         -0.314742        2.000000        0.00000138        0.00000536        0.00000012
     216         -0.314240        2.000000        0.00000003        0.00000014        0.00000000
     217         -0.313093        2.000000        0.00000064        0.00000185        0.00000005
     218         -0.312538        2.000000        0.00000022        0.00000207        0.00000003
     219         -0.312396        2.000000        0.00000171        0.00000768        0.00000018
     220         -0.312037        2.000000        0.00000014        0.00000150        0.00000002
     221         -0.310598        2.000000        0.00000037        0.00000150        0.00000004
     222         -0.310221        2.000000        0.00000009        0.00000076        0.00000002
     223         -0.309408        2.000000        0.00000019        0.00000072        0.00000002
     224         -0.309395        2.000000        0.00000100        0.00000470        0.00000010
     225         -0.309234        2.000000        0.00000004        0.00000070        0.00000001
     226         -0.308381        2.000000        0.00001944        0.00008892        0.00000151
     227         -0.308250        2.000000        0.00040452        0.00259756        0.00003193
     228         -0.308097        2.000000        0.00000821        0.00005959        0.00000060
     229         -0.307179        2.000000        0.00000819        0.00004023        0.00000053
     230         -0.305966        2.000000        0.00001588        0.00007829        0.00000119
     231         -0.305190        2.000000        0.00016930        0.00072349        0.00000669
     232         -0.305170        2.000000        0.00002161        0.00010554        0.00000075
     233         -0.303881        2.000000        0.00004452        0.00019707        0.00000178
     234         -0.303186        2.000000        0.00000021        0.00000108        0.00000001
     235         -0.302644        2.000000        0.00000049        0.00000334        0.00000007
     236         -0.302137        2.000000        0.00000275        0.00001599        0.00000022
     237         -0.301410        2.000000        0.00000232        0.00001031        0.00000010
     238         -0.301270        2.000000        0.00000069        0.00000465        0.00000007
     239         -0.300504        2.000000        0.00004454        0.00016263        0.00000160
     240         -0.300347        2.000000        0.00000222        0.00001361        0.00000035
     241         -0.300010        2.000000        0.00000075        0.00000303        0.00000007
     242         -0.298878        2.000000        0.00000051        0.00000354        0.00000002
     243         -0.298505        2.000000        0.00000076        0.00000986        0.00000004
     244         -0.297847        2.000000        0.00000159        0.00000994        0.00000015
     245         -0.297156        2.000000        0.00000161        0.00001692        0.00000015
     246         -0.297046        2.000000        0.00000079        0.00000473        0.00000006
     247         -0.296671        2.000000        0.00000120        0.00001310        0.00000007
     248         -0.296618        2.000000        0.00000144        0.00000619        0.00000009
     249         -0.295969        2.000000        0.00001705        0.00008656        0.00000132
     250         -0.295348        2.000000        0.00002511        0.00010964        0.00000167
     251         -0.295087        2.000000        0.00000034        0.00000148        0.00000002
     252         -0.294369        2.000000        0.00000147        0.00000551        0.00000010
     253         -0.294183        2.000000        0.00000058        0.00000286        0.00000004
     254         -0.293640        2.000000        0.00000046        0.00000368        0.00000002
     255         -0.293246        2.000000        0.00000043        0.00000199        0.00000003
     256         -0.292577        2.000000        0.00000077        0.00000389        0.00000007
     257         -0.291994        2.000000        0.00000545        0.00002396        0.00000062
     258         -0.291705        2.000000        0.00000182        0.00000970        0.00000015
     259         -0.290928        2.000000        0.00001335        0.00006974        0.00000098
     260         -0.290306        2.000000        0.00001509        0.00012495        0.00000129
     261         -0.289901        2.000000        0.00006586        0.00069632        0.00000610
     262         -0.289451        2.000000        0.00002041        0.00011614        0.00000169
     263         -0.289043        2.000000        0.00000849        0.00009453        0.00000081
     264         -0.288015        2.000000        0.00000206        0.00002937        0.00000010
     265         -0.287861        2.000000        0.00001008        0.00010614        0.00000048
     266         -0.286936        2.000000        0.00000016        0.00000073        0.00000003
     267         -0.286667        2.000000        0.00000123        0.00000902        0.00000005
     268         -0.286302        2.000000        0.00000054        0.00000507        0.00000009
     269         -0.285607        2.000000        0.00000063        0.00000442        0.00000008
     270         -0.285328        2.000000        0.00000085        0.00001541        0.00000021
     271         -0.285085        2.000000        0.00000207        0.00001585        0.00000030
     272         -0.284841        2.000000        0.00000323        0.00002524        0.00000033
     273         -0.284131        2.000000        0.00000014        0.00000502        0.00000004
     274         -0.283572        2.000000        0.00005241        0.00038732        0.00000604
     275         -0.283249        2.000000        0.00001915        0.00016479        0.00000258
     276         -0.283050        2.000000        0.00003030        0.00024585        0.00000392
     277         -0.282957        2.000000        0.00000094        0.00001163        0.00000017
     278         -0.282638        2.000000        0.00001471        0.00010945        0.00000165
     279         -0.282393        2.000000        0.00053035        0.00410109        0.00006285
     280         -0.282190        2.000000        0.00005996        0.00045113        0.00000726
     281         -0.281812        2.000000        0.00000094        0.00001063        0.00000018
     282         -0.281718        2.000000        0.00000713        0.00007993        0.00000127
     283         -0.281529        2.000000        0.00000035        0.00000735        0.00000003
     284         -0.281304        2.000000        0.00000680        0.00004025        0.00000044
     285         -0.281056        2.000000        0.00000434        0.00004828        0.00000041
     286         -0.280948        2.000000        0.00001028        0.00009457        0.00000142
     287         -0.280843        2.000000        0.00007200        0.00081179        0.00001094
     288         -0.280780        2.000000        0.00000038        0.00000212        0.00000005
     289         -0.280282        2.000000        0.00000584        0.00005592        0.00000102
     290         -0.279956        2.000000        0.00001417        0.00013898        0.00000221
     291         -0.279807        2.000000        0.00000373        0.00003733        0.00000052
     292         -0.279686        2.000000        0.00007837        0.00086460        0.00001156
     293         -0.279589        2.000000        0.00000626        0.00002453        0.00000026
     294         -0.279495        2.000000        0.00009957        0.00127857        0.00001747
     295         -0.279217        2.000000        0.00014037        0.00085272        0.00001352
     296         -0.279093        2.000000        0.00155793        0.01034607        0.00017127
     297         -0.278951        2.000000        0.00019061        0.00122523        0.00001965
     298         -0.278592        2.000000        0.00014489        0.00178362        0.00002330
     299         -0.278433        2.000000        0.00000586        0.00004916        0.00000099
     300         -0.278210        2.000000        0.00007875        0.00066163        0.00000873
     301         -0.278135        2.000000        0.00000041        0.00000294        0.00000003
     302         -0.278031        2.000000        0.00001376        0.00013253        0.00000208
     303         -0.277650        2.000000        0.00006363        0.00065043        0.00000759
     304         -0.277312        2.000000        0.00001877        0.00015469        0.00000153
     305         -0.276990        2.000000        0.00034402        0.00272988        0.00003140
     306         -0.276609        2.000000        0.00004757        0.00037014        0.00000475
     307         -0.276405        2.000000        0.00024503        0.00196520        0.00002008