# Projected DOS for list 34 of 3 atoms, at iteration step i = 0, E(Fermi) =    -0.060510 a.u.
#     MO Eigenvalue [a.u.]      Occupation                 s                 p                 d
       1         -0.895259        2.000000        0.00000000        0.00000000        0.00000000
       2         -0.868125        2.000000        0.00000000        0.00000000        0.00000000
       3         -0.864615        2.000000        0.00000000        0.00000000        0.00000000
       4         -0.857993        2.000000        0.00000104        0.00000068        0.00000003
       5         -0.853826        2.000000        0.00012507        0.00005399        0.00000058
       6         -0.850378        2.000000        0.00000005        0.00000010        0.00000000
       7         -0.848222        2.000000        0.00000020        0.00000055        0.00000000
       8         -0.847335        2.000000        0.00000132        0.00002363        0.00000012
       9         -0.842977        2.000000        0.00003284        0.00000245        0.00000008
      10         -0.841504        2.000000        0.01154363        0.00091169        0.00002650
      11         -0.840654        2.000000        0.01246084        0.00157491        0.00003485
      12         -0.839688        2.000000        0.00256884        0.00138284        0.00000878
      13         -0.839172        2.000000        0.00013654        0.00063801        0.00000500
      14         -0.838522        2.000000        0.01007471        0.00441634        0.00006417
      15         -0.837015        2.000000        0.00046216        0.00014989        0.00000059
      16         -0.832753        2.000000        0.00451064        0.00075698        0.00000860
      17         -0.832000        2.000000        0.01287563        0.00169865        0.00002667
      18         -0.831644        2.000000        0.00769823        0.00109272        0.00001623
      19         -0.830027        2.000000        0.00000254        0.00000792        0.00000009
      20         -0.829447        2.000000        0.04903963        0.00803452        0.00009570
      21         -0.828640        2.000000        0.12853582        0.02236996        0.00022730
      22         -0.828147        2.000000        0.00035072        0.00013575        0.00000104
      23         -0.827394        2.000000        0.00705376        0.00122168        0.00001300
      24         -0.826637        2.000000        0.06290444        0.01037970        0.00010808
      25         -0.825864        2.000000        0.00031985        0.00019585        0.00000124
      26         -0.825007        2.000000        0.01591241        0.00294760        0.00002374
      27         -0.824149        2.000000        0.00165447        0.00030347        0.00000249
      28         -0.823003        2.000000        0.00903729        0.00177397        0.00001316
      29         -0.821982        2.000000        0.00519543        0.00106369        0.00000872
      30         -0.820560        2.000000        0.00028180        0.00005553        0.00000049
      31         -0.820223        2.000000        0.00197285        0.00044917        0.00000292
      32         -0.820029        2.000000        0.00258680        0.00097102        0.00000939
      33         -0.819390        2.000000        0.00001028        0.00000551        0.00000011
      34         -0.818664        2.000000        0.00032391        0.00019453        0.00000104
      35         -0.817548        2.000000        0.01003647        0.00276563        0.00001557
      36         -0.816472        2.000000        0.09584950        0.02896856        0.00015940
      37         -0.815444        2.000000        0.08481305        0.02508956        0.00013193
      38         -0.814805        2.000000        0.02010656        0.00601544        0.00002580
      39         -0.814124        2.000000        0.02139484        0.00684556        0.00003568
      40         -0.813968        2.000000        0.00167113        0.00051171        0.00000270
      41         -0.813053        2.000000        0.00060442        0.00010001        0.00000213
      42         -0.812601        2.000000        0.00522770        0.00155925        0.00000694
      43         -0.811948        2.000000        0.00178274        0.00068531        0.00000672
      44         -0.811687        2.000000        0.00003751        0.00009803        0.00000141
      45         -0.810574        2.000000        0.00018255        0.00006516        0.00000051
      46         -0.809310        2.000000        0.00019931        0.00008532        0.00000015
      47         -0.808268        2.000000        0.00050057        0.00021651        0.00000077
      48         -0.807324        2.000000        0.00461738        0.00249092        0.00000422
      49         -0.806602        2.000000        0.00236995        0.00226837        0.00000729
      50         -0.806376        2.000000        0.00136125        0.00191285        0.00000965
      51         -0.806147        2.000000        0.01076036        0.00760633        0.00001636
      52         -0.804835        2.000000        0.00017203        0.00015448        0.00000035
      53         -0.804321        2.000000        0.01950610        0.00930116        0.00002883
      54         -0.803943        2.000000        0.00028247        0.00017701        0.00000075
      55         -0.803401        2.000000        0.00507751        0.00304397        0.00001777
      56         -0.802648        2.000000        0.06718915        0.03431890        0.00009625
      57         -0.801912        2.000000        0.00978898        0.00620792        0.00003159
      58         -0.801342        2.000000        0.00020011        0.00032733        0.00000377
      59         -0.800594        2.000000        0.00018413        0.00022864        0.00000185
      60         -0.799945        2.000000        0.00009490        0.00005297        0.00000021
      61         -0.799254        2.000000        0.00005012        0.00003322        0.00000016
      62         -0.798331        2.000000        0.00000662        0.00001099        0.00000007
      63         -0.797356        2.000000        0.00003639        0.00002522        0.00000016
      64         -0.795713        2.000000        0.00038850        0.00025214        0.00000126
      65         -0.795144        2.000000        0.00050604        0.00032237        0.00000020
      66         -0.794508        2.000000        0.00171866        0.00116168        0.00000077
      67         -0.793501        2.000000        0.00080623        0.00067817        0.00000124
      68         -0.792888        2.000000        0.00045471        0.00033123        0.00000015
      69         -0.792771        2.000000        0.00403524        0.00281696        0.00000130
      70         -0.792166        2.000000        0.00019529        0.00013243        0.00000021
      71         -0.791795        2.000000        0.00091757        0.00064135        0.00000022
      72         -0.790466        2.000000        0.01470738        0.01189541        0.00000982
      73         -0.789691        2.000000        0.00002519        0.00003382        0.00000008
      74         -0.789018        2.000000        0.00056898        0.00052707        0.00000068
      75         -0.788284        2.000000        0.00002362        0.00001623        0.00000001
      76         -0.787044        2.000000        0.01191508        0.01072772        0.00000305
      77         -0.785765        2.000000        0.00041443        0.00035161        0.00000004
      78         -0.783215        2.000000        0.00001288        0.00001178        0.00000000
      79         -0.782853        2.000000        0.00000062        0.00000069        0.00000000
      80         -0.782388        2.000000        0.00002380        0.00002352        0.00000001
      81         -0.781821        2.000000        0.00000124        0.00000134        0.00000000
      82         -0.780108        2.000000        0.00075689        0.00088979        0.00000195
      83         -0.778906        2.000000        0.00000019        0.00000035        0.00000000
      84         -0.778076        2.000000        0.00000008        0.00000014        0.00000000
      85         -0.775317        2.000000        0.00008680        0.00007900        0.00000050
      86         -0.773086        2.000000        0.00000463        0.00000438        0.00000001
      87         -0.772920        2.000000        0.00000174        0.00000152        0.00000000
      88         -0.771409        2.000000        0.00003882        0.00004911        0.00000004
      89         -0.769725        2.000000        0.00012117        0.00028833        0.00000277
      90         -0.769226        2.000000        0.00000118        0.00000419        0.00000003
      91         -0.767566        2.000000        0.00004486        0.00008196        0.00000070
      92         -0.766737        2.000000        0.00000065        0.00000100        0.00000001
      93         -0.755845        2.000000        0.00000007        0.00000011        0.00000000
      94         -0.752538        2.000000        0.00000014        0.00000029        0.00000000
      95         -0.747161        2.000000        0.00000000        0.00000000        0.00000000
      96         -0.736999        2.000000        0.00000000        0.00000001        0.00000000
      97         -0.726419        2.000000        0.00000000        0.00000000        0.00000000
      98         -0.719129        2.000000        0.00000000        0.00000000        0.00000000
      99         -0.696511        2.000000        0.00000000        0.00000000        0.00000000
     100         -0.460315        2.000000        0.00000000        0.00000000        0.00000000
     101         -0.427906        2.000000        0.00000000        0.00000000        0.00000000
     102         -0.424376        2.000000        0.00000000        0.00000000        0.00000000
     103         -0.405781        2.000000        0.00000001        0.00000010        0.00000000
     104         -0.401299        2.000000        0.00001091        0.00008305        0.00000063
     105         -0.398347        2.000000        0.00001758        0.00007535        0.00000121
     106         -0.398267        2.000000        0.00001802        0.00006814        0.00000095
     107         -0.397295        2.000000        0.00000075        0.00000281        0.00000003
     108         -0.395753        2.000000        0.00003022        0.00012007        0.00000121
     109         -0.395158        2.000000        0.00004161        0.00010965        0.00000288
     110         -0.394493        2.000000        0.00026940        0.00077108        0.00001764
     111         -0.394192        2.000000        0.00004564        0.00013795        0.00000200
     112         -0.393919        2.000000        0.00000182        0.00000975        0.00000010
     113         -0.393017        2.000000        0.00000480        0.00001593        0.00000021
     114         -0.391793        2.000000        0.00036321        0.00101918        0.00002733
     115         -0.389280        2.000000        0.00373980        0.01850378        0.00013084
     116         -0.388145        2.000000        0.00000444        0.00003211        0.00000018
     117         -0.387090        2.000000        0.00063657        0.00281921        0.00002417
     118         -0.386138        2.000000        0.00000049        0.00000244        0.00000003
     119         -0.385161        2.000000        0.00006881        0.00024617        0.00000309
     120         -0.384984        2.000000        0.00006053        0.00031887        0.00000601
     121         -0.383823        2.000000        0.00005257        0.00021992        0.00000238
     122         -0.383101        2.000000        0.00000148        0.00000873        0.00000006
     123         -0.383025        2.000000        0.00006786        0.00021465        0.00000385
     124         -0.381208        2.000000        0.00002449        0.00012092        0.00000093
     125         -0.380660        2.000000        0.00004425        0.00044608        0.00000314
     126         -0.380323        2.000000        0.00015823        0.00134367        0.00001074
     127         -0.379623        2.000000        0.00000446        0.00011215        0.00000014
     128         -0.379161        2.000000        0.00008309        0.00035270        0.00000424
     129         -0.378115        2.000000        0.00031461        0.00098318        0.00002131
     130         -0.377757        2.000000        0.00086580        0.00246554        0.00005371
     131         -0.377213        2.000000        0.00016768        0.00053238        0.00000918
     132         -0.376655        2.000000        0.00007561        0.00016590        0.00000751
     133         -0.376089        2.000000        0.00217142        0.00571425        0.00015486
     134         -0.375522        2.000000        0.00316967        0.00860293        0.00022646
     135         -0.373953        2.000000        0.00327528        0.00945839        0.00019031
     136         -0.373564        2.000000        0.00112822        0.00323608        0.00007419
     137         -0.372991        2.000000        0.00127589        0.00406989        0.00007205
     138         -0.372433        2.000000        0.00002046        0.00013335        0.00000110
     139         -0.372037        2.000000        0.00020434        0.00065793        0.00001486
     140         -0.371632        2.000000        0.00004436        0.00031881        0.00000334
     141         -0.371006        2.000000        0.00000183        0.00000561        0.00000034
     142         -0.369840        2.000000        0.00008633        0.00023984        0.00000562
     143         -0.369635        2.000000        0.00109075        0.00294031        0.00007449
     144         -0.369153        2.000000        0.00005842        0.00015231        0.00000405
     145         -0.369131        2.000000        0.00046292        0.00188801        0.00003419
     146         -0.368498        2.000000        0.00056501        0.00165682        0.00003923
     147         -0.367984        2.000000        0.00054884        0.00147524        0.00003799
     148         -0.367257        2.000000        0.00034268        0.00101288        0.00002314
     149         -0.366951        2.000000        0.00434636        0.01267213        0.00028446
     150         -0.366882        2.000000        0.00010446        0.00029386        0.00000680
     151         -0.366558        2.000000        0.00055846        0.00178723        0.00003468
     152         -0.366087        2.000000        0.00126053        0.00347040        0.00007807
     153         -0.365532        2.000000        0.01031949        0.02959590        0.00065840
     154         -0.365292        2.000000        0.07583384        0.21304355        0.00503080
     155         -0.364873        2.000000        0.00082822        0.00241482        0.00005240
     156         -0.364499        2.000000        0.00767270        0.02191383        0.00050285
     157         -0.364385        2.000000        0.00128050        0.00358599        0.00008237
     158         -0.363409        2.000000        0.00221936        0.00620487        0.00015608
     159         -0.362731        2.000000        0.00079209        0.00228284        0.00005049
     160         -0.361690        2.000000        0.00009870        0.00028236        0.00000588
     161         -0.361463        2.000000        0.00001966        0.00005686        0.00000135
     162         -0.360695        2.000000        0.01311493        0.03521780        0.00088843
     163         -0.359909        2.000000        0.00020666        0.00060560        0.00001330
     164         -0.358869        2.000000        0.00234489        0.00726166        0.00015881
     165         -0.358762        2.000000        0.00010005        0.00030846        0.00000673
     166         -0.358424        2.000000        0.00011233        0.00053053        0.00000509
     167         -0.357749        2.000000        0.00045803        0.00138014        0.00002983
     168         -0.357432        2.000000        0.00000128        0.00001112        0.00000012
     169         -0.356226        2.000000        0.06090521        0.17397648        0.00384990
     170         -0.355206        2.000000        0.00007573        0.00028804        0.00000435
     171         -0.354151        2.000000        0.00082936        0.00231621        0.00005828
     172         -0.353675        2.000000        0.00002112        0.00007398        0.00000113
     173         -0.353241        2.000000        0.00000715        0.00003880        0.00000033
     174         -0.352384        2.000000        0.00000107        0.00001484        0.00000004
     175         -0.349281        2.000000        0.00211801        0.00982764        0.00010650
     176         -0.348101        2.000000        0.00001873        0.00007384        0.00000122
     177         -0.347056        2.000000        0.00030611        0.00161226        0.00001437
     178         -0.346421        2.000000        0.00010048        0.00045691        0.00000418
     179         -0.346099        2.000000        0.00012333        0.00033911        0.00000795
     180         -0.344626        2.000000        0.00030819        0.00100917        0.00001996
     181         -0.344227        2.000000        0.00000238        0.00000692        0.00000015
     182         -0.344158        2.000000        0.00002561        0.00015449        0.00000135
     183         -0.343279        2.000000        0.00045653        0.00173460        0.00002922
     184         -0.342186        2.000000        0.00064240        0.00329903        0.00004542
     185         -0.341638        2.000000        0.00001466        0.00005801        0.00000015
     186         -0.341223        2.000000        0.00015466        0.00039265        0.00001014
     187         -0.341051        2.000000        0.00000121        0.00000297        0.00000008
     188         -0.340810        2.000000        0.00013539        0.00042430        0.00000794
     189         -0.340344        2.000000        0.00021356        0.00090010        0.00001816
     190         -0.340103        2.000000        0.00000657        0.00003843        0.00000046
     191         -0.339538        2.000000        0.00020256        0.00111451        0.00001366
     192         -0.338904        2.000000        0.00039117        0.00113510        0.00002569
     193         -0.338737        2.000000        0.00004923        0.00014985        0.00000252
     194         -0.337951        2.000000        0.00002115        0.00009901        0.00000037
     195         -0.337180        2.000000        0.00000068        0.00000294        0.00000001
     196         -0.336960        2.000000        0.00001121        0.00007373        0.00000030
     197         -0.336163        2.000000        0.00000796        0.00003459        0.00000042
     198         -0.335733        2.000000        0.00001108        0.00003949        0.00000060
     199         -0.334956        2.000000        0.00000153        0.00000732        0.00000011
     200         -0.333834        2.000000        0.00001585        0.00008812        0.00000055
     201         -0.331670        2.000000        0.00000582        0.00002303        0.00000016
     202         -0.330715        2.000000        0.00001619        0.00006636        0.00000064
     203         -0.327469        2.000000        0.00001855        0.00010302        0.00000056
     204         -0.326924        2.000000        0.00000013        0.00000079        0.00000001
     205         -0.319799        2.000000        0.00010139        0.00054621        0.00000319
     206         -0.319625        2.000000        0.00000009        0.00000051        0.00000000
     207         -0.318771        2.000000        0.00000362        0.00001459        0.00000013
     208         -0.318487        2.000000        0.00004170        0.00024757        0.00000209
     209         -0.318151        2.000000        0.00173780        0.00984613        0.00006769
     210         -0.317254        2.000000        0.00001375        0.00008563        0.00000146
     211         -0.316615        2.000000        0.00005338        0.00025399        0.00000249
     212         -0.316317        2.000000        0.00000007        0.00000041        0.00000000
     213         -0.315885        2.000000        0.00144516        0.00778797        0.00005459
     214         -0.315512        2.000000        0.00129773        0.00706957        0.00004542
     215         -0.314742        2.000000        0.00249563        0.01379549        0.00009344
     216         -0.314240        2.000000        0.00016707        0.00085060        0.00000826
     217         -0.313093        2.000000        0.00058022        0.00304537        0.00002016
     218         -0.312538        2.000000        0.00200072        0.00985636        0.00006990
     219         -0.312396        2.000000        0.00262075        0.01178671        0.00007297
     220         -0.312037        2.000000        0.00037328        0.00225499        0.00001750
     221         -0.310598        2.000000        0.00040188        0.00212456        0.00001674
     222         -0.310221        2.000000        0.00129648        0.00558000        0.00004902
     223         -0.309408        2.000000        0.00030760        0.00131150        0.00001041
     224         -0.309395        2.000000        0.00172976        0.00772416        0.00004617
     225         -0.309234        2.000000        0.00182318        0.00833548        0.00006009
     226         -0.308381        2.000000        0.00073727        0.00282956        0.00002125
     227         -0.308250        2.000000        0.00003882        0.00016445        0.00000111
     228         -0.308097        2.000000        0.00014611        0.00059883        0.00000489
     229         -0.307179        2.000000        0.00098962        0.00410094        0.00002581
     230         -0.305966        2.000000        0.04404749        0.18041450        0.00128669
     231         -0.305190        2.000000        0.00312132        0.01388822        0.00008788
     232         -0.305170        2.000000        0.00075411        0.00340337        0.00002115
     233         -0.303881        2.000000        0.00010092        0.00053040        0.00000277
     234         -0.303186        2.000000        0.00003303        0.00005668        0.00000095
     235         -0.302644        2.000000        0.00006777        0.00049473        0.00000097
     236         -0.302137        2.000000        0.00221426        0.00635175        0.00005449
     237         -0.301410        2.000000        0.00040159        0.00235231        0.00001279
     238         -0.301270        2.000000        0.00006994        0.00023940        0.00000090
     239         -0.300504        2.000000        0.00162788        0.00764165        0.00004551
     240         -0.300347        2.000000        0.00024842        0.00074544        0.00000991
     241         -0.300010        2.000000        0.00000210        0.00000779        0.00000008
     242         -0.298878        2.000000        0.00009556        0.00027270        0.00000160
     243         -0.298505        2.000000        0.00025743        0.00131794        0.00000683
     244         -0.297847        2.000000        0.00012388        0.00088882        0.00000563
     245         -0.297156        2.000000        0.00009151        0.00054801        0.00000306
     246         -0.297046        2.000000        0.00049406        0.00162185        0.00000856
     247         -0.296671        2.000000        0.00005638        0.00025486        0.00000180
     248         -0.296618        2.000000        0.00003899        0.00025036        0.00000103
     249         -0.295969        2.000000        0.00123897        0.00710649        0.00003285
     250         -0.295348        2.000000        0.00137533        0.00832831        0.00004008
     251         -0.295087        2.000000        0.00002366        0.00013896        0.00000085
     252         -0.294369        2.000000        0.00027733        0.00156423        0.00000718
     253         -0.294183        2.000000        0.00003181        0.00007099        0.00000124
     254         -0.293640        2.000000        0.00013808        0.00096637        0.00000508
     255         -0.293246        2.000000        0.00017289        0.00080565        0.00000315
     256         -0.292577        2.000000        0.00011094        0.00037003        0.00000125
     257         -0.291994        2.000000        0.00035649        0.00188602        0.00001466
     258         -0.291705        2.000000        0.00004089        0.00031774        0.00000403
     259         -0.290928        2.000000        0.00003300        0.00010112        0.00000284
     260         -0.290306        2.000000        0.00085871        0.00433596        0.00003036
     261         -0.289901        2.000000        0.00052647        0.00195212        0.00000907
     262         -0.289451        2.000000        0.00001576        0.00021338        0.00000177
     263         -0.289043        2.000000        0.00015280        0.00063330        0.00000732
     264         -0.288015        2.000000        0.00134839        0.00575990        0.00003038
     265         -0.287861        2.000000        0.00685980        0.03588418        0.00020449
     266         -0.286936        2.000000        0.00016087        0.00031416        0.00000433
     267         -0.286667        2.000000        0.00026433        0.00097259        0.00000431
     268         -0.286302        2.000000        0.00014260        0.00050827        0.00000579
     269         -0.285607        2.000000        0.00027415        0.00106083        0.00000576
     270         -0.285328        2.000000        0.00045413        0.00177939        0.00000699
     271         -0.285085        2.000000        0.00022454        0.00088466        0.00000558
     272         -0.284841        2.000000        0.00000766        0.00004751        0.00000017
     273         -0.284131        2.000000        0.00004704        0.00024937        0.00000231
     274         -0.283572        2.000000        0.00013286        0.00099239        0.00000335
     275         -0.283249        2.000000        0.00015520        0.00048753        0.00000264
     276         -0.283050        2.000000        0.00005129        0.00065844        0.00000144
     277         -0.282957        2.000000        0.00015756        0.00065156        0.00000250
     278         -0.282638        2.000000        0.00022640        0.00146540        0.00000625
     279         -0.282393        2.000000        0.00375829        0.02439708        0.00008476
     280         -0.282190        2.000000        0.00005263        0.00060652        0.00000144
     281         -0.281812        2.000000        0.00003818        0.00009080        0.00000108
     282         -0.281718        2.000000        0.00000888        0.00013218        0.00000060
     283         -0.281529        2.000000        0.00004620        0.00013987        0.00000078
     284         -0.281304        2.000000        0.00018978        0.00092483        0.00000269
     285         -0.281056        2.000000        0.00002745        0.00014203        0.00000043
     286         -0.280948        2.000000        0.00000076        0.00009230        0.00000087
     287         -0.280843        2.000000        0.00010934        0.00075474        0.00000236
     288         -0.280780        2.000000        0.00000843        0.00003922        0.00000034
     289         -0.280282        2.000000        0.00003080        0.00012124        0.00000046
     290         -0.279956        2.000000        0.00003268        0.00011326        0.00000193
     291         -0.279807        2.000000        0.00001258        0.00013320        0.00000065
     292         -0.279686        2.000000        0.00022158        0.00134323        0.00000488
     293         -0.279589        2.000000        0.00003001        0.00015861        0.00000053
     294         -0.279495        2.000000        0.00002089        0.00038070        0.00000162
     295         -0.279217        2.000000        0.00001304        0.00005508        0.00000038
     296         -0.279093        2.000000        0.00006675        0.00018237        0.00000113
     297         -0.278951        2.000000        0.00003210        0.00003730        0.00000036
     298         -0.278592        2.000000        0.00016974        0.00067511        0.00000127
     299         -0.278433        2.000000        0.00003468        0.00014416        0.00000218
     300         -0.278210        2.000000        0.00002622        0.00027919        0.00000021
     301         -0.278135        2.000000        0.00000571        0.00002188        0.00000046
     302         -0.278031        2.000000        0.00010806        0.00058541        0.00000231
     303         -0.277650        2.000000        0.00010577        0.00121875        0.00000403
     304         -0.277312        2.000000        0.00005298        0.00055868        0.00000196
     305         -0.276990        2.000000        0.00032812        0.00326734        0.00000344
     306         -0.276609        2.000000        0.00009667        0.00064932        0.00000208
     307         -0.276405        2.000000        0.00032568        0.00255617        0.00000230