# Projected DOS for list 48 of 3 atoms, at iteration step i = 0, E(Fermi) =    -0.060510 a.u.
#     MO Eigenvalue [a.u.]      Occupation                 s                 p                 d
       1         -0.895259        2.000000        0.00000005        0.00000012        0.00000000
       2         -0.868125        2.000000        0.00005456        0.00008925        0.00000026
       3         -0.864615        2.000000        0.00000646        0.00003637        0.00000013
       4         -0.857993        2.000000        0.00000004        0.00000005        0.00000000
       5         -0.853826        2.000000        0.00000026        0.00000043        0.00000000
       6         -0.850378        2.000000        0.00000004        0.00000044        0.00000000
       7         -0.848222        2.000000        0.00000171        0.00001407        0.00000001
       8         -0.847335        2.000000        0.00000186        0.00000119        0.00000001
       9         -0.842977        2.000000        0.00000106        0.00000028        0.00000000
      10         -0.841504        2.000000        0.00003954        0.00002762        0.00000004
      11         -0.840654        2.000000        0.00005604        0.00004497        0.00000011
      12         -0.839688        2.000000        0.00003595        0.00004488        0.00000027
      13         -0.839172        2.000000        0.00000230        0.00000682        0.00000001
      14         -0.838522        2.000000        0.00000148        0.00000260        0.00000000
      15         -0.837015        2.000000        0.00000505        0.00000564        0.00000003
      16         -0.832753        2.000000        0.00000383        0.00000280        0.00000001
      17         -0.832000        2.000000        0.00000659        0.00003065        0.00000005
      18         -0.831644        2.000000        0.00006195        0.00000599        0.00000013
      19         -0.830027        2.000000        0.00000757        0.00000685        0.00000002
      20         -0.829447        2.000000        0.00005317        0.00001130        0.00000009
      21         -0.828640        2.000000        0.00001970        0.00000636        0.00000004
      22         -0.828147        2.000000        0.00007743        0.00001774        0.00000016
      23         -0.827394        2.000000        0.00029319        0.00008289        0.00000063
      24         -0.826637        2.000000        0.00008904        0.00001463        0.00000026
      25         -0.825864        2.000000        0.00002701        0.00001966        0.00000023
      26         -0.825007        2.000000        0.00000125        0.00001197        0.00000003
      27         -0.824149        2.000000        0.00111345        0.00015871        0.00000247
      28         -0.823003        2.000000        0.00000186        0.00000955        0.00000001
      29         -0.821982        2.000000        0.00021879        0.00003195        0.00000066
      30         -0.820560        2.000000        0.00045032        0.00012006        0.00000040
      31         -0.820223        2.000000        0.00081178        0.00018318        0.00000092
      32         -0.820029        2.000000        0.00000842        0.00004973        0.00000028
      33         -0.819390        2.000000        0.00291268        0.00057718        0.00000523
      34         -0.818664        2.000000        0.00093941        0.00019113        0.00000164
      35         -0.817548        2.000000        0.00003995        0.00006020        0.00000015
      36         -0.816472        2.000000        0.00112731        0.00024261        0.00000181
      37         -0.815444        2.000000        0.00843078        0.00183281        0.00001416
      38         -0.814805        2.000000        0.00087623        0.00019203        0.00000144
      39         -0.814124        2.000000        0.16251480        0.03798896        0.00027455
      40         -0.813968        2.000000        0.38594812        0.09089106        0.00064992
      41         -0.813053        2.000000        0.00049132        0.00012974        0.00000074
      42         -0.812601        2.000000        0.00821504        0.00211093        0.00001291
      43         -0.811948        2.000000        0.00071444        0.00022693        0.00000105
      44         -0.811687        2.000000        0.00004119        0.00000999        0.00000007
      45         -0.810574        2.000000        0.00487578        0.00135848        0.00000699
      46         -0.809310        2.000000        0.11574669        0.03451498        0.00017829
      47         -0.808268        2.000000        0.00020839        0.00012727        0.00000025
      48         -0.807324        2.000000        0.00043795        0.00009344        0.00000179
      49         -0.806602        2.000000        0.00034538        0.00013513        0.00000046
      50         -0.806376        2.000000        0.00000931        0.00001195        0.00000006
      51         -0.806147        2.000000        0.00005706        0.00005143        0.00000034
      52         -0.804835        2.000000        0.00003173        0.00005955        0.00000018
      53         -0.804321        2.000000        0.00036224        0.00012362        0.00000105
      54         -0.803943        2.000000        0.00008285        0.00005202        0.00000010
      55         -0.803401        2.000000        0.00072511        0.00056283        0.00000102
      56         -0.802648        2.000000        0.00011221        0.00011823        0.00000041
      57         -0.801912        2.000000        0.00031443        0.00014750        0.00000048
      58         -0.801342        2.000000        0.00111881        0.00035995        0.00000298
      59         -0.800594        2.000000        0.00006132        0.00007201        0.00000035
      60         -0.799945        2.000000        0.00002841        0.00008158        0.00000039
      61         -0.799254        2.000000        0.00008098        0.00006626        0.00000015
      62         -0.798331        2.000000        0.00003830        0.00002540        0.00000003
      63         -0.797356        2.000000        0.00005895        0.00003912        0.00000077
      64         -0.795713        2.000000        0.00001214        0.00001377        0.00000075
      65         -0.795144        2.000000        0.00000700        0.00005371        0.00000141
      66         -0.794508        2.000000        0.00000987        0.00050895        0.00002176
      67         -0.793501        2.000000        0.00293440        0.00136544        0.00002646
      68         -0.792888        2.000000        0.00008680        0.00007337        0.00000143
      69         -0.792771        2.000000        0.00038057        0.00010810        0.00000396
      70         -0.792166        2.000000        0.00093824        0.00047951        0.00000635
      71         -0.791795        2.000000        0.00031701        0.00010658        0.00000115
      72         -0.790466        2.000000        0.00000410        0.00001086        0.00000006
      73         -0.789691        2.000000        0.03604363        0.01044923        0.00049532
      74         -0.789018        2.000000        0.00112534        0.00030671        0.00001538
      75         -0.788284        2.000000        0.00031114        0.00184005        0.00000129
      76         -0.787044        2.000000        0.00014964        0.00011773        0.00000044
      77         -0.785765        2.000000        0.00611279        0.00338697        0.00001629
      78         -0.783215        2.000000        0.00009856        0.00037141        0.00000487
      79         -0.782853        2.000000        0.00024996        0.00091273        0.00000600
      80         -0.782388        2.000000        0.00471747        0.00162053        0.00004966
      81         -0.781821        2.000000        0.00402009        0.00490261        0.00000463
      82         -0.780108        2.000000        0.00000960        0.00001264        0.00000032
      83         -0.778906        2.000000        0.00005782        0.00007425        0.00000007
      84         -0.778076        2.000000        0.00001567        0.00000525        0.00000012
      85         -0.775317        2.000000        0.00000705        0.00000364        0.00000017
      86         -0.773086        2.000000        0.00002905        0.00002398        0.00000092
      87         -0.772920        2.000000        0.00000476        0.00000886        0.00000042
      88         -0.771409        2.000000        0.00002265        0.00004267        0.00000037
      89         -0.769725        2.000000        0.00035079        0.00052107        0.00000096
      90         -0.769226        2.000000        0.00067902        0.00352309        0.00003429
      91         -0.767566        2.000000        0.00186400        0.00331748        0.00000799
      92         -0.766737        2.000000        0.00495863        0.00897964        0.00001018
      93         -0.755845        2.000000        0.00044585        0.00032210        0.00001198
      94         -0.752538        2.000000        0.00355459        0.00296704        0.00011063
      95         -0.747161        2.000000        0.00000007        0.00000006        0.00000000
      96         -0.736999        2.000000        0.00030138        0.00041253        0.00002262
      97         -0.726419        2.000000        0.00000214        0.00000380        0.00000009
      98         -0.719129        2.000000        0.00000024        0.00000042        0.00000002
      99         -0.696511        2.000000        0.00000001        0.00000002        0.00000000
     100         -0.460315        2.000000        0.00000003        0.00000008        0.00000000
     101         -0.427906        2.000000        0.00001513        0.00003963        0.00000029
     102         -0.424376        2.000000        0.00000305        0.00003037        0.00000005
     103         -0.405781        2.000000        0.00000000        0.00000006        0.00000000
     104         -0.401299        2.000000        0.00000001        0.00000005        0.00000000
     105         -0.398347        2.000000        0.00000001        0.00000005        0.00000000
     106         -0.398267        2.000000        0.00000045        0.00000173        0.00000004
     107         -0.397295        2.000000        0.00000003        0.00000013        0.00000000
     108         -0.395753        2.000000        0.00000042        0.00000162        0.00000001
     109         -0.395158        2.000000        0.00000034        0.00000117        0.00000003
     110         -0.394493        2.000000        0.00002415        0.00007527        0.00000190
     111         -0.394192        2.000000        0.00000078        0.00000417        0.00000012
     112         -0.393919        2.000000        0.00000033        0.00000162        0.00000004
     113         -0.393017        2.000000        0.00000368        0.00001359        0.00000032
     114         -0.391793        2.000000        0.00000929        0.00002982        0.00000059
     115         -0.389280        2.000000        0.00000007        0.00000019        0.00000000
     116         -0.388145        2.000000        0.00000008        0.00000048        0.00000001
     117         -0.387090        2.000000        0.00000020        0.00000138        0.00000004
     118         -0.386138        2.000000        0.00000593        0.00002617        0.00000042
     119         -0.385161        2.000000        0.00000098        0.00000612        0.00000007
     120         -0.384984        2.000000        0.00000030        0.00000229        0.00000004
     121         -0.383823        2.000000        0.00000002        0.00000053        0.00000001
     122         -0.383101        2.000000        0.00000016        0.00000150        0.00000001
     123         -0.383025        2.000000        0.00000522        0.00002087        0.00000045
     124         -0.381208        2.000000        0.00000212        0.00000924        0.00000018
     125         -0.380660        2.000000        0.00000597        0.00002178        0.00000046
     126         -0.380323        2.000000        0.00000410        0.00001488        0.00000022
     127         -0.379623        2.000000        0.00000409        0.00002349        0.00000053
     128         -0.379161        2.000000        0.00000031        0.00000208        0.00000002
     129         -0.378115        2.000000        0.00000086        0.00000607        0.00000016
     130         -0.377757        2.000000        0.00000163        0.00000501        0.00000014
     131         -0.377213        2.000000        0.00000049        0.00000235        0.00000007
     132         -0.376655        2.000000        0.00000741        0.00002635        0.00000045
     133         -0.376089        2.000000        0.00001588        0.00004878        0.00000110
     134         -0.375522        2.000000        0.00000235        0.00000814        0.00000013
     135         -0.373953        2.000000        0.00000348        0.00001165        0.00000026
     136         -0.373564        2.000000        0.00002078        0.00006472        0.00000137
     137         -0.372991        2.000000        0.00000676        0.00004028        0.00000033
     138         -0.372433        2.000000        0.00000384        0.00002204        0.00000019
     139         -0.372037        2.000000        0.00000085        0.00000414        0.00000005
     140         -0.371632        2.000000        0.00000154        0.00001199        0.00000016
     141         -0.371006        2.000000        0.00000651        0.00003204        0.00000043
     142         -0.369840        2.000000        0.00000065        0.00000463        0.00000007
     143         -0.369635        2.000000        0.00003060        0.00010037        0.00000238
     144         -0.369153        2.000000        0.00000065        0.00000265        0.00000008
     145         -0.369131        2.000000        0.00006584        0.00026023        0.00000327
     146         -0.368498        2.000000        0.00000368        0.00001235        0.00000023
     147         -0.367984        2.000000        0.00000245        0.00001064        0.00000025
     148         -0.367257        2.000000        0.00000092        0.00000555        0.00000013
     149         -0.366951        2.000000        0.00001053        0.00003512        0.00000095
     150         -0.366882        2.000000        0.00008257        0.00032247        0.00000585
     151         -0.366558        2.000000        0.00003986        0.00014441        0.00000343
     152         -0.366087        2.000000        0.00004418        0.00015518        0.00000389
     153         -0.365532        2.000000        0.00003967        0.00014492        0.00000240
     154         -0.365292        2.000000        0.00006539        0.00026873        0.00000296
     155         -0.364873        2.000000        0.00000196        0.00001615        0.00000017
     156         -0.364499        2.000000        0.00007660        0.00025725        0.00000425
     157         -0.364385        2.000000        0.00016461        0.00064738        0.00000896
     158         -0.363409        2.000000        0.00006693        0.00024649        0.00000378
     159         -0.362731        2.000000        0.01715904        0.06349681        0.00084400
     160         -0.361690        2.000000        0.00003479        0.00015223        0.00000150
     161         -0.361463        2.000000        0.01218266        0.04496264        0.00063494
     162         -0.360695        2.000000        0.00022475        0.00086218        0.00001093
     163         -0.359909        2.000000        0.00038791        0.00136637        0.00001801
     164         -0.358869        2.000000        0.00169065        0.00600721        0.00009049
     165         -0.358762        2.000000        0.00010163        0.00038269        0.00000526
     166         -0.358424        2.000000        0.00123025        0.00414299        0.00006803
     167         -0.357749        2.000000        0.00000257        0.00002502        0.00000014
     168         -0.357432        2.000000        0.00000668        0.00003823        0.00000033
     169         -0.356226        2.000000        0.00000249        0.00001523        0.00000047
     170         -0.355206        2.000000        0.00001836        0.00005722        0.00000129
     171         -0.354151        2.000000        0.00002297        0.00007361        0.00000258
     172         -0.353675        2.000000        0.00543816        0.01622364        0.00039992
     173         -0.353241        2.000000        0.00005192        0.00016654        0.00000354
     174         -0.352384        2.000000        0.00001387        0.00006603        0.00000159
     175         -0.349281        2.000000        0.01352156        0.04187794        0.00084201
     176         -0.348101        2.000000        0.01252127        0.03719971        0.00084566
     177         -0.347056        2.000000        0.07542695        0.22786829        0.00501722
     178         -0.346421        2.000000        0.00018351        0.00060039        0.00001666
     179         -0.346099        2.000000        0.01524450        0.04744989        0.00097833
     180         -0.344626        2.000000        0.00044538        0.00138909        0.00002814
     181         -0.344227        2.000000        0.00004425        0.00016966        0.00000233
     182         -0.344158        2.000000        0.00028278        0.00088788        0.00001794
     183         -0.343279        2.000000        0.00001839        0.00005630        0.00000155
     184         -0.342186        2.000000        0.00051790        0.00150870        0.00004006
     185         -0.341638        2.000000        0.00003683        0.00013116        0.00000242
     186         -0.341223        2.000000        0.00000480        0.00002863        0.00000089
     187         -0.341051        2.000000        0.00003743        0.00015623        0.00000537
     188         -0.340810        2.000000        0.00001458        0.00004501        0.00000104
     189         -0.340344        2.000000        0.00001411        0.00005249        0.00000057
     190         -0.340103        2.000000        0.01082985        0.03559365        0.00057161
     191         -0.339538        2.000000        0.00030671        0.00111636        0.00001677
     192         -0.338904        2.000000        0.00000582        0.00002671        0.00000063
     193         -0.338737        2.000000        0.00029053        0.00168169        0.00002716
     194         -0.337951        2.000000        0.00054897        0.00260457        0.00006996
     195         -0.337180        2.000000        0.00898746        0.02654755        0.00065989
     196         -0.336960        2.000000        0.00377535        0.01126101        0.00028557
     197         -0.336163        2.000000        0.00039191        0.00157443        0.00004025
     198         -0.335733        2.000000        0.00015813        0.00087365        0.00001756
     199         -0.334956        2.000000        0.00242255        0.00742285        0.00016454
     200         -0.333834        2.000000        0.02616500        0.07911697        0.00219041
     201         -0.331670        2.000000        0.00218979        0.00768159        0.00020475
     202         -0.330715        2.000000        0.00020855        0.00139428        0.00002032
     203         -0.327469        2.000000        0.00310204        0.01155716        0.00031125
     204         -0.326924        2.000000        0.00698754        0.03968493        0.00099997
     205         -0.319799        2.000000        0.00003922        0.00011709        0.00000310
     206         -0.319625        2.000000        0.00014049        0.00041718        0.00001091
     207         -0.318771        2.000000        0.01388902        0.04146689        0.00106282
     208         -0.318487        2.000000        0.00000732        0.00002171        0.00000055
     209         -0.318151        2.000000        0.00000080        0.00000288        0.00000007
     210         -0.317254        2.000000        0.00000257        0.00000770        0.00000019
     211         -0.316615        2.000000        0.00000082        0.00000259        0.00000006
     212         -0.316317        2.000000        0.00007485        0.00066021        0.00000812
     213         -0.315885        2.000000        0.00000108        0.00000376        0.00000009
     214         -0.315512        2.000000        0.00000001        0.00000006        0.00000000
     215         -0.314742        2.000000        0.00000000        0.00000008        0.00000000
     216         -0.314240        2.000000        0.00000007        0.00000032        0.00000001
     217         -0.313093        2.000000        0.00000073        0.00000268        0.00000006
     218         -0.312538        2.000000        0.00000038        0.00000139        0.00000003
     219         -0.312396        2.000000        0.00000040        0.00000152        0.00000003
     220         -0.312037        2.000000        0.00000030        0.00000105        0.00000002
     221         -0.310598        2.000000        0.00000051        0.00000159        0.00000004
     222         -0.310221        2.000000        0.00000002        0.00000035        0.00000000
     223         -0.309408        2.000000        0.00000013        0.00000050        0.00000001
     224         -0.309395        2.000000        0.00000037        0.00000117        0.00000003
     225         -0.309234        2.000000        0.00000028        0.00000092        0.00000002
     226         -0.308381        2.000000        0.00001305        0.00005441        0.00000102
     227         -0.308250        2.000000        0.00028925        0.00137536        0.00002139
     228         -0.308097        2.000000        0.00000361        0.00002221        0.00000025
     229         -0.307179        2.000000        0.00000080        0.00000532        0.00000009
     230         -0.305966        2.000000        0.00002469        0.00006952        0.00000223
     231         -0.305190        2.000000        0.00053592        0.00146684        0.00005154
     232         -0.305170        2.000000        0.00004081        0.00018593        0.00000098
     233         -0.303881        2.000000        0.00137506        0.00343260        0.00015556
     234         -0.303186        2.000000        0.00000039        0.00000113        0.00000004
     235         -0.302644        2.000000        0.00000046        0.00000193        0.00000003
     236         -0.302137        2.000000        0.00000342        0.00001309        0.00000025
     237         -0.301410        2.000000        0.00000117        0.00000385        0.00000007
     238         -0.301270        2.000000        0.00000186        0.00000740        0.00000012
     239         -0.300504        2.000000        0.00005324        0.00015885        0.00000343
     240         -0.300347        2.000000        0.00000654        0.00002429        0.00000058
     241         -0.300010        2.000000        0.00156148        0.00438062        0.00021512
     242         -0.298878        2.000000        0.00000034        0.00000196        0.00000001
     243         -0.298505        2.000000        0.00000055        0.00000492        0.00000002
     244         -0.297847        2.000000        0.00000073        0.00000378        0.00000003
     245         -0.297156        2.000000        0.00000090        0.00000523        0.00000004
     246         -0.297046        2.000000        0.00000004        0.00000061        0.00000000
     247         -0.296671        2.000000        0.00000034        0.00000259        0.00000002
     248         -0.296618        2.000000        0.00000016        0.00000068        0.00000000
     249         -0.295969        2.000000        0.00000412        0.00001945        0.00000015
     250         -0.295348        2.000000        0.00000437        0.00001739        0.00000012
     251         -0.295087        2.000000        0.00000002        0.00000005        0.00000000
     252         -0.294369        2.000000        0.00000031        0.00000084        0.00000000
     253         -0.294183        2.000000        0.00000004        0.00000021        0.00000001
     254         -0.293640        2.000000        0.00000013        0.00000073        0.00000000
     255         -0.293246        2.000000        0.00000017        0.00000045        0.00000000
     256         -0.292577        2.000000        0.00000010        0.00000046        0.00000000
     257         -0.291994        2.000000        0.00000061        0.00000410        0.00000005
     258         -0.291705        2.000000        0.00000005        0.00000033        0.00000001
     259         -0.290928        2.000000        0.00001244        0.00003743        0.00000021
     260         -0.290306        2.000000        0.00002328        0.00007988        0.00000050
     261         -0.289901        2.000000        0.00008671        0.00026121        0.00000157
     262         -0.289451        2.000000        0.00004195        0.00014031        0.00000087
     263         -0.289043        2.000000        0.00001559        0.00004883        0.00000031
     264         -0.288015        2.000000        0.00000088        0.00000481        0.00000008
     265         -0.287861        2.000000        0.00000667        0.00004128        0.00000039
     266         -0.286936        2.000000        0.00000021        0.00000088        0.00000001
     267         -0.286667        2.000000        0.00000017        0.00000126        0.00000001
     268         -0.286302        2.000000        0.00000181        0.00000662        0.00000006
     269         -0.285607        2.000000        0.00000001        0.00000010        0.00000000
     270         -0.285328        2.000000        0.00000074        0.00000370        0.00000002
     271         -0.285085        2.000000        0.00000011        0.00000083        0.00000001
     272         -0.284841        2.000000        0.00000041        0.00000125        0.00000000
     273         -0.284131        2.000000        0.00000013        0.00000107        0.00000001
     274         -0.283572        2.000000        0.00000037        0.00000096        0.00000001
     275         -0.283249        2.000000        0.00000056        0.00000147        0.00000001
     276         -0.283050        2.000000        0.00000034        0.00000099        0.00000002
     277         -0.282957        2.000000        0.00000014        0.00000067        0.00000000
     278         -0.282638        2.000000        0.00000022        0.00000082        0.00000001
     279         -0.282393        2.000000        0.00000665        0.00002186        0.00000031
     280         -0.282190        2.000000        0.00000138        0.00000700        0.00000006
     281         -0.281812        2.000000        0.00000001        0.00000005        0.00000000
     282         -0.281718        2.000000        0.00000035        0.00000139        0.00000001
     283         -0.281529        2.000000        0.00000111        0.00000366        0.00000003
     284         -0.281304        2.000000        0.00000125        0.00000321        0.00000002
     285         -0.281056        2.000000        0.00000366        0.00001724        0.00000007
     286         -0.280948        2.000000        0.00000093        0.00000287        0.00000004
     287         -0.280843        2.000000        0.00001026        0.00005470        0.00000022
     288         -0.280780        2.000000        0.00000165        0.00000847        0.00000002
     289         -0.280282        2.000000        0.00000463        0.00002042        0.00000013
     290         -0.279956        2.000000        0.00000141        0.00000684        0.00000006
     291         -0.279807        2.000000        0.00000432        0.00001802        0.00000015
     292         -0.279686        2.000000        0.00006120        0.00025867        0.00000217
     293         -0.279589        2.000000        0.00000245        0.00000821        0.00000010
     294         -0.279495        2.000000        0.00003039        0.00012384        0.00000146
     295         -0.279217        2.000000        0.00000961        0.00006719        0.00000024
     296         -0.279093        2.000000        0.00012574        0.00081378        0.00000313
     297         -0.278951        2.000000        0.00002425        0.00014392        0.00000060
     298         -0.278592        2.000000        0.00001143        0.00004499        0.00000089
     299         -0.278433        2.000000        0.00000111        0.00000649        0.00000002
     300         -0.278210        2.000000        0.00000512        0.00002818        0.00000029
     301         -0.278135        2.000000        0.00000089        0.00000536        0.00000001
     302         -0.278031        2.000000        0.00000358        0.00002212        0.00000009
     303         -0.277650        2.000000        0.00000305        0.00000926        0.00000029
     304         -0.277312        2.000000        0.00000158        0.00000304        0.00000006
     305         -0.276990        2.000000        0.00001483        0.00005009        0.00000124
     306         -0.276609        2.000000        0.00000348        0.00001912        0.00000022
     307         -0.276405        2.000000        0.00001543        0.00005692        0.00000119