# Projected DOS for list 23 of 3 atoms, at iteration step i = 0, E(Fermi) =    -0.060510 a.u.
#     MO Eigenvalue [a.u.]      Occupation                 s                 p                 d
       1         -0.895259        2.000000        0.00000000        0.00000000        0.00000000
       2         -0.868125        2.000000        0.00000001        0.00000001        0.00000000
       3         -0.864615        2.000000        0.00000000        0.00000000        0.00000000
       4         -0.857993        2.000000        0.00000092        0.00000107        0.00000002
       5         -0.853826        2.000000        0.00001664        0.00001391        0.00000005
       6         -0.850378        2.000000        0.00000025        0.00000036        0.00000001
       7         -0.848222        2.000000        0.00000251        0.00000095        0.00000001
       8         -0.847335        2.000000        0.00072756        0.00097741        0.00000302
       9         -0.842977        2.000000        0.00000668        0.00000432        0.00000002
      10         -0.841504        2.000000        0.00007886        0.00002865        0.00000023
      11         -0.840654        2.000000        0.00000206        0.00001011        0.00000012
      12         -0.839688        2.000000        0.00012966        0.00002936        0.00000020
      13         -0.839172        2.000000        0.00009064        0.00030326        0.00000080
      14         -0.838522        2.000000        0.00003764        0.00001367        0.00000010
      15         -0.837015        2.000000        0.00009750        0.00024117        0.00000094
      16         -0.832753        2.000000        0.00011442        0.00003410        0.00000026
      17         -0.832000        2.000000        0.00047351        0.00018277        0.00000053
      18         -0.831644        2.000000        0.00051659        0.00028715        0.00000161
      19         -0.830027        2.000000        0.00069028        0.00043071        0.00000185
      20         -0.829447        2.000000        0.00000816        0.00006776        0.00000068
      21         -0.828640        2.000000        0.00001671        0.00005968        0.00000069
      22         -0.828147        2.000000        0.00061502        0.00033192        0.00000247
      23         -0.827394        2.000000        0.00003432        0.00007198        0.00000044
      24         -0.826637        2.000000        0.00003286        0.00004899        0.00000117
      25         -0.825864        2.000000        0.00001633        0.00003767        0.00000045
      26         -0.825007        2.000000        0.00007294        0.00003753        0.00000038
      27         -0.824149        2.000000        0.00139584        0.00056315        0.00000671
      28         -0.823003        2.000000        0.00003202        0.00006332        0.00000105
      29         -0.821982        2.000000        0.00067678        0.00044829        0.00000348
      30         -0.820560        2.000000        0.00622278        0.00234767        0.00001971
      31         -0.820223        2.000000        0.00407456        0.00152983        0.00001345
      32         -0.820029        2.000000        0.00313287        0.00115632        0.00003064
      33         -0.819390        2.000000        0.00000601        0.00003243        0.00000181
      34         -0.818664        2.000000        0.00011694        0.00030582        0.00000216
      35         -0.817548        2.000000        0.00041212        0.00042588        0.00000609
      36         -0.816472        2.000000        0.00009678        0.00010268        0.00000029
      37         -0.815444        2.000000        0.00023853        0.00012832        0.00000584
      38         -0.814805        2.000000        0.00004649        0.00001377        0.00000031
      39         -0.814124        2.000000        0.00007974        0.00035172        0.00000318
      40         -0.813968        2.000000        0.00004282        0.00033923        0.00000335
      41         -0.813053        2.000000        0.00040569        0.00006032        0.00000230
      42         -0.812601        2.000000        0.00221135        0.00041670        0.00001068
      43         -0.811948        2.000000        0.00216058        0.00061514        0.00001915
      44         -0.811687        2.000000        0.00008281        0.00055191        0.00001641
      45         -0.810574        2.000000        0.00475947        0.00078129        0.00002045
      46         -0.809310        2.000000        0.00017740        0.00007833        0.00000075
      47         -0.808268        2.000000        0.00237220        0.00034882        0.00000751
      48         -0.807324        2.000000        0.04492613        0.00735100        0.00016660
      49         -0.806602        2.000000        0.00127215        0.00069193        0.00001615
      50         -0.806376        2.000000        0.00106343        0.00028243        0.00000202
      51         -0.806147        2.000000        0.00042751        0.00023581        0.00000074
      52         -0.804835        2.000000        0.00037327        0.00020509        0.00000248
      53         -0.804321        2.000000        0.00011111        0.00009856        0.00000034
      54         -0.803943        2.000000        0.00027786        0.00039885        0.00000368
      55         -0.803401        2.000000        0.00814133        0.00134384        0.00002278
      56         -0.802648        2.000000        0.00091003        0.00024100        0.00000427
      57         -0.801912        2.000000        0.00006988        0.00009626        0.00000091
      58         -0.801342        2.000000        0.00782136        0.00102508        0.00002970
      59         -0.800594        2.000000        0.00169121        0.00046898        0.00000663
      60         -0.799945        2.000000        0.00018588        0.00006096        0.00000028
      61         -0.799254        2.000000        0.00166582        0.00023586        0.00000732
      62         -0.798331        2.000000        0.00023060        0.00004495        0.00000040
      63         -0.797356        2.000000        0.00173742        0.00024871        0.00000591
      64         -0.795713        2.000000        0.00454870        0.00081974        0.00000731
      65         -0.795144        2.000000        0.00031124        0.00012040        0.00000667
      66         -0.794508        2.000000        0.05359288        0.00942958        0.00009422
      67         -0.793501        2.000000        0.00451744        0.00109747        0.00000684
      68         -0.792888        2.000000        0.00002334        0.00007768        0.00000153
      69         -0.792771        2.000000        0.00949766        0.00144225        0.00005148
      70         -0.792166        2.000000        0.00165665        0.00044505        0.00000281
      71         -0.791795        2.000000        0.00133122        0.00022494        0.00000559
      72         -0.790466        2.000000        0.00009259        0.00024204        0.00000520
      73         -0.789691        2.000000        0.04020964        0.01227023        0.00012687
      74         -0.789018        2.000000        0.00005664        0.00026144        0.00000163
      75         -0.788284        2.000000        0.00024136        0.00010461        0.00000068
      76         -0.787044        2.000000        0.00161601        0.00040305        0.00000277
      77         -0.785765        2.000000        0.00321993        0.00082483        0.00000631
      78         -0.783215        2.000000        0.02154734        0.00625178        0.00003645
      79         -0.782853        2.000000        0.00073824        0.00022977        0.00000114
      80         -0.782388        2.000000        0.41391057        0.12434329        0.00068857
      81         -0.781821        2.000000        0.01466461        0.00394139        0.00002777
      82         -0.780108        2.000000        0.01060006        0.00355719        0.00001628
      83         -0.778906        2.000000        0.00005330        0.00001642        0.00000011
      84         -0.778076        2.000000        0.00277163        0.00102249        0.00000430
      85         -0.775317        2.000000        0.00769960        0.00327464        0.00001297
      86         -0.773086        2.000000        0.07427852        0.03239153        0.00013796
      87         -0.772920        2.000000        0.00417322        0.00183708        0.00000783
      88         -0.771409        2.000000        0.00857015        0.00280035        0.00003843
      89         -0.769725        2.000000        0.00000471        0.00000252        0.00000011
      90         -0.769226        2.000000        0.00000338        0.00000116        0.00000006
      91         -0.767566        2.000000        0.00000119        0.00000219        0.00000000
      92         -0.766737        2.000000        0.00008842        0.00003780        0.00000014
      93         -0.755845        2.000000        0.00000121        0.00000078        0.00000001
      94         -0.752538        2.000000        0.00000162        0.00000326        0.00000000
      95         -0.747161        2.000000        0.00000000        0.00000000        0.00000000
      96         -0.736999        2.000000        0.00000006        0.00000029        0.00000000
      97         -0.726419        2.000000        0.00000010        0.00000024        0.00000000
      98         -0.719129        2.000000        0.00000000        0.00000000        0.00000000
      99         -0.696511        2.000000        0.00000000        0.00000000        0.00000000
     100         -0.460315        2.000000        0.00000000        0.00000000        0.00000000
     101         -0.427906        2.000000        0.00000000        0.00000001        0.00000000
     102         -0.424376        2.000000        0.00000000        0.00000000        0.00000000
     103         -0.405781        2.000000        0.00000003        0.00000017        0.00000000
     104         -0.401299        2.000000        0.00000124        0.00002085        0.00000122
     105         -0.398347        2.000000        0.00000115        0.00000151        0.00000029
     106         -0.398267        2.000000        0.00002180        0.00016845        0.00000163
     107         -0.397295        2.000000        0.00000593        0.00003826        0.00000026
     108         -0.395753        2.000000        0.00004876        0.00023657        0.00000198
     109         -0.395158        2.000000        0.00030042        0.00145230        0.00002203
     110         -0.394493        2.000000        0.00007270        0.00026537        0.00000502
     111         -0.394192        2.000000        0.00042275        0.00153400        0.00003678
     112         -0.393919        2.000000        0.00006357        0.00043372        0.00000199
     113         -0.393017        2.000000        0.00004798        0.00019211        0.00000303
     114         -0.391793        2.000000        0.00010010        0.00025381        0.00000713
     115         -0.389280        2.000000        0.00000318        0.00002836        0.00000044
     116         -0.388145        2.000000        0.00007067        0.00021089        0.00000493
     117         -0.387090        2.000000        0.00010774        0.00054437        0.00001032
     118         -0.386138        2.000000        0.00003631        0.00014336        0.00000310
     119         -0.385161        2.000000        0.00001837        0.00006199        0.00000137
     120         -0.384984        2.000000        0.00000875        0.00002927        0.00000044
     121         -0.383823        2.000000        0.00000906        0.00010975        0.00000087
     122         -0.383101        2.000000        0.00002695        0.00008878        0.00000228
     123         -0.383025        2.000000        0.00053207        0.00200958        0.00003064
     124         -0.381208        2.000000        0.00088392        0.00354789        0.00006855
     125         -0.380660        2.000000        0.00093849        0.00352539        0.00006931
     126         -0.380323        2.000000        0.00006870        0.00016406        0.00000324
     127         -0.379623        2.000000        0.00576696        0.01433681        0.00041133
     128         -0.379161        2.000000        0.00008168        0.00047686        0.00000716
     129         -0.378115        2.000000        0.00010626        0.00032347        0.00000798
     130         -0.377757        2.000000        0.00024603        0.00105355        0.00001948
     131         -0.377213        2.000000        0.00009998        0.00047610        0.00000947
     132         -0.376655        2.000000        0.00004690        0.00010368        0.00000308
     133         -0.376089        2.000000        0.00002935        0.00022920        0.00000167
     134         -0.375522        2.000000        0.00004582        0.00009509        0.00000274
     135         -0.373953        2.000000        0.00000915        0.00004139        0.00000039
     136         -0.373564        2.000000        0.00010362        0.00045726        0.00001164
     137         -0.372991        2.000000        0.00011953        0.00067317        0.00000613
     138         -0.372433        2.000000        0.00000124        0.00000381        0.00000021
     139         -0.372037        2.000000        0.00004178        0.00021230        0.00000373
     140         -0.371632        2.000000        0.00007488        0.00063262        0.00000963
     141         -0.371006        2.000000        0.00002276        0.00036160        0.00001097
     142         -0.369840        2.000000        0.00005641        0.00034266        0.00000415
     143         -0.369635        2.000000        0.00038109        0.00252905        0.00003226
     144         -0.369153        2.000000        0.00000931        0.00004206        0.00000063
     145         -0.369131        2.000000        0.00002064        0.00005475        0.00000123
     146         -0.368498        2.000000        0.00001481        0.00004606        0.00000144
     147         -0.367984        2.000000        0.00020619        0.00059622        0.00001516
     148         -0.367257        2.000000        0.00006687        0.00032830        0.00000344
     149         -0.366951        2.000000        0.00008261        0.00044043        0.00000414
     150         -0.366882        2.000000        0.00112122        0.00292891        0.00008155
     151         -0.366558        2.000000        0.00034301        0.00099790        0.00002565
     152         -0.366087        2.000000        0.00024130        0.00042982        0.00002110
     153         -0.365532        2.000000        0.00007871        0.00020913        0.00000639
     154         -0.365292        2.000000        0.00000078        0.00000464        0.00000004
     155         -0.364873        2.000000        0.00014940        0.00057690        0.00001084
     156         -0.364499        2.000000        0.00001459        0.00007874        0.00000246
     157         -0.364385        2.000000        0.00000930        0.00009403        0.00000338
     158         -0.363409        2.000000        0.00006014        0.00018143        0.00000383
     159         -0.362731        2.000000        0.00003390        0.00010160        0.00000202
     160         -0.361690        2.000000        0.00063749        0.00173140        0.00004796
     161         -0.361463        2.000000        0.00002355        0.00006462        0.00000244
     162         -0.360695        2.000000        0.00002471        0.00007766        0.00000293
     163         -0.359909        2.000000        0.00043795        0.00154168        0.00001797
     164         -0.358869        2.000000        0.00009136        0.00028989        0.00000771
     165         -0.358762        2.000000        0.00000172        0.00000806        0.00000028
     166         -0.358424        2.000000        0.00055276        0.00171631        0.00003244
     167         -0.357749        2.000000        0.00000720        0.00002199        0.00000050
     168         -0.357432        2.000000        0.00046103        0.00157111        0.00001693
     169         -0.356226        2.000000        0.00030168        0.00090357        0.00002013
     170         -0.355206        2.000000        0.00000622        0.00005878        0.00000055
     171         -0.354151        2.000000        0.00004983        0.00030471        0.00000766
     172         -0.353675        2.000000        0.00004967        0.00014105        0.00000360
     173         -0.353241        2.000000        0.00007163        0.00020269        0.00000513
     174         -0.352384        2.000000        0.00002648        0.00007159        0.00000217
     175         -0.349281        2.000000        0.00052165        0.00165947        0.00003465
     176         -0.348101        2.000000        0.00008553        0.00041242        0.00000761
     177         -0.347056        2.000000        0.00066190        0.00169224        0.00004918
     178         -0.346421        2.000000        0.00245449        0.00949255        0.00018779
     179         -0.346099        2.000000        0.00039368        0.00101059        0.00002861
     180         -0.344626        2.000000        0.00002913        0.00009940        0.00000192
     181         -0.344227        2.000000        0.00008645        0.00021621        0.00000616
     182         -0.344158        2.000000        0.00011275        0.00031917        0.00000823
     183         -0.343279        2.000000        0.00002389        0.00007663        0.00000175
     184         -0.342186        2.000000        0.00006815        0.00040908        0.00000718
     185         -0.341638        2.000000        0.00098052        0.00263513        0.00006381
     186         -0.341223        2.000000        0.00032556        0.00089214        0.00001940
     187         -0.341051        2.000000        0.00000016        0.00000551        0.00000005
     188         -0.340810        2.000000        0.00010982        0.00030174        0.00000757
     189         -0.340344        2.000000        0.00001467        0.00003054        0.00000118
     190         -0.340103        2.000000        0.00653993        0.01691609        0.00044687
     191         -0.339538        2.000000        0.00550857        0.01455977        0.00036386
     192         -0.338904        2.000000        0.00128267        0.00330127        0.00008567
     193         -0.338737        2.000000        0.05631457        0.14426756        0.00385273
     194         -0.337951        2.000000        0.03743435        0.09752064        0.00254099
     195         -0.337180        2.000000        0.00078210        0.00201945        0.00005200
     196         -0.336960        2.000000        0.02955059        0.07818632        0.00197737
     197         -0.336163        2.000000        0.00921859        0.02480937        0.00061617
     198         -0.335733        2.000000        0.01861831        0.05025521        0.00123819
     199         -0.334956        2.000000        0.00022795        0.00064159        0.00001603
     200         -0.333834        2.000000        0.00137083        0.00353391        0.00008826
     201         -0.331670        2.000000        0.01537543        0.04988077        0.00095186
     202         -0.330715        2.000000        0.00053781        0.00163742        0.00003369
     203         -0.327469        2.000000        0.00054736        0.00154039        0.00003343
     204         -0.326924        2.000000        0.02588878        0.07323239        0.00156103
     205         -0.319799        2.000000        0.00000214        0.00000608        0.00000016
     206         -0.319625        2.000000        0.00000294        0.00000906        0.00000017
     207         -0.318771        2.000000        0.00000429        0.00001791        0.00000016
     208         -0.318487        2.000000        0.00000113        0.00000202        0.00000010
     209         -0.318151        2.000000        0.00000977        0.00002683        0.00000060
     210         -0.317254        2.000000        0.00000098        0.00000325        0.00000009
     211         -0.316615        2.000000        0.00000113        0.00000429        0.00000007
     212         -0.316317        2.000000        0.00053291        0.00169133        0.00002583
     213         -0.315885        2.000000        0.00000165        0.00000443        0.00000010
     214         -0.315512        2.000000        0.00000005        0.00000325        0.00000002
     215         -0.314742        2.000000        0.00000317        0.00001059        0.00000021
     216         -0.314240        2.000000        0.00000080        0.00000379        0.00000005
     217         -0.313093        2.000000        0.00001649        0.00006129        0.00000099
     218         -0.312538        2.000000        0.00000273        0.00001518        0.00000022
     219         -0.312396        2.000000        0.00000333        0.00000914        0.00000048
     220         -0.312037        2.000000        0.00001819        0.00005896        0.00000115
     221         -0.310598        2.000000        0.00000079        0.00000459        0.00000011
     222         -0.310221        2.000000        0.00000072        0.00000381        0.00000008
     223         -0.309408        2.000000        0.00000067        0.00000302        0.00000005
     224         -0.309395        2.000000        0.00000282        0.00000888        0.00000016
     225         -0.309234        2.000000        0.00000265        0.00000663        0.00000013
     226         -0.308381        2.000000        0.00000357        0.00002401        0.00000017
     227         -0.308250        2.000000        0.00003320        0.00010614        0.00000104
     228         -0.308097        2.000000        0.00000308        0.00000985        0.00000012
     229         -0.307179        2.000000        0.00000768        0.00003514        0.00000059
     230         -0.305966        2.000000        0.00007464        0.00018631        0.00000407
     231         -0.305190        2.000000        0.00000771        0.00002997        0.00000074
     232         -0.305170        2.000000        0.00000026        0.00000235        0.00000006
     233         -0.303881        2.000000        0.00002792        0.00010422        0.00000135
     234         -0.303186        2.000000        0.00000033        0.00000166        0.00000004
     235         -0.302644        2.000000        0.00000868        0.00006165        0.00000056
     236         -0.302137        2.000000        0.00000861        0.00007326        0.00000038
     237         -0.301410        2.000000        0.00000298        0.00001409        0.00000049
     238         -0.301270        2.000000        0.00001006        0.00008000        0.00000058
     239         -0.300504        2.000000        0.00003171        0.00015735        0.00000273
     240         -0.300347        2.000000        0.00008454        0.00043060        0.00000696
     241         -0.300010        2.000000        0.00000231        0.00000938        0.00000008
     242         -0.298878        2.000000        0.00000137        0.00000540        0.00000009
     243         -0.298505        2.000000        0.00001373        0.00008251        0.00000039
     244         -0.297847        2.000000        0.00000225        0.00002405        0.00000007
     245         -0.297156        2.000000        0.00000533        0.00004373        0.00000025
     246         -0.297046        2.000000        0.00000833        0.00005010        0.00000044
     247         -0.296671        2.000000        0.00000404        0.00002267        0.00000026
     248         -0.296618        2.000000        0.00000463        0.00001790        0.00000036
     249         -0.295969        2.000000        0.00001528        0.00011522        0.00000243
     250         -0.295348        2.000000        0.00007561        0.00040131        0.00000633
     251         -0.295087        2.000000        0.00000077        0.00000294        0.00000004
     252         -0.294369        2.000000        0.00000403        0.00002074        0.00000031
     253         -0.294183        2.000000        0.00000939        0.00005225        0.00000038
     254         -0.293640        2.000000        0.00000547        0.00004387        0.00000052
     255         -0.293246        2.000000        0.00000214        0.00001428        0.00000036
     256         -0.292577        2.000000        0.00000138        0.00000659        0.00000012
     257         -0.291994        2.000000        0.00000877        0.00005697        0.00000047
     258         -0.291705        2.000000        0.00000193        0.00000559        0.00000014
     259         -0.290928        2.000000        0.00001970        0.00008743        0.00000087
     260         -0.290306        2.000000        0.00002637        0.00014700        0.00000263
     261         -0.289901        2.000000        0.00002261        0.00022134        0.00000140
     262         -0.289451        2.000000        0.00002053        0.00007116        0.00000195
     263         -0.289043        2.000000        0.00000206        0.00001611        0.00000016
     264         -0.288015        2.000000        0.00000363        0.00004125        0.00000037
     265         -0.287861        2.000000        0.00001638        0.00009691        0.00000075
     266         -0.286936        2.000000        0.00000826        0.00002507        0.00000065
     267         -0.286667        2.000000        0.00000278        0.00002195        0.00000022
     268         -0.286302        2.000000        0.00000777        0.00002727        0.00000060
     269         -0.285607        2.000000        0.00001339        0.00006679        0.00000053
     270         -0.285328        2.000000        0.00001453        0.00006868        0.00000058
     271         -0.285085        2.000000        0.00000401        0.00000749        0.00000037
     272         -0.284841        2.000000        0.00002565        0.00010824        0.00000115
     273         -0.284131        2.000000        0.00000968        0.00004549        0.00000044
     274         -0.283572        2.000000        0.00004413        0.00015548        0.00000232
     275         -0.283249        2.000000        0.00004799        0.00019157        0.00000222
     276         -0.283050        2.000000        0.00004893        0.00018742        0.00000232
     277         -0.282957        2.000000        0.00000087        0.00000389        0.00000005
     278         -0.282638        2.000000        0.00005175        0.00021880        0.00000237
     279         -0.282393        2.000000        0.00133437        0.00540894        0.00006081
     280         -0.282190        2.000000        0.00000891        0.00002263        0.00000052
     281         -0.281812        2.000000        0.00000264        0.00001384        0.00000017
     282         -0.281718        2.000000        0.00003424        0.00014090        0.00000131
     283         -0.281529        2.000000        0.00013711        0.00062272        0.00000560
     284         -0.281304        2.000000        0.00021791        0.00096898        0.00000909
     285         -0.281056        2.000000        0.00010284        0.00045816        0.00000439
     286         -0.280948        2.000000        0.00001792        0.00007572        0.00000080
     287         -0.280843        2.000000        0.00000495        0.00002937        0.00000051
     288         -0.280780        2.000000        0.00002442        0.00011689        0.00000109
     289         -0.280282        2.000000        0.00009339        0.00042283        0.00000397
     290         -0.279956        2.000000        0.00001016        0.00005292        0.00000054
     291         -0.279807        2.000000        0.00009545        0.00040917        0.00000384
     292         -0.279686        2.000000        0.00087166        0.00376907        0.00003323
     293         -0.279589        2.000000        0.00005321        0.00022048        0.00000188
     294         -0.279495        2.000000        0.00026797        0.00118527        0.00001157
     295         -0.279217        2.000000        0.00001533        0.00006604        0.00000057
     296         -0.279093        2.000000        0.00048035        0.00209602        0.00002119
     297         -0.278951        2.000000        0.00006464        0.00028114        0.00000240
     298         -0.278592        2.000000        0.00005931        0.00026877        0.00000172
     299         -0.278433        2.000000        0.00001941        0.00008256        0.00000093
     300         -0.278210        2.000000        0.00002048        0.00008809        0.00000077
     301         -0.278135        2.000000        0.00000545        0.00002066        0.00000024
     302         -0.278031        2.000000        0.00000621        0.00002114        0.00000038
     303         -0.277650        2.000000        0.00016452        0.00069309        0.00000570
     304         -0.277312        2.000000        0.00012201        0.00052712        0.00000532
     305         -0.276990        2.000000        0.00035604        0.00147277        0.00001260
     306         -0.276609        2.000000        0.00000824        0.00002980        0.00000049
     307         -0.276405        2.000000        0.00028921        0.00120608        0.00001012