# Projected DOS for list 83 of 3 atoms, at iteration step i = 0, E(Fermi) =    -0.060510 a.u.
#     MO Eigenvalue [a.u.]      Occupation                 s                 p                 d
       1         -0.895259        2.000000        0.00000000        0.00000000        0.00000000
       2         -0.868125        2.000000        0.00000003        0.00000001        0.00000000
       3         -0.864615        2.000000        0.00000015        0.00000003        0.00000000
       4         -0.857993        2.000000        0.69375068        0.15253941        0.00083073
       5         -0.853826        2.000000        0.00015644        0.00005032        0.00000018
       6         -0.850378        2.000000        0.00000000        0.00000000        0.00000000
       7         -0.848222        2.000000        0.00000001        0.00000003        0.00000000
       8         -0.847335        2.000000        0.00003784        0.00002499        0.00000003
       9         -0.842977        2.000000        0.00000201        0.00000094        0.00000001
      10         -0.841504        2.000000        0.00006002        0.00002126        0.00000036
      11         -0.840654        2.000000        0.00001309        0.00001282        0.00000001
      12         -0.839688        2.000000        0.00000333        0.00000667        0.00000004
      13         -0.839172        2.000000        0.00005407        0.00002104        0.00000046
      14         -0.838522        2.000000        0.00001702        0.00004467        0.00000010
      15         -0.837015        2.000000        0.00000735        0.00000893        0.00000048
      16         -0.832753        2.000000        0.00002498        0.00001266        0.00000045
      17         -0.832000        2.000000        0.00002148        0.00001950        0.00000001
      18         -0.831644        2.000000        0.00003368        0.00004246        0.00000014
      19         -0.830027        2.000000        0.00002822        0.00004002        0.00000010
      20         -0.829447        2.000000        0.00014988        0.00028297        0.00000103
      21         -0.828640        2.000000        0.00022870        0.00013982        0.00000322
      22         -0.828147        2.000000        0.00381095        0.00308832        0.00000780
      23         -0.827394        2.000000        0.00222947        0.00445230        0.00001790
      24         -0.826637        2.000000        0.00027929        0.00015133        0.00000971
      25         -0.825864        2.000000        0.00079137        0.00119127        0.00000234
      26         -0.825007        2.000000        0.00090599        0.00116730        0.00000225
      27         -0.824149        2.000000        0.00001544        0.00004234        0.00000039
      28         -0.823003        2.000000        0.00196562        0.00196900        0.00000652
      29         -0.821982        2.000000        0.00008684        0.00067123        0.00000584
      30         -0.820560        2.000000        0.00115264        0.00244650        0.00001049
      31         -0.820223        2.000000        0.00480372        0.00472842        0.00001473
      32         -0.820029        2.000000        0.00132034        0.00093093        0.00004971
      33         -0.819390        2.000000        0.00015403        0.00139846        0.00003787
      34         -0.818664        2.000000        0.00209565        0.00100680        0.00005887
      35         -0.817548        2.000000        0.00028498        0.00032812        0.00000153
      36         -0.816472        2.000000        0.00005015        0.00025442        0.00000515
      37         -0.815444        2.000000        0.00004209        0.00028880        0.00000222
      38         -0.814805        2.000000        0.00000730        0.00004587        0.00000035
      39         -0.814124        2.000000        0.00042063        0.00078434        0.00000325
      40         -0.813968        2.000000        0.00027661        0.00043407        0.00000135
      41         -0.813053        2.000000        0.00015816        0.00022914        0.00000027
      42         -0.812601        2.000000        0.00014908        0.00020404        0.00000023
      43         -0.811948        2.000000        0.00023068        0.00051325        0.00001813
      44         -0.811687        2.000000        0.00026047        0.00132936        0.00001989
      45         -0.810574        2.000000        0.00000559        0.00000559        0.00000017
      46         -0.809310        2.000000        0.00000098        0.00000584        0.00000007
      47         -0.808268        2.000000        0.00006416        0.00009010        0.00000007
      48         -0.807324        2.000000        0.00008460        0.00017570        0.00000046
      49         -0.806602        2.000000        0.00006113        0.00011020        0.00000062
      50         -0.806376        2.000000        0.00008295        0.00055388        0.00000527
      51         -0.806147        2.000000        0.00003863        0.00017961        0.00000121
      52         -0.804835        2.000000        0.00272449        0.00373275        0.00003077
      53         -0.804321        2.000000        0.00033272        0.00099720        0.00000471
      54         -0.803943        2.000000        0.00092091        0.00113082        0.00000122
      55         -0.803401        2.000000        0.00024370        0.00026436        0.00000074
      56         -0.802648        2.000000        0.00001579        0.00001055        0.00000019
      57         -0.801912        2.000000        0.00033413        0.00088470        0.00000325
      58         -0.801342        2.000000        0.00124927        0.00260565        0.00001022
      59         -0.800594        2.000000        0.00154801        0.00440668        0.00001984
      60         -0.799945        2.000000        0.00262401        0.00197939        0.00002188
      61         -0.799254        2.000000        0.00006891        0.00007280        0.00000224
      62         -0.798331        2.000000        0.00006888        0.00006476        0.00000033
      63         -0.797356        2.000000        0.00010843        0.00021803        0.00000069
      64         -0.795713        2.000000        0.00184965        0.00514316        0.00002749
      65         -0.795144        2.000000        0.00000098        0.00000938        0.00000015
      66         -0.794508        2.000000        0.00012111        0.00036160        0.00000235
      67         -0.793501        2.000000        0.00006738        0.00023790        0.00000190
      68         -0.792888        2.000000        0.00623566        0.01243465        0.00005057
      69         -0.792771        2.000000        0.00098732        0.00185915        0.00000535
      70         -0.792166        2.000000        0.00042619        0.00086121        0.00000355
      71         -0.791795        2.000000        0.00050766        0.00087434        0.00000098
      72         -0.790466        2.000000        0.00002806        0.00005664        0.00000016
      73         -0.789691        2.000000        0.00008787        0.00015756        0.00000024
      74         -0.789018        2.000000        0.00120692        0.00251866        0.00000738
      75         -0.788284        2.000000        0.00007710        0.00018856        0.00000087
      76         -0.787044        2.000000        0.00000997        0.00002706        0.00000014
      77         -0.785765        2.000000        0.00005015        0.00007464        0.00000035
      78         -0.783215        2.000000        0.00002271        0.00003495        0.00000041
      79         -0.782853        2.000000        0.00008667        0.00010815        0.00000074
      80         -0.782388        2.000000        0.00002046        0.00003795        0.00000005
      81         -0.781821        2.000000        0.00000066        0.00000250        0.00000002
      82         -0.780108        2.000000        0.00029607        0.00067942        0.00000249
      83         -0.778906        2.000000        0.00000053        0.00000112        0.00000000
      84         -0.778076        2.000000        0.00000011        0.00000020        0.00000000
      85         -0.775317        2.000000        0.00105526        0.00262759        0.00001242
      86         -0.773086        2.000000        0.00005526        0.00014117        0.00000071
      87         -0.772920        2.000000        0.00000340        0.00000913        0.00000005
      88         -0.771409        2.000000        0.00000011        0.00000022        0.00000000
      89         -0.769725        2.000000        0.00000056        0.00000080        0.00000000
      90         -0.769226        2.000000        0.00000379        0.00000481        0.00000004
      91         -0.767566        2.000000        0.00000067        0.00000188        0.00000004
      92         -0.766737        2.000000        0.00000002        0.00000006        0.00000000
      93         -0.755845        2.000000        0.00000000        0.00000000        0.00000000
      94         -0.752538        2.000000        0.00000000        0.00000001        0.00000000
      95         -0.747161        2.000000        0.00000000        0.00000000        0.00000000
      96         -0.736999        2.000000        0.00000000        0.00000000        0.00000000
      97         -0.726419        2.000000        0.00000000        0.00000000        0.00000000
      98         -0.719129        2.000000        0.00000000        0.00000000        0.00000000
      99         -0.696511        2.000000        0.00000000        0.00000000        0.00000000
     100         -0.460315        2.000000        0.00000000        0.00000000        0.00000000
     101         -0.427906        2.000000        0.00000005        0.00000013        0.00000000
     102         -0.424376        2.000000        0.00000005        0.00000013        0.00000000
     103         -0.405781        2.000000        0.22039860        0.63825150        0.01249881
     104         -0.401299        2.000000        0.00009854        0.00031826        0.00000657
     105         -0.398347        2.000000        0.00010618        0.00033480        0.00000732
     106         -0.398267        2.000000        0.00001167        0.00016192        0.00000256
     107         -0.397295        2.000000        0.00005142        0.00016413        0.00000300
     108         -0.395753        2.000000        0.00008836        0.00066956        0.00001314
     109         -0.395158        2.000000        0.00010228        0.00033183        0.00000620
     110         -0.394493        2.000000        0.00000547        0.00004476        0.00000070
     111         -0.394192        2.000000        0.00002923        0.00016515        0.00000122
     112         -0.393919        2.000000        0.00016093        0.00052753        0.00000825
     113         -0.393017        2.000000        0.00001486        0.00012418        0.00000202
     114         -0.391793        2.000000        0.00000525        0.00002888        0.00000056
     115         -0.389280        2.000000        0.00010004        0.00039795        0.00001274
     116         -0.388145        2.000000        0.00000663        0.00002455        0.00000044
     117         -0.387090        2.000000        0.00033491        0.00337695        0.00005169
     118         -0.386138        2.000000        0.00113355        0.00377626        0.00006431
     119         -0.385161        2.000000        0.00223982        0.00724552        0.00011317
     120         -0.384984        2.000000        0.00028425        0.00134551        0.00001758
     121         -0.383823        2.000000        0.00107090        0.00981325        0.00016021
     122         -0.383101        2.000000        0.00000973        0.00010508        0.00000171
     123         -0.383025        2.000000        0.00008164        0.00067407        0.00001328
     124         -0.381208        2.000000        0.00006857        0.00038352        0.00000772
     125         -0.380660        2.000000        0.00019658        0.00188532        0.00002527
     126         -0.380323        2.000000        0.00009714        0.00078464        0.00001025
     127         -0.379623        2.000000        0.00002143        0.00015686        0.00000159
     128         -0.379161        2.000000        0.00174927        0.01467284        0.00023598
     129         -0.378115        2.000000        0.00006399        0.00031993        0.00000668
     130         -0.377757        2.000000        0.00004003        0.00021566        0.00000588
     131         -0.377213        2.000000        0.00005839        0.00072149        0.00000711
     132         -0.376655        2.000000        0.00001735        0.00008017        0.00000186
     133         -0.376089        2.000000        0.00006294        0.00030758        0.00000847
     134         -0.375522        2.000000        0.00004163        0.00020367        0.00000503
     135         -0.373953        2.000000        0.00055951        0.00224787        0.00004582
     136         -0.373564        2.000000        0.00002718        0.00014468        0.00000338
     137         -0.372991        2.000000        0.00013792        0.00071338        0.00001058
     138         -0.372433        2.000000        0.00000836        0.00007508        0.00000105
     139         -0.372037        2.000000        0.00003579        0.00028452        0.00000346
     140         -0.371632        2.000000        0.00020458        0.00108821        0.00003578
     141         -0.371006        2.000000        0.00004351        0.00025949        0.00000325
     142         -0.369840        2.000000        0.00002077        0.00016988        0.00000263
     143         -0.369635        2.000000        0.00019687        0.00181313        0.00002102
     144         -0.369153        2.000000        0.00000615        0.00003193        0.00000052
     145         -0.369131        2.000000        0.00000699        0.00012227        0.00000057
     146         -0.368498        2.000000        0.00007081        0.00070080        0.00000969
     147         -0.367984        2.000000        0.00004866        0.00023769        0.00000577
     148         -0.367257        2.000000        0.00014740        0.00056730        0.00001368
     149         -0.366951        2.000000        0.00002183        0.00015650        0.00000227
     150         -0.366882        2.000000        0.00001759        0.00006505        0.00000153
     151         -0.366558        2.000000        0.00000945        0.00006468        0.00000233
     152         -0.366087        2.000000        0.00006111        0.00047370        0.00000412
     153         -0.365532        2.000000        0.00013021        0.00046782        0.00001525
     154         -0.365292        2.000000        0.00002334        0.00008258        0.00000246
     155         -0.364873        2.000000        0.00001388        0.00010890        0.00000067
     156         -0.364499        2.000000        0.00002154        0.00013904        0.00000170
     157         -0.364385        2.000000        0.00000293        0.00003428        0.00000011
     158         -0.363409        2.000000        0.00001122        0.00005131        0.00000183
     159         -0.362731        2.000000        0.00000383        0.00002342        0.00000007
     160         -0.361690        2.000000        0.00001539        0.00013078        0.00000022
     161         -0.361463        2.000000        0.00001294        0.00005544        0.00000080
     162         -0.360695        2.000000        0.00000422        0.00003674        0.00000027
     163         -0.359909        2.000000        0.00004032        0.00049441        0.00000066
     164         -0.358869        2.000000        0.00001890        0.00015622        0.00000128
     165         -0.358762        2.000000        0.00000156        0.00001434        0.00000009
     166         -0.358424        2.000000        0.00001237        0.00003876        0.00000166
     167         -0.357749        2.000000        0.00000248        0.00001389        0.00000020
     168         -0.357432        2.000000        0.00009345        0.00092465        0.00000181
     169         -0.356226        2.000000        0.00000641        0.00003444        0.00000047
     170         -0.355206        2.000000        0.00002825        0.00015622        0.00000344
     171         -0.354151        2.000000        0.00003012        0.00017921        0.00000330
     172         -0.353675        2.000000        0.00000239        0.00002448        0.00000056
     173         -0.353241        2.000000        0.00075573        0.00460482        0.00009665
     174         -0.352384        2.000000        0.00000200        0.00001869        0.00000026
     175         -0.349281        2.000000        0.00000573        0.00004619        0.00000027
     176         -0.348101        2.000000        0.00044543        0.00356422        0.00002491
     177         -0.347056        2.000000        0.00035978        0.00270040        0.00002109
     178         -0.346421        2.000000        0.00006275        0.00049934        0.00000327
     179         -0.346099        2.000000        0.00056233        0.00411161        0.00003153
     180         -0.344626        2.000000        0.00068487        0.00561115        0.00005181
     181         -0.344227        2.000000        0.00003885        0.00028085        0.00000245
     182         -0.344158        2.000000        0.00054840        0.00467778        0.00004060
     183         -0.343279        2.000000        0.00015814        0.00276306        0.00002001
     184         -0.342186        2.000000        0.00000526        0.00014170        0.00000090
     185         -0.341638        2.000000        0.00000296        0.00005320        0.00000019
     186         -0.341223        2.000000        0.00103432        0.00896795        0.00005025
     187         -0.341051        2.000000        0.00000628        0.00005393        0.00000031
     188         -0.340810        2.000000        0.00011139        0.00058489        0.00000431
     189         -0.340344        2.000000        0.00010517        0.00116790        0.00000856
     190         -0.340103        2.000000        0.00000305        0.00002800        0.00000016
     191         -0.339538        2.000000        0.00001253        0.00002763        0.00000036
     192         -0.338904        2.000000        0.00007005        0.00064040        0.00000488
     193         -0.338737        2.000000        0.00000506        0.00003300        0.00000030
     194         -0.337951        2.000000        0.00001681        0.00013416        0.00000081
     195         -0.337180        2.000000        0.00000240        0.00001646        0.00000011
     196         -0.336960        2.000000        0.00001917        0.00016413        0.00000074
     197         -0.336163        2.000000        0.00000337        0.00002511        0.00000017
     198         -0.335733        2.000000        0.00000180        0.00001291        0.00000010
     199         -0.334956        2.000000        0.00003367        0.00086960        0.00000567
     200         -0.333834        2.000000        0.00000248        0.00004466        0.00000033
     201         -0.331670        2.000000        0.00000146        0.00001048        0.00000015
     202         -0.330715        2.000000        0.00003770        0.00027360        0.00000144
     203         -0.327469        2.000000        0.00000214        0.00001232        0.00000009
     204         -0.326924        2.000000        0.00000083        0.00000494        0.00000005
     205         -0.319799        2.000000        0.02543755        0.18971752        0.00118180
     206         -0.319625        2.000000        0.00000428        0.00003150        0.00000020
     207         -0.318771        2.000000        0.00001150        0.00011977        0.00000064
     208         -0.318487        2.000000        0.00019394        0.00140770        0.00000760
     209         -0.318151        2.000000        0.00537033        0.03856611        0.00025002
     210         -0.317254        2.000000        0.00454258        0.03266508        0.00018729
     211         -0.316615        2.000000        0.00484398        0.03439476        0.00019097
     212         -0.316317        2.000000        0.00000223        0.00001325        0.00000009
     213         -0.315885        2.000000        0.00102920        0.00702971        0.00004418
     214         -0.315512        2.000000        0.00055531        0.00394268        0.00002130
     215         -0.314742        2.000000        0.00024000        0.00139032        0.00000927
     216         -0.314240        2.000000        0.00021353        0.00158029        0.00000820
     217         -0.313093        2.000000        0.00015491        0.00123610        0.00000683
     218         -0.312538        2.000000        0.00396951        0.02561923        0.00013931
     219         -0.312396        2.000000        0.00026321        0.00163445        0.00000677
     220         -0.312037        2.000000        0.00494967        0.03250512        0.00017517
     221         -0.310598        2.000000        0.00872076        0.05465746        0.00030049
     222         -0.310221        2.000000        0.00120564        0.00723104        0.00002849
     223         -0.309408        2.000000        0.00008444        0.00043958        0.00000186
     224         -0.309395        2.000000        0.00147699        0.00951688        0.00005163
     225         -0.309234        2.000000        0.00321280        0.02052784        0.00010254
     226         -0.308381        2.000000        0.00858318        0.05322337        0.00028418
     227         -0.308250        2.000000        0.00022354        0.00129870        0.00000821
     228         -0.308097        2.000000        0.00064490        0.00406163        0.00002069
     229         -0.307179        2.000000        0.00002663        0.00018991        0.00000111
     230         -0.305966        2.000000        0.00012458        0.00086190        0.00000686
     231         -0.305190        2.000000        0.00003707        0.00020214        0.00000146
     232         -0.305170        2.000000        0.00001060        0.00005730        0.00000041
     233         -0.303881        2.000000        0.00000620        0.00002909        0.00000021
     234         -0.303186        2.000000        0.00012569        0.00060218        0.00000347
     235         -0.302644        2.000000        0.00001987        0.00004224        0.00000054
     236         -0.302137        2.000000        0.00053362        0.00213262        0.00001973
     237         -0.301410        2.000000        0.00266438        0.01391835        0.00007714
     238         -0.301270        2.000000        0.00010550        0.00066649        0.00000094
     239         -0.300504        2.000000        0.00003062        0.00013528        0.00000179
     240         -0.300347        2.000000        0.00023494        0.00096989        0.00000673
     241         -0.300010        2.000000        0.00000040        0.00000221        0.00000002
     242         -0.298878        2.000000        0.00082915        0.00418883        0.00001450
     243         -0.298505        2.000000        0.00034807        0.00200179        0.00000424
     244         -0.297847        2.000000        0.00005788        0.00023032        0.00000156
     245         -0.297156        2.000000        0.00018162        0.00096740        0.00000401
     246         -0.297046        2.000000        0.00000365        0.00007008        0.00000014
     247         -0.296671        2.000000        0.00000894        0.00005078        0.00000056
     248         -0.296618        2.000000        0.00022436        0.00136273        0.00000613
     249         -0.295969        2.000000        0.00018271        0.00098154        0.00000332
     250         -0.295348        2.000000        0.00002257        0.00009196        0.00000137
     251         -0.295087        2.000000        0.00005281        0.00031799        0.00000152
     252         -0.294369        2.000000        0.00056332        0.00282162        0.00000654
     253         -0.294183        2.000000        0.00042940        0.00223171        0.00000542
     254         -0.293640        2.000000        0.00000794        0.00005812        0.00000017
     255         -0.293246        2.000000        0.00018268        0.00095431        0.00000493
     256         -0.292577        2.000000        0.00003630        0.00018435        0.00000068
     257         -0.291994        2.000000        0.00002524        0.00016596        0.00000047
     258         -0.291705        2.000000        0.00006395        0.00037785        0.00000037
     259         -0.290928        2.000000        0.00003094        0.00011232        0.00000097
     260         -0.290306        2.000000        0.00016048        0.00047756        0.00000343
     261         -0.289901        2.000000        0.00002509        0.00006032        0.00000044
     262         -0.289451        2.000000        0.00053522        0.00216890        0.00000590
     263         -0.289043        2.000000        0.00016514        0.00064485        0.00000151
     264         -0.288015        2.000000        0.00000722        0.00007787        0.00000056
     265         -0.287861        2.000000        0.00001543        0.00024026        0.00000078
     266         -0.286936        2.000000        0.00010630        0.00047595        0.00000383
     267         -0.286667        2.000000        0.00000716        0.00032742        0.00000158
     268         -0.286302        2.000000        0.00000541        0.00005512        0.00000027
     269         -0.285607        2.000000        0.00030507        0.00157247        0.00000294
     270         -0.285328        2.000000        0.00006291        0.00029475        0.00000392
     271         -0.285085        2.000000        0.00050690        0.00276895        0.00000379
     272         -0.284841        2.000000        0.00026107        0.00123023        0.00000264
     273         -0.284131        2.000000        0.00002637        0.00012134        0.00000082
     274         -0.283572        2.000000        0.00002090        0.00011137        0.00000096
     275         -0.283249        2.000000        0.00010074        0.00043879        0.00000139
     276         -0.283050        2.000000        0.00009047        0.00055888        0.00000111
     277         -0.282957        2.000000        0.00008962        0.00064953        0.00000052
     278         -0.282638        2.000000        0.00004259        0.00024632        0.00000060
     279         -0.282393        2.000000        0.00010766        0.00019057        0.00000202
     280         -0.282190        2.000000        0.00001218        0.00009846        0.00000096
     281         -0.281812        2.000000        0.00012906        0.00090624        0.00000027
     282         -0.281718        2.000000        0.00000406        0.00003220        0.00000060
     283         -0.281529        2.000000        0.00010733        0.00110954        0.00000334
     284         -0.281304        2.000000        0.00042825        0.00204518        0.00000552
     285         -0.281056        2.000000        0.00029481        0.00102378        0.00000596
     286         -0.280948        2.000000        0.00003526        0.00051858        0.00000105
     287         -0.280843        2.000000        0.00018019        0.00091741        0.00000252
     288         -0.280780        2.000000        0.00001940        0.00010212        0.00000059
     289         -0.280282        2.000000        0.00014095        0.00064846        0.00000083
     290         -0.279956        2.000000        0.00006874        0.00032606        0.00000113
     291         -0.279807        2.000000        0.00003961        0.00016261        0.00000044
     292         -0.279686        2.000000        0.00001385        0.00007483        0.00000075
     293         -0.279589        2.000000        0.00000614        0.00018081        0.00000051
     294         -0.279495        2.000000        0.00003711        0.00016130        0.00000195
     295         -0.279217        2.000000        0.00027413        0.00137603        0.00000180
     296         -0.279093        2.000000        0.00000500        0.00033894        0.00000081
     297         -0.278951        2.000000        0.00003324        0.00014466        0.00000032
     298         -0.278592        2.000000        0.00008109        0.00043786        0.00000179
     299         -0.278433        2.000000        0.00019826        0.00092987        0.00000093
     300         -0.278210        2.000000        0.00012905        0.00044243        0.00000163
     301         -0.278135        2.000000        0.00016439        0.00155034        0.00000064
     302         -0.278031        2.000000        0.00002375        0.00032477        0.00000063
     303         -0.277650        2.000000        0.00001749        0.00019791        0.00000098
     304         -0.277312        2.000000        0.00005552        0.00051034        0.00000105
     305         -0.276990        2.000000        0.00006852        0.00075876        0.00000079
     306         -0.276609        2.000000        0.00003532        0.00058958        0.00000058
     307         -0.276405        2.000000        0.00003100        0.00007500        0.00000119