# Projected DOS for list 22 of 3 atoms, at iteration step i = 0, E(Fermi) =    -0.060510 a.u.
#     MO Eigenvalue [a.u.]      Occupation                 s                 p                 d
       1         -0.895259        2.000000        0.00000000        0.00000000        0.00000000
       2         -0.868125        2.000000        0.00000016        0.00000019        0.00000000
       3         -0.864615        2.000000        0.00000034        0.00000033        0.00000001
       4         -0.857993        2.000000        0.02903126        0.01214752        0.00031855
       5         -0.853826        2.000000        0.00002524        0.00005974        0.00000054
       6         -0.850378        2.000000        0.00000002        0.00000002        0.00000000
       7         -0.848222        2.000000        0.00000036        0.00000012        0.00000000
       8         -0.847335        2.000000        0.00000197        0.00000269        0.00000003
       9         -0.842977        2.000000        0.00000151        0.00000114        0.00000001
      10         -0.841504        2.000000        0.00000926        0.00000650        0.00000007
      11         -0.840654        2.000000        0.00005580        0.00000599        0.00000020
      12         -0.839688        2.000000        0.00003148        0.00004619        0.00000012
      13         -0.839172        2.000000        0.00000705        0.00001914        0.00000003
      14         -0.838522        2.000000        0.00013962        0.00020715        0.00000050
      15         -0.837015        2.000000        0.00000046        0.00000326        0.00000005
      16         -0.832753        2.000000        0.00002644        0.00000957        0.00000002
      17         -0.832000        2.000000        0.00004984        0.00001303        0.00000020
      18         -0.831644        2.000000        0.00003330        0.00001418        0.00000049
      19         -0.830027        2.000000        0.00049666        0.00011613        0.00000028
      20         -0.829447        2.000000        0.00402633        0.00067690        0.00000316
      21         -0.828640        2.000000        0.00080659        0.00007456        0.00000177
      22         -0.828147        2.000000        0.00417307        0.00120217        0.00000343
      23         -0.827394        2.000000        0.06247731        0.01297301        0.00004142
      24         -0.826637        2.000000        0.00005329        0.00014602        0.00000141
      25         -0.825864        2.000000        0.01309039        0.00279297        0.00000862
      26         -0.825007        2.000000        0.01501801        0.00226228        0.00002121
      27         -0.824149        2.000000        0.00033749        0.00004192        0.00000092
      28         -0.823003        2.000000        0.02429738        0.00352056        0.00004270
      29         -0.821982        2.000000        0.00044593        0.00005491        0.00000391
      30         -0.820560        2.000000        0.04202165        0.00422775        0.00018148
      31         -0.820223        2.000000        0.06247757        0.00585064        0.00032107
      32         -0.820029        2.000000        0.00130166        0.00032905        0.00002031
      33         -0.819390        2.000000        0.02357917        0.00270949        0.00012842
      34         -0.818664        2.000000        0.00005725        0.00028789        0.00000386
      35         -0.817548        2.000000        0.00005506        0.00002757        0.00000093
      36         -0.816472        2.000000        0.00080114        0.00012133        0.00000240
      37         -0.815444        2.000000        0.00219912        0.00199672        0.00001949
      38         -0.814805        2.000000        0.00056452        0.00065423        0.00000510
      39         -0.814124        2.000000        0.01466664        0.01140157        0.00010758
      40         -0.813968        2.000000        0.00771016        0.00584959        0.00007554
      41         -0.813053        2.000000        0.00019484        0.00051174        0.00000540
      42         -0.812601        2.000000        0.00015726        0.00014553        0.00000544
      43         -0.811948        2.000000        0.00684790        0.00239824        0.00001803
      44         -0.811687        2.000000        0.01829323        0.00577191        0.00006716
      45         -0.810574        2.000000        0.00001119        0.00017512        0.00000413
      46         -0.809310        2.000000        0.00000498        0.00004689        0.00000107
      47         -0.808268        2.000000        0.00087694        0.00035028        0.00000034
      48         -0.807324        2.000000        0.00003500        0.00002655        0.00000075
      49         -0.806602        2.000000        0.00007670        0.00001951        0.00000081
      50         -0.806376        2.000000        0.00448370        0.00134491        0.00000672
      51         -0.806147        2.000000        0.00084808        0.00023853        0.00000596
      52         -0.804835        2.000000        0.06310799        0.01627838        0.00014055
      53         -0.804321        2.000000        0.00055447        0.00014909        0.00000422
      54         -0.803943        2.000000        0.01338646        0.00349584        0.00002933
      55         -0.803401        2.000000        0.00038828        0.00010777        0.00000401
      56         -0.802648        2.000000        0.00004008        0.00013965        0.00000220
      57         -0.801912        2.000000        0.00002376        0.00010825        0.00000168
      58         -0.801342        2.000000        0.00039924        0.00060778        0.00000372
      59         -0.800594        2.000000        0.00040768        0.00033035        0.00000089
      60         -0.799945        2.000000        0.01048810        0.00346144        0.00001368
      61         -0.799254        2.000000        0.00069468        0.00021807        0.00000109
      62         -0.798331        2.000000        0.00054152        0.00044441        0.00000108
      63         -0.797356        2.000000        0.00002732        0.00001373        0.00000008
      64         -0.795713        2.000000        0.00398837        0.00208133        0.00000431
      65         -0.795144        2.000000        0.00000090        0.00000286        0.00000006
      66         -0.794508        2.000000        0.00081634        0.00040409        0.00000076
      67         -0.793501        2.000000        0.00533015        0.00232035        0.00000557
      68         -0.792888        2.000000        0.25378345        0.10586133        0.00030522
      69         -0.792771        2.000000        0.03366724        0.01385907        0.00004260
      70         -0.792166        2.000000        0.01786681        0.00715244        0.00002525
      71         -0.791795        2.000000        0.00255387        0.00097481        0.00000439
      72         -0.790466        2.000000        0.00012129        0.00004468        0.00000028
      73         -0.789691        2.000000        0.00028095        0.00010411        0.00000055
      74         -0.789018        2.000000        0.00074189        0.00026260        0.00000186
      75         -0.788284        2.000000        0.00364610        0.00109806        0.00001235
      76         -0.787044        2.000000        0.00000175        0.00000145        0.00000005
      77         -0.785765        2.000000        0.00142291        0.00043772        0.00000586
      78         -0.783215        2.000000        0.00061896        0.00019941        0.00000326
      79         -0.782853        2.000000        0.00172697        0.00054984        0.00000930
      80         -0.782388        2.000000        0.00009585        0.00002796        0.00000050
      81         -0.781821        2.000000        0.00000040        0.00000020        0.00000000
      82         -0.780108        2.000000        0.00010210        0.00002821        0.00000052
      83         -0.778906        2.000000        0.00000051        0.00000014        0.00000000
      84         -0.778076        2.000000        0.00000017        0.00000005        0.00000000
      85         -0.775317        2.000000        0.00010331        0.00004079        0.00000093
      86         -0.773086        2.000000        0.00000142        0.00000125        0.00000003
      87         -0.772920        2.000000        0.00000000        0.00000007        0.00000000
      88         -0.771409        2.000000        0.00000006        0.00000003        0.00000000
      89         -0.769725        2.000000        0.00000780        0.00000306        0.00000009
      90         -0.769226        2.000000        0.00005569        0.00002052        0.00000073
      91         -0.767566        2.000000        0.00002361        0.00000907        0.00000035
      92         -0.766737        2.000000        0.00000086        0.00000031        0.00000001
      93         -0.755845        2.000000        0.00000000        0.00000000        0.00000000
      94         -0.752538        2.000000        0.00000001        0.00000000        0.00000000
      95         -0.747161        2.000000        0.00000000        0.00000000        0.00000000
      96         -0.736999        2.000000        0.00000000        0.00000000        0.00000000
      97         -0.726419        2.000000        0.00000000        0.00000000        0.00000000
      98         -0.719129        2.000000        0.00000000        0.00000000        0.00000000
      99         -0.696511        2.000000        0.00000000        0.00000000        0.00000000
     100         -0.460315        2.000000        0.00000000        0.00000000        0.00000000
     101         -0.427906        2.000000        0.00000006        0.00000046        0.00000001
     102         -0.424376        2.000000        0.00000003        0.00000029        0.00000001
     103         -0.405781        2.000000        0.00533732        0.05077396        0.00107815
     104         -0.401299        2.000000        0.00000459        0.00001353        0.00000060
     105         -0.398347        2.000000        0.00000219        0.00002921        0.00000018
     106         -0.398267        2.000000        0.00003320        0.00008439        0.00000206
     107         -0.397295        2.000000        0.00000491        0.00001631        0.00000056
     108         -0.395753        2.000000        0.00007050        0.00019190        0.00000400
     109         -0.395158        2.000000        0.00000350        0.00002405        0.00000048
     110         -0.394493        2.000000        0.00000158        0.00000590        0.00000008
     111         -0.394192        2.000000        0.00004942        0.00013349        0.00000329
     112         -0.393919        2.000000        0.00003080        0.00009790        0.00000295
     113         -0.393017        2.000000        0.00001937        0.00006467        0.00000137
     114         -0.391793        2.000000        0.00000118        0.00000279        0.00000008
     115         -0.389280        2.000000        0.00210230        0.00635476        0.00013242
     116         -0.388145        2.000000        0.00001314        0.00006039        0.00000194
     117         -0.387090        2.000000        0.00107564        0.00314815        0.00006415
     118         -0.386138        2.000000        0.00130029        0.00551364        0.00019685
     119         -0.385161        2.000000        0.00292149        0.01303249        0.00047439
     120         -0.384984        2.000000        0.00180899        0.00521288        0.00015553
     121         -0.383823        2.000000        0.00113237        0.00324142        0.00006252
     122         -0.383101        2.000000        0.00001592        0.00006825        0.00000213
     123         -0.383025        2.000000        0.00018931        0.00045341        0.00001238
     124         -0.381208        2.000000        0.00007584        0.00016591        0.00000596
     125         -0.380660        2.000000        0.00076241        0.00201637        0.00004604
     126         -0.380323        2.000000        0.00004494        0.00014635        0.00000266
     127         -0.379623        2.000000        0.00024840        0.00064055        0.00001493
     128         -0.379161        2.000000        0.00096397        0.00274074        0.00004884
     129         -0.378115        2.000000        0.00038190        0.00098921        0.00002349
     130         -0.377757        2.000000        0.00073928        0.00190947        0.00004560
     131         -0.377213        2.000000        0.00160138        0.00421653        0.00009474
     132         -0.376655        2.000000        0.00252558        0.00652925        0.00015123
     133         -0.376089        2.000000        0.00271698        0.00697041        0.00016189
     134         -0.375522        2.000000        0.00806956        0.02083841        0.00047833
     135         -0.373953        2.000000        0.06173588        0.16076792        0.00365170
     136         -0.373564        2.000000        0.00092106        0.00241077        0.00005688
     137         -0.372991        2.000000        0.01376335        0.03578738        0.00081107
     138         -0.372433        2.000000        0.00299009        0.00787843        0.00017198
     139         -0.372037        2.000000        0.00011322        0.00029432        0.00000650
     140         -0.371632        2.000000        0.02920183        0.07610934        0.00172105
     141         -0.371006        2.000000        0.00469322        0.01240015        0.00027282
     142         -0.369840        2.000000        0.00002797        0.00008607        0.00000156
     143         -0.369635        2.000000        0.00294370        0.00794757        0.00016485
     144         -0.369153        2.000000        0.00000835        0.00003042        0.00000032
     145         -0.369131        2.000000        0.00232216        0.00621861        0.00013035
     146         -0.368498        2.000000        0.00862546        0.02312712        0.00048922
     147         -0.367984        2.000000        0.00290137        0.00765594        0.00016823
     148         -0.367257        2.000000        0.00557185        0.01514182        0.00031179
     149         -0.366951        2.000000        0.00143123        0.00387882        0.00008081
     150         -0.366882        2.000000        0.00026886        0.00080814        0.00001476
     151         -0.366558        2.000000        0.00204847        0.00543420        0.00011683
     152         -0.366087        2.000000        0.00416654        0.01184406        0.00022609
     153         -0.365532        2.000000        0.02404088        0.06572728        0.00133588
     154         -0.365292        2.000000        0.00344623        0.00957957        0.00018985
     155         -0.364873        2.000000        0.00108101        0.00292525        0.00006117
     156         -0.364499        2.000000        0.00001178        0.00002992        0.00000072
     157         -0.364385        2.000000        0.00000759        0.00002431        0.00000059
     158         -0.363409        2.000000        0.00172196        0.00486293        0.00011304
     159         -0.362731        2.000000        0.00001399        0.00005277        0.00000121
     160         -0.361690        2.000000        0.00022680        0.00062071        0.00001293
     161         -0.361463        2.000000        0.00003416        0.00012779        0.00000347
     162         -0.360695        2.000000        0.00006068        0.00017454        0.00000364
     163         -0.359909        2.000000        0.00019124        0.00059399        0.00001346
     164         -0.358869        2.000000        0.00071901        0.00194988        0.00004171
     165         -0.358762        2.000000        0.00005417        0.00014617        0.00000317
     166         -0.358424        2.000000        0.00133067        0.00357968        0.00007711
     167         -0.357749        2.000000        0.00000607        0.00001912        0.00000047
     168         -0.357432        2.000000        0.00000912        0.00007035        0.00000123
     169         -0.356226        2.000000        0.00001638        0.00004816        0.00000084
     170         -0.355206        2.000000        0.00068580        0.00183797        0.00004334
     171         -0.354151        2.000000        0.00051648        0.00130468        0.00003016
     172         -0.353675        2.000000        0.00030676        0.00079212        0.00001898
     173         -0.353241        2.000000        0.02036751        0.05578612        0.00121927
     174         -0.352384        2.000000        0.00017008        0.00052802        0.00001021
     175         -0.349281        2.000000        0.00030525        0.00086374        0.00001748
     176         -0.348101        2.000000        0.00458317        0.01345411        0.00026132
     177         -0.347056        2.000000        0.00193647        0.00582103        0.00010859
     178         -0.346421        2.000000        0.00060703        0.00185343        0.00003430
     179         -0.346099        2.000000        0.00369656        0.01070180        0.00021180
     180         -0.344626        2.000000        0.00003475        0.00018528        0.00000197
     181         -0.344227        2.000000        0.00001174        0.00004055        0.00000067
     182         -0.344158        2.000000        0.00003507        0.00017011        0.00000203
     183         -0.343279        2.000000        0.00189938        0.00541325        0.00010715
     184         -0.342186        2.000000        0.00004070        0.00010867        0.00000231
     185         -0.341638        2.000000        0.00009785        0.00027810        0.00000580
     186         -0.341223        2.000000        0.00020167        0.00057261        0.00001345
     187         -0.341051        2.000000        0.00000245        0.00000696        0.00000015
     188         -0.340810        2.000000        0.00011937        0.00033058        0.00000743
     189         -0.340344        2.000000        0.00044743        0.00126049        0.00002467
     190         -0.340103        2.000000        0.00002215        0.00007048        0.00000124
     191         -0.339538        2.000000        0.00000146        0.00001014        0.00000020
     192         -0.338904        2.000000        0.00003632        0.00010350        0.00000212
     193         -0.338737        2.000000        0.00000124        0.00000450        0.00000007
     194         -0.337951        2.000000        0.00000669        0.00002032        0.00000032
     195         -0.337180        2.000000        0.00000090        0.00000329        0.00000006
     196         -0.336960        2.000000        0.00000341        0.00001350        0.00000058
     197         -0.336163        2.000000        0.00000317        0.00000964        0.00000011
     198         -0.335733        2.000000        0.00000464        0.00001399        0.00000018
     199         -0.334956        2.000000        0.00078579        0.00239604        0.00004241
     200         -0.333834        2.000000        0.00002668        0.00008579        0.00000129
     201         -0.331670        2.000000        0.00000284        0.00000956        0.00000010
     202         -0.330715        2.000000        0.00005755        0.00036946        0.00000785
     203         -0.327469        2.000000        0.00000195        0.00000894        0.00000019
     204         -0.326924        2.000000        0.00000005        0.00000083        0.00000001
     205         -0.319799        2.000000        0.00125201        0.00881894        0.00009695
     206         -0.319625        2.000000        0.00000025        0.00000206        0.00000001
     207         -0.318771        2.000000        0.00002807        0.00011237        0.00000365
     208         -0.318487        2.000000        0.00001966        0.00010695        0.00000147
     209         -0.318151        2.000000        0.00028751        0.00202495        0.00002014
     210         -0.317254        2.000000        0.00023842        0.00166429        0.00001811
     211         -0.316615        2.000000        0.00025217        0.00174573        0.00001987
     212         -0.316317        2.000000        0.00000062        0.00000621        0.00000008
     213         -0.315885        2.000000        0.00005730        0.00041894        0.00000379
     214         -0.315512        2.000000        0.00003463        0.00022100        0.00000245
     215         -0.314742        2.000000        0.00001238        0.00010346        0.00000133
     216         -0.314240        2.000000        0.00001550        0.00009447        0.00000115
     217         -0.313093        2.000000        0.00003507        0.00015588        0.00000253
     218         -0.312538        2.000000        0.00029700        0.00187438        0.00001996
     219         -0.312396        2.000000        0.00002307        0.00012923        0.00000160
     220         -0.312037        2.000000        0.00031845        0.00226610        0.00002280
     221         -0.310598        2.000000        0.00053654        0.00379618        0.00004022
     222         -0.310221        2.000000        0.00006289        0.00043045        0.00000551
     223         -0.309408        2.000000        0.00000857        0.00004611        0.00000039
     224         -0.309395        2.000000        0.00008367        0.00062622        0.00000709
     225         -0.309234        2.000000        0.00020917        0.00147792        0.00001485
     226         -0.308381        2.000000        0.00066061        0.00447974        0.00004466
     227         -0.308250        2.000000        0.00001866        0.00051796        0.00000456
     228         -0.308097        2.000000        0.00004156        0.00032329        0.00000194
     229         -0.307179        2.000000        0.00001152        0.00007369        0.00000032
     230         -0.305966        2.000000        0.00000636        0.00003341        0.00000027
     231         -0.305190        2.000000        0.00000324        0.00002270        0.00000014
     232         -0.305170        2.000000        0.00000152        0.00000862        0.00000008
     233         -0.303881        2.000000        0.00000078        0.00000573        0.00000002
     234         -0.303186        2.000000        0.00000963        0.00006293        0.00000048
     235         -0.302644        2.000000        0.00000515        0.00001821        0.00000002
     236         -0.302137        2.000000        0.00009383        0.00051777        0.00000431
     237         -0.301410        2.000000        0.00024188        0.00160381        0.00001308
     238         -0.301270        2.000000        0.00000794        0.00004413        0.00000052
     239         -0.300504        2.000000        0.00000751        0.00003368        0.00000036
     240         -0.300347        2.000000        0.00003540        0.00019066        0.00000182
     241         -0.300010        2.000000        0.00000012        0.00000040        0.00000001
     242         -0.298878        2.000000        0.00008384        0.00055235        0.00000503
     243         -0.298505        2.000000        0.00002589        0.00018197        0.00000182
     244         -0.297847        2.000000        0.00000671        0.00004164        0.00000027
     245         -0.297156        2.000000        0.00002053        0.00013900        0.00000109
     246         -0.297046        2.000000        0.00000250        0.00000889        0.00000002
     247         -0.296671        2.000000        0.00000573        0.00002299        0.00000013
     248         -0.296618        2.000000        0.00001522        0.00011601        0.00000089
     249         -0.295969        2.000000        0.00001498        0.00009998        0.00000084
     250         -0.295348        2.000000        0.00000758        0.00005488        0.00000038
     251         -0.295087        2.000000        0.00000927        0.00005151        0.00000048
     252         -0.294369        2.000000        0.00004540        0.00029345        0.00000319
     253         -0.294183        2.000000        0.00002954        0.00019560        0.00000191
     254         -0.293640        2.000000        0.00001037        0.00005089        0.00000031
     255         -0.293246        2.000000        0.00002153        0.00013614        0.00000107
     256         -0.292577        2.000000        0.00000292        0.00002439        0.00000030
     257         -0.291994        2.000000        0.00002280        0.00005876        0.00000063
     258         -0.291705        2.000000        0.00000849        0.00003770        0.00000038
     259         -0.290928        2.000000        0.00002942        0.00013850        0.00000086
     260         -0.290306        2.000000        0.00002251        0.00015645        0.00000111
     261         -0.289901        2.000000        0.00002876        0.00012367        0.00000130
     262         -0.289451        2.000000        0.00004345        0.00036267        0.00000266
     263         -0.289043        2.000000        0.00006016        0.00027835        0.00000288
     264         -0.288015        2.000000        0.00002287        0.00007427        0.00000121
     265         -0.287861        2.000000        0.00006975        0.00033244        0.00000302
     266         -0.286936        2.000000        0.00002541        0.00016044        0.00000090
     267         -0.286667        2.000000        0.00000300        0.00001116        0.00000027
     268         -0.286302        2.000000        0.00000516        0.00002766        0.00000016
     269         -0.285607        2.000000        0.00001228        0.00009904        0.00000083
     270         -0.285328        2.000000        0.00002331        0.00016307        0.00000105
     271         -0.285085        2.000000        0.00001725        0.00016104        0.00000191
     272         -0.284841        2.000000        0.00001160        0.00012886        0.00000134
     273         -0.284131        2.000000        0.00000873        0.00004041        0.00000030
     274         -0.283572        2.000000        0.00000125        0.00000608        0.00000005
     275         -0.283249        2.000000        0.00003419        0.00018057        0.00000125
     276         -0.283050        2.000000        0.00000393        0.00003160        0.00000038
     277         -0.282957        2.000000        0.00000197        0.00000880        0.00000032
     278         -0.282638        2.000000        0.00000347        0.00002787        0.00000026
     279         -0.282393        2.000000        0.00001805        0.00014056        0.00000071
     280         -0.282190        2.000000        0.00000520        0.00003169        0.00000020
     281         -0.281812        2.000000        0.00002085        0.00010310        0.00000105
     282         -0.281718        2.000000        0.00000175        0.00001085        0.00000005
     283         -0.281529        2.000000        0.00000617        0.00004554        0.00000113
     284         -0.281304        2.000000        0.00005819        0.00036951        0.00000306
     285         -0.281056        2.000000        0.00014423        0.00075502        0.00000397
     286         -0.280948        2.000000        0.00002968        0.00012149        0.00000105
     287         -0.280843        2.000000        0.00005486        0.00026899        0.00000267
     288         -0.280780        2.000000        0.00001206        0.00005818        0.00000044
     289         -0.280282        2.000000        0.00001335        0.00009834        0.00000075
     290         -0.279956        2.000000        0.00000559        0.00002870        0.00000020
     291         -0.279807        2.000000        0.00000986        0.00005240        0.00000042
     292         -0.279686        2.000000        0.00000437        0.00002517        0.00000008
     293         -0.279589        2.000000        0.00000657        0.00002702        0.00000006
     294         -0.279495        2.000000        0.00001022        0.00006656        0.00000051
     295         -0.279217        2.000000        0.00005286        0.00030733        0.00000293
     296         -0.279093        2.000000        0.00000190        0.00002294        0.00000004
     297         -0.278951        2.000000        0.00001967        0.00010629        0.00000081
     298         -0.278592        2.000000        0.00007408        0.00029629        0.00000232
     299         -0.278433        2.000000        0.00004997        0.00027165        0.00000234
     300         -0.278210        2.000000        0.00009066        0.00041399        0.00000345
     301         -0.278135        2.000000        0.00000644        0.00003682        0.00000088
     302         -0.278031        2.000000        0.00000435        0.00005463        0.00000030
     303         -0.277650        2.000000        0.00000983        0.00003586        0.00000030
     304         -0.277312        2.000000        0.00001089        0.00005443        0.00000041
     305         -0.276990        2.000000        0.00002341        0.00006800        0.00000062
     306         -0.276609        2.000000        0.00000772        0.00001277        0.00000022
     307         -0.276405        2.000000        0.00000180        0.00004970        0.00000029