# Projected DOS for list 81 of 3 atoms, at iteration step i = 0, E(Fermi) =    -0.060510 a.u.
#     MO Eigenvalue [a.u.]      Occupation                 s                 p                 d
       1         -0.895259        2.000000        0.00000000        0.00000000        0.00000000
       2         -0.868125        2.000000        0.00000000        0.00000000        0.00000000
       3         -0.864615        2.000000        0.00000000        0.00000000        0.00000000
       4         -0.857993        2.000000        0.00000064        0.00000029        0.00000000
       5         -0.853826        2.000000        0.00005783        0.00001793        0.00000078
       6         -0.850378        2.000000        0.00000005        0.00000011        0.00000000
       7         -0.848222        2.000000        0.00000614        0.00000203        0.00000007
       8         -0.847335        2.000000        0.00310607        0.00192575        0.00005295
       9         -0.842977        2.000000        0.00000695        0.00000229        0.00000002
      10         -0.841504        2.000000        0.00193861        0.00042380        0.00000465
      11         -0.840654        2.000000        0.00116512        0.00025210        0.00000348
      12         -0.839688        2.000000        0.00105706        0.00054858        0.00001640
      13         -0.839172        2.000000        0.00029924        0.00088221        0.00000912
      14         -0.838522        2.000000        0.00030051        0.00008213        0.00000092
      15         -0.837015        2.000000        0.00108248        0.00060524        0.00001267
      16         -0.832753        2.000000        0.00085215        0.00042897        0.00001173
      17         -0.832000        2.000000        0.01607553        0.00482110        0.00002108
      18         -0.831644        2.000000        0.00105423        0.00089028        0.00006023
      19         -0.830027        2.000000        0.00026063        0.00008297        0.00000096
      20         -0.829447        2.000000        0.00257134        0.00219695        0.00002848
      21         -0.828640        2.000000        0.00143981        0.00129347        0.00000967
      22         -0.828147        2.000000        0.00019943        0.00004975        0.00000155
      23         -0.827394        2.000000        0.00010332        0.00012909        0.00000345
      24         -0.826637        2.000000        0.00178073        0.00033603        0.00000476
      25         -0.825864        2.000000        0.00010684        0.00012917        0.00000075
      26         -0.825007        2.000000        0.00012023        0.00005458        0.00000066
      27         -0.824149        2.000000        0.00039266        0.00008159        0.00000133
      28         -0.823003        2.000000        0.00045333        0.00010592        0.00000133
      29         -0.821982        2.000000        0.00117772        0.00021167        0.00000642
      30         -0.820560        2.000000        0.00004836        0.00003982        0.00000005
      31         -0.820223        2.000000        0.00028374        0.00004977        0.00000047
      32         -0.820029        2.000000        0.00142120        0.00036421        0.00000620
      33         -0.819390        2.000000        0.00002844        0.00003674        0.00000006
      34         -0.818664        2.000000        0.00002459        0.00010187        0.00000106
      35         -0.817548        2.000000        0.00103989        0.00015988        0.00000253
      36         -0.816472        2.000000        0.02218978        0.00352959        0.00004212
      37         -0.815444        2.000000        0.00468643        0.00087045        0.00001490
      38         -0.814805        2.000000        0.00027991        0.00005790        0.00000051
      39         -0.814124        2.000000        0.00061459        0.00023596        0.00000381
      40         -0.813968        2.000000        0.00004932        0.00007800        0.00000023
      41         -0.813053        2.000000        0.00056546        0.00010592        0.00000118
      42         -0.812601        2.000000        0.00001118        0.00001576        0.00000020
      43         -0.811948        2.000000        0.00346146        0.00066443        0.00000609
      44         -0.811687        2.000000        0.01265168        0.00301782        0.00002004
      45         -0.810574        2.000000        0.00024534        0.00005837        0.00000061
      46         -0.809310        2.000000        0.00024073        0.00004334        0.00000061
      47         -0.808268        2.000000        0.00026770        0.00008564        0.00000034
      48         -0.807324        2.000000        0.02955801        0.00571092        0.00006776
      49         -0.806602        2.000000        0.04327592        0.00803373        0.00010255
      50         -0.806376        2.000000        0.06081420        0.01154286        0.00013620
      51         -0.806147        2.000000        0.16752518        0.03224707        0.00036408
      52         -0.804835        2.000000        0.00387463        0.00075247        0.00000767
      53         -0.804321        2.000000        0.01324811        0.00315249        0.00002031
      54         -0.803943        2.000000        0.00587327        0.00171234        0.00000893
      55         -0.803401        2.000000        0.00043135        0.00014141        0.00000470
      56         -0.802648        2.000000        0.05940529        0.01393987        0.00010910
      57         -0.801912        2.000000        0.04560355        0.01375258        0.00005663
      58         -0.801342        2.000000        0.00784312        0.00151835        0.00003039
      59         -0.800594        2.000000        0.05424243        0.01274179        0.00010660
      60         -0.799945        2.000000        0.00447374        0.00113463        0.00000927
      61         -0.799254        2.000000        0.00017695        0.00003479        0.00000050
      62         -0.798331        2.000000        0.00006922        0.00003832        0.00000009
      63         -0.797356        2.000000        0.00003995        0.00001806        0.00000011
      64         -0.795713        2.000000        0.00000642        0.00000835        0.00000002
      65         -0.795144        2.000000        0.00471633        0.00161912        0.00000746
      66         -0.794508        2.000000        0.00996553        0.00399550        0.00001768
      67         -0.793501        2.000000        0.00991887        0.00386031        0.00001648
      68         -0.792888        2.000000        0.00313122        0.00121878        0.00000514
      69         -0.792771        2.000000        0.02187905        0.00868572        0.00003231
      70         -0.792166        2.000000        0.00043342        0.00020561        0.00000069
      71         -0.791795        2.000000        0.00438517        0.00174130        0.00000658
      72         -0.790466        2.000000        0.06823626        0.03198447        0.00010782
      73         -0.789691        2.000000        0.00000739        0.00009971        0.00000035
      74         -0.789018        2.000000        0.00322141        0.00157076        0.00000553
      75         -0.788284        2.000000        0.00036474        0.00010800        0.00000132
      76         -0.787044        2.000000        0.04179925        0.02227633        0.00006963
      77         -0.785765        2.000000        0.00067250        0.00044715        0.00000137
      78         -0.783215        2.000000        0.00000846        0.00001688        0.00000018
      79         -0.782853        2.000000        0.00000005        0.00000029        0.00000001
      80         -0.782388        2.000000        0.00001100        0.00013172        0.00000161
      81         -0.781821        2.000000        0.00000130        0.00000643        0.00000005
      82         -0.780108        2.000000        0.00205559        0.00161620        0.00000404
      83         -0.778906        2.000000        0.00000116        0.00000086        0.00000000
      84         -0.778076        2.000000        0.00000221        0.00000162        0.00000000
      85         -0.775317        2.000000        0.00013069        0.00010745        0.00000053
      86         -0.773086        2.000000        0.00007051        0.00004609        0.00000007
      87         -0.772920        2.000000        0.00000437        0.00000282        0.00000000
      88         -0.771409        2.000000        0.00003360        0.00005425        0.00000035
      89         -0.769725        2.000000        0.00011747        0.00014354        0.00000045
      90         -0.769226        2.000000        0.00000258        0.00000239        0.00000001
      91         -0.767566        2.000000        0.00001419        0.00002078        0.00000007
      92         -0.766737        2.000000        0.00000003        0.00000012        0.00000000
      93         -0.755845        2.000000        0.00000000        0.00000000        0.00000000
      94         -0.752538        2.000000        0.00000000        0.00000003        0.00000000
      95         -0.747161        2.000000        0.00000000        0.00000000        0.00000000
      96         -0.736999        2.000000        0.00000000        0.00000000        0.00000000
      97         -0.726419        2.000000        0.00000000        0.00000000        0.00000000
      98         -0.719129        2.000000        0.00000000        0.00000000        0.00000000
      99         -0.696511        2.000000        0.00000000        0.00000000        0.00000000
     100         -0.460315        2.000000        0.00000000        0.00000000        0.00000000
     101         -0.427906        2.000000        0.00000000        0.00000000        0.00000000
     102         -0.424376        2.000000        0.00000000        0.00000000        0.00000000
     103         -0.405781        2.000000        0.00000007        0.00000042        0.00000001
     104         -0.401299        2.000000        0.00001547        0.00005036        0.00000066
     105         -0.398347        2.000000        0.00003786        0.00011692        0.00000296
     106         -0.398267        2.000000        0.00001946        0.00015846        0.00000281
     107         -0.397295        2.000000        0.00000027        0.00000253        0.00000004
     108         -0.395753        2.000000        0.00002981        0.00023768        0.00000309
     109         -0.395158        2.000000        0.00045501        0.00314804        0.00004427
     110         -0.394493        2.000000        0.00006270        0.00040233        0.00000364
     111         -0.394192        2.000000        0.00084022        0.00497509        0.00005338
     112         -0.393919        2.000000        0.00021578        0.00131977        0.00001497
     113         -0.393017        2.000000        0.00006643        0.00043880        0.00000507
     114         -0.391793        2.000000        0.00021991        0.00067274        0.00001551
     115         -0.389280        2.000000        0.00004235        0.00016738        0.00000208
     116         -0.388145        2.000000        0.00000008        0.00000075        0.00000003
     117         -0.387090        2.000000        0.00052202        0.00272794        0.00002659
     118         -0.386138        2.000000        0.00010930        0.00050624        0.00000812
     119         -0.385161        2.000000        0.00043881        0.00195336        0.00004187
     120         -0.384984        2.000000        0.00716799        0.03182198        0.00063085
     121         -0.383823        2.000000        0.00000638        0.00006707        0.00000053
     122         -0.383101        2.000000        0.00007058        0.00033114        0.00000896
     123         -0.383025        2.000000        0.00124101        0.00601647        0.00019504
     124         -0.381208        2.000000        0.00033989        0.00175161        0.00004840
     125         -0.380660        2.000000        0.00041464        0.00156870        0.00003793
     126         -0.380323        2.000000        0.00025256        0.00136293        0.00001509
     127         -0.379623        2.000000        0.00007772        0.00033624        0.00001530
     128         -0.379161        2.000000        0.00015566        0.00052227        0.00001295
     129         -0.378115        2.000000        0.00001051        0.00007526        0.00000143
     130         -0.377757        2.000000        0.00001317        0.00004967        0.00000014
     131         -0.377213        2.000000        0.00010478        0.00036749        0.00000672
     132         -0.376655        2.000000        0.00007940        0.00024092        0.00000431
     133         -0.376089        2.000000        0.00005331        0.00027651        0.00000909
     134         -0.375522        2.000000        0.00005249        0.00021006        0.00000657
     135         -0.373953        2.000000        0.00066613        0.00218976        0.00004248
     136         -0.373564        2.000000        0.00013608        0.00042620        0.00000799
     137         -0.372991        2.000000        0.00111409        0.00319038        0.00006851
     138         -0.372433        2.000000        0.00000380        0.00001690        0.00000034
     139         -0.372037        2.000000        0.00005166        0.00014436        0.00000344
     140         -0.371632        2.000000        0.00145854        0.00425360        0.00010742
     141         -0.371006        2.000000        0.00001602        0.00007725        0.00000116
     142         -0.369840        2.000000        0.00018839        0.00055209        0.00001346
     143         -0.369635        2.000000        0.00207294        0.00598053        0.00014379
     144         -0.369153        2.000000        0.00028130        0.00077531        0.00001995
     145         -0.369131        2.000000        0.00008914        0.00026187        0.00000578
     146         -0.368498        2.000000        0.00009334        0.00030221        0.00000459
     147         -0.367984        2.000000        0.00019305        0.00067238        0.00001610
     148         -0.367257        2.000000        0.00008547        0.00027513        0.00000489
     149         -0.366951        2.000000        0.00206996        0.00557075        0.00014649
     150         -0.366882        2.000000        0.00011113        0.00033962        0.00000569
     151         -0.366558        2.000000        0.00003971        0.00012594        0.00000303
     152         -0.366087        2.000000        0.00002470        0.00012273        0.00000601
     153         -0.365532        2.000000        0.00157181        0.00436696        0.00010050
     154         -0.365292        2.000000        0.00201847        0.00527763        0.00014436
     155         -0.364873        2.000000        0.00024742        0.00066886        0.00001684
     156         -0.364499        2.000000        0.00004921        0.00016892        0.00000171
     157         -0.364385        2.000000        0.00020850        0.00056466        0.00001390
     158         -0.363409        2.000000        0.00144330        0.00391893        0.00009816
     159         -0.362731        2.000000        0.00014853        0.00040027        0.00000981
     160         -0.361690        2.000000        0.00226919        0.00636175        0.00014082
     161         -0.361463        2.000000        0.00002753        0.00008218        0.00000151
     162         -0.360695        2.000000        0.00487871        0.01309679        0.00032549
     163         -0.359909        2.000000        0.00218039        0.00593105        0.00014439
     164         -0.358869        2.000000        0.06044580        0.16378952        0.00397467
     165         -0.358762        2.000000        0.00206177        0.00558313        0.00013558
     166         -0.358424        2.000000        0.08172815        0.22218340        0.00535439
     167         -0.357749        2.000000        0.00005393        0.00014697        0.00000359
     168         -0.357432        2.000000        0.00072138        0.00194005        0.00004745
     169         -0.356226        2.000000        0.03451257        0.09595853        0.00220972
     170         -0.355206        2.000000        0.00007451        0.00021439        0.00000519
     171         -0.354151        2.000000        0.00019702        0.00058718        0.00001180
     172         -0.353675        2.000000        0.00001041        0.00002800        0.00000079
     173         -0.353241        2.000000        0.00260524        0.00709167        0.00018456
     174         -0.352384        2.000000        0.00003710        0.00010812        0.00000274
     175         -0.349281        2.000000        0.00008995        0.00074848        0.00000732
     176         -0.348101        2.000000        0.00006073        0.00025278        0.00000473
     177         -0.347056        2.000000        0.00048560        0.00125897        0.00003836
     178         -0.346421        2.000000        0.00001579        0.00007925        0.00000070
     179         -0.346099        2.000000        0.00002917        0.00011769        0.00000162
     180         -0.344626        2.000000        0.00044578        0.00116527        0.00002699
     181         -0.344227        2.000000        0.00000668        0.00001721        0.00000050
     182         -0.344158        2.000000        0.00022174        0.00071283        0.00001110
     183         -0.343279        2.000000        0.00001822        0.00012138        0.00000076
     184         -0.342186        2.000000        0.00040088        0.00298905        0.00003802
     185         -0.341638        2.000000        0.00223595        0.00592357        0.00011904
     186         -0.341223        2.000000        0.00007317        0.00022044        0.00000270
     187         -0.341051        2.000000        0.00000022        0.00000173        0.00000001
     188         -0.340810        2.000000        0.00045873        0.00123208        0.00002541
     189         -0.340344        2.000000        0.00000562        0.00007177        0.00000086
     190         -0.340103        2.000000        0.00003004        0.00007362        0.00000330
     191         -0.339538        2.000000        0.00089476        0.00244028        0.00003963
     192         -0.338904        2.000000        0.00013683        0.00035342        0.00000975
     193         -0.338737        2.000000        0.00120585        0.00302803        0.00009967
     194         -0.337951        2.000000        0.00055279        0.00147524        0.00004527
     195         -0.337180        2.000000        0.00000813        0.00002245        0.00000060
     196         -0.336960        2.000000        0.00014037        0.00044306        0.00001459
     197         -0.336163        2.000000        0.00014460        0.00036860        0.00001226
     198         -0.335733        2.000000        0.00020001        0.00051840        0.00001796
     199         -0.334956        2.000000        0.00000059        0.00000576        0.00000001
     200         -0.333834        2.000000        0.00000329        0.00001318        0.00000025
     201         -0.331670        2.000000        0.00032368        0.00070704        0.00003431
     202         -0.330715        2.000000        0.00000611        0.00001250        0.00000073
     203         -0.327469        2.000000        0.00000227        0.00000829        0.00000013
     204         -0.326924        2.000000        0.00000553        0.00008571        0.00000180
     205         -0.319799        2.000000        0.00000223        0.00001353        0.00000009
     206         -0.319625        2.000000        0.00000001        0.00000005        0.00000000
     207         -0.318771        2.000000        0.00000051        0.00000178        0.00000002
     208         -0.318487        2.000000        0.00016980        0.00046751        0.00000596
     209         -0.318151        2.000000        0.00027211        0.00082107        0.00001166
     210         -0.317254        2.000000        0.00000214        0.00000975        0.00000021
     211         -0.316615        2.000000        0.00000234        0.00001628        0.00000010
     212         -0.316317        2.000000        0.00000613        0.00002709        0.00000041
     213         -0.315885        2.000000        0.00005012        0.00020622        0.00000211
     214         -0.315512        2.000000        0.00003239        0.00015390        0.00000120
     215         -0.314742        2.000000        0.00014435        0.00055145        0.00000544
     216         -0.314240        2.000000        0.00000167        0.00003810        0.00000031
     217         -0.313093        2.000000        0.00016816        0.00056382        0.00000709
     218         -0.312538        2.000000        0.00006948        0.00028729        0.00000330
     219         -0.312396        2.000000        0.00054020        0.00123153        0.00001780
     220         -0.312037        2.000000        0.00054645        0.00141294        0.00002052
     221         -0.310598        2.000000        0.00015713        0.00052184        0.00000588
     222         -0.310221        2.000000        0.00006803        0.00024076        0.00000275
     223         -0.309408        2.000000        0.00005433        0.00016439        0.00000155
     224         -0.309395        2.000000        0.00012254        0.00047188        0.00000409
     225         -0.309234        2.000000        0.00011726        0.00045815        0.00000454
     226         -0.308381        2.000000        0.00043765        0.00114770        0.00001233
     227         -0.308250        2.000000        0.00003196        0.00009415        0.00000211
     228         -0.308097        2.000000        0.00004607        0.00016320        0.00000094
     229         -0.307179        2.000000        0.00020390        0.00080933        0.00000753
     230         -0.305966        2.000000        0.00374816        0.01496322        0.00014605
     231         -0.305190        2.000000        0.00011264        0.00048613        0.00000487
     232         -0.305170        2.000000        0.00002022        0.00008771        0.00000105
     233         -0.303881        2.000000        0.00000152        0.00000290        0.00000003
     234         -0.303186        2.000000        0.00006975        0.00019857        0.00000142
     235         -0.302644        2.000000        0.00034417        0.00146087        0.00000710
     236         -0.302137        2.000000        0.00115466        0.00447412        0.00003340
     237         -0.301410        2.000000        0.00030650        0.00066521        0.00000753
     238         -0.301270        2.000000        0.00045061        0.00205532        0.00001416
     239         -0.300504        2.000000        0.00008958        0.00063685        0.00000248
     240         -0.300347        2.000000        0.00122086        0.00484857        0.00006910
     241         -0.300010        2.000000        0.00000420        0.00001629        0.00000020
     242         -0.298878        2.000000        0.00006940        0.00027467        0.00000238
     243         -0.298505        2.000000        0.00031869        0.00170249        0.00001252
     244         -0.297847        2.000000        0.00020708        0.00086379        0.00000684
     245         -0.297156        2.000000        0.00013299        0.00049164        0.00000551
     246         -0.297046        2.000000        0.00006939        0.00027174        0.00000317
     247         -0.296671        2.000000        0.00018362        0.00068813        0.00000783
     248         -0.296618        2.000000        0.00004165        0.00013827        0.00000159
     249         -0.295969        2.000000        0.00012520        0.00044421        0.00000212
     250         -0.295348        2.000000        0.00007224        0.00041762        0.00000160
     251         -0.295087        2.000000        0.00000277        0.00004529        0.00000065
     252         -0.294369        2.000000        0.00005457        0.00012278        0.00000246
     253         -0.294183        2.000000        0.00004080        0.00030658        0.00000196
     254         -0.293640        2.000000        0.00012963        0.00067075        0.00000519
     255         -0.293246        2.000000        0.00004770        0.00026223        0.00000080
     256         -0.292577        2.000000        0.00000513        0.00002232        0.00000015
     257         -0.291994        2.000000        0.00013689        0.00069247        0.00000872
     258         -0.291705        2.000000        0.00011579        0.00058710        0.00000715
     259         -0.290928        2.000000        0.00008097        0.00023375        0.00000249
     260         -0.290306        2.000000        0.00024347        0.00117622        0.00001215
     261         -0.289901        2.000000        0.00066467        0.00139092        0.00001010
     262         -0.289451        2.000000        0.00048750        0.00273097        0.00001507
     263         -0.289043        2.000000        0.00004134        0.00036425        0.00000253
     264         -0.288015        2.000000        0.00025927        0.00112478        0.00000406
     265         -0.287861        2.000000        0.00090649        0.00962445        0.00010076
     266         -0.286936        2.000000        0.00013062        0.00056663        0.00000446
     267         -0.286667        2.000000        0.00003622        0.00041294        0.00000292
     268         -0.286302        2.000000        0.00076103        0.00329049        0.00001827
     269         -0.285607        2.000000        0.00010897        0.00043956        0.00000674
     270         -0.285328        2.000000        0.00003543        0.00042300        0.00000154
     271         -0.285085        2.000000        0.00014496        0.00067922        0.00000414
     272         -0.284841        2.000000        0.00003158        0.00013368        0.00000137
     273         -0.284131        2.000000        0.00020623        0.00046312        0.00000385
     274         -0.283572        2.000000        0.00046775        0.00193541        0.00001321
     275         -0.283249        2.000000        0.00031218        0.00125307        0.00000879
     276         -0.283050        2.000000        0.00057120        0.00225343        0.00001513
     277         -0.282957        2.000000        0.00002900        0.00019312        0.00000088
     278         -0.282638        2.000000        0.00044315        0.00190853        0.00001487
     279         -0.282393        2.000000        0.00876097        0.03637680        0.00028570
     280         -0.282190        2.000000        0.00038050        0.00159380        0.00001127
     281         -0.281812        2.000000        0.00001089        0.00004983        0.00000036
     282         -0.281718        2.000000        0.00012484        0.00039403        0.00000448
     283         -0.281529        2.000000        0.00007452        0.00038965        0.00000151
     284         -0.281304        2.000000        0.00004346        0.00019241        0.00000210
     285         -0.281056        2.000000        0.00002907        0.00013669        0.00000112
     286         -0.280948        2.000000        0.00001263        0.00005931        0.00000048
     287         -0.280843        2.000000        0.00033847        0.00131873        0.00000920
     288         -0.280780        2.000000        0.00001090        0.00004301        0.00000046
     289         -0.280282        2.000000        0.00009646        0.00031899        0.00000359
     290         -0.279956        2.000000        0.00002147        0.00012608        0.00000056
     291         -0.279807        2.000000        0.00010255        0.00044979        0.00000211
     292         -0.279686        2.000000        0.00058591        0.00257516        0.00001423
     293         -0.279589        2.000000        0.00007669        0.00042885        0.00000161
     294         -0.279495        2.000000        0.00004600        0.00033084        0.00000172
     295         -0.279217        2.000000        0.00003833        0.00009865        0.00000100
     296         -0.279093        2.000000        0.00063884        0.00356802        0.00001698
     297         -0.278951        2.000000        0.00003152        0.00007245        0.00000045
     298         -0.278592        2.000000        0.00060402        0.00369674        0.00001100
     299         -0.278433        2.000000        0.00003061        0.00006649        0.00000285
     300         -0.278210        2.000000        0.00046579        0.00168595        0.00001159
     301         -0.278135        2.000000        0.00003798        0.00013078        0.00000106
     302         -0.278031        2.000000        0.00021856        0.00106363        0.00000624
     303         -0.277650        2.000000        0.00131386        0.00529682        0.00003364
     304         -0.277312        2.000000        0.00028749        0.00046019        0.00001195
     305         -0.276990        2.000000        0.00370198        0.01461049        0.00010147
     306         -0.276609        2.000000        0.00061851        0.00285227        0.00001707
     307         -0.276405        2.000000        0.00212600        0.00876863        0.00005910