# Projected DOS for list 77 of 3 atoms, at iteration step i = 0, E(Fermi) =    -0.060510 a.u.
#     MO Eigenvalue [a.u.]      Occupation                 s                 p                 d
       1         -0.895259        2.000000        0.00000000        0.00000000        0.00000000
       2         -0.868125        2.000000        0.00000075        0.00000113        0.00000000
       3         -0.864615        2.000000        0.00000013        0.00000018        0.00000000
       4         -0.857993        2.000000        0.00000006        0.00000006        0.00000000
       5         -0.853826        2.000000        0.00000149        0.00000181        0.00000001
       6         -0.850378        2.000000        0.00000003        0.00000006        0.00000000
       7         -0.848222        2.000000        0.00000010        0.00000032        0.00000000
       8         -0.847335        2.000000        0.00002863        0.00005361        0.00000040
       9         -0.842977        2.000000        0.00000095        0.00000072        0.00000000
      10         -0.841504        2.000000        0.00003145        0.00003479        0.00000013
      11         -0.840654        2.000000        0.00001412        0.00001374        0.00000006
      12         -0.839688        2.000000        0.00002787        0.00010117        0.00000021
      13         -0.839172        2.000000        0.00001853        0.00005732        0.00000024
      14         -0.838522        2.000000        0.00000665        0.00001289        0.00000006
      15         -0.837015        2.000000        0.00000103        0.00002161        0.00000008
      16         -0.832753        2.000000        0.00000218        0.00001010        0.00000003
      17         -0.832000        2.000000        0.00003203        0.00005104        0.00000022
      18         -0.831644        2.000000        0.00001146        0.00002739        0.00000021
      19         -0.830027        2.000000        0.00004031        0.00006282        0.00000025
      20         -0.829447        2.000000        0.00003846        0.00001499        0.00000008
      21         -0.828640        2.000000        0.00000758        0.00000699        0.00000007
      22         -0.828147        2.000000        0.00001472        0.00000709        0.00000008
      23         -0.827394        2.000000        0.00001797        0.00003041        0.00000009
      24         -0.826637        2.000000        0.00000054        0.00000613        0.00000001
      25         -0.825864        2.000000        0.00001410        0.00000562        0.00000011
      26         -0.825007        2.000000        0.00000192        0.00001031        0.00000005
      27         -0.824149        2.000000        0.00017054        0.00003506        0.00000082
      28         -0.823003        2.000000        0.00000220        0.00000243        0.00000001
      29         -0.821982        2.000000        0.00000091        0.00002141        0.00000009
      30         -0.820560        2.000000        0.00056623        0.00027558        0.00000246
      31         -0.820223        2.000000        0.00053624        0.00017140        0.00000204
      32         -0.820029        2.000000        0.00023447        0.00023224        0.00000127
      33         -0.819390        2.000000        0.00019188        0.00005076        0.00000081
      34         -0.818664        2.000000        0.00012745        0.00003838        0.00000037
      35         -0.817548        2.000000        0.00001409        0.00006040        0.00000006
      36         -0.816472        2.000000        0.00012314        0.00004037        0.00000035
      37         -0.815444        2.000000        0.00065295        0.00013219        0.00000230
      38         -0.814805        2.000000        0.00009976        0.00001602        0.00000027
      39         -0.814124        2.000000        0.01144000        0.00288093        0.00004525
      40         -0.813968        2.000000        0.02686442        0.00722503        0.00010597
      41         -0.813053        2.000000        0.00005356        0.00001643        0.00000028
      42         -0.812601        2.000000        0.00072984        0.00018542        0.00000392
      43         -0.811948        2.000000        0.00009937        0.00003603        0.00000098
      44         -0.811687        2.000000        0.00001974        0.00000751        0.00000006
      45         -0.810574        2.000000        0.00064913        0.00018368        0.00000360
      46         -0.809310        2.000000        0.01260471        0.00259163        0.00004337
      47         -0.808268        2.000000        0.00011546        0.00002565        0.00000077
      48         -0.807324        2.000000        0.00038646        0.00030735        0.00000608
      49         -0.806602        2.000000        0.00011629        0.00001858        0.00000083
      50         -0.806376        2.000000        0.00001268        0.00001341        0.00000032
      51         -0.806147        2.000000        0.00000716        0.00003286        0.00000024
      52         -0.804835        2.000000        0.00005360        0.00003464        0.00000025
      53         -0.804321        2.000000        0.00003498        0.00002316        0.00000020
      54         -0.803943        2.000000        0.00004457        0.00002612        0.00000029
      55         -0.803401        2.000000        0.00002462        0.00009080        0.00000095
      56         -0.802648        2.000000        0.00003670        0.00013301        0.00000033
      57         -0.801912        2.000000        0.00002959        0.00016158        0.00000030
      58         -0.801342        2.000000        0.00044306        0.00020366        0.00000206
      59         -0.800594        2.000000        0.00004890        0.00002687        0.00000060
      60         -0.799945        2.000000        0.00002741        0.00000992        0.00000010
      61         -0.799254        2.000000        0.00035476        0.00009047        0.00000138
      62         -0.798331        2.000000        0.00000411        0.00000196        0.00000001
      63         -0.797356        2.000000        0.00054991        0.00013893        0.00000153
      64         -0.795713        2.000000        0.00086033        0.00023149        0.00000247
      65         -0.795144        2.000000        0.00020542        0.00005590        0.00000061
      66         -0.794508        2.000000        0.02104984        0.00552557        0.00005289
      67         -0.793501        2.000000        0.00314457        0.00072046        0.00000700
      68         -0.792888        2.000000        0.00032873        0.00008832        0.00000088
      69         -0.792771        2.000000        0.00394549        0.00110350        0.00000966
      70         -0.792166        2.000000        0.00219368        0.00050104        0.00000433
      71         -0.791795        2.000000        0.00000587        0.00001153        0.00000009
      72         -0.790466        2.000000        0.00013259        0.00004081        0.00000028
      73         -0.789691        2.000000        0.60028837        0.15827582        0.00116354
      74         -0.789018        2.000000        0.01928818        0.00510589        0.00003637
      75         -0.788284        2.000000        0.00250600        0.00106684        0.00000447
      76         -0.787044        2.000000        0.00007364        0.00002191        0.00000021
      77         -0.785765        2.000000        0.00252291        0.00084258        0.00000492
      78         -0.783215        2.000000        0.00395388        0.00103192        0.00000932
      79         -0.782853        2.000000        0.00019454        0.00006091        0.00000057
      80         -0.782388        2.000000        0.06905289        0.01839226        0.00017639
      81         -0.781821        2.000000        0.00009636        0.00020685        0.00000180
      82         -0.780108        2.000000        0.00070398        0.00019432        0.00000258
      83         -0.778906        2.000000        0.00000494        0.00000312        0.00000001
      84         -0.778076        2.000000        0.00018699        0.00005380        0.00000071
      85         -0.775317        2.000000        0.00031701        0.00009874        0.00000167
      86         -0.773086        2.000000        0.00215517        0.00072324        0.00001397
      87         -0.772920        2.000000        0.00009009        0.00003612        0.00000077
      88         -0.771409        2.000000        0.00019590        0.00007259        0.00000131
      89         -0.769725        2.000000        0.00001371        0.00001655        0.00000003
      90         -0.769226        2.000000        0.00000275        0.00001550        0.00000007
      91         -0.767566        2.000000        0.00010221        0.00004230        0.00000023
      92         -0.766737        2.000000        0.00035020        0.00028002        0.00000137
      93         -0.755845        2.000000        0.00001909        0.00001098        0.00000003
      94         -0.752538        2.000000        0.00013448        0.00008032        0.00000023
      95         -0.747161        2.000000        0.00000000        0.00000000        0.00000000
      96         -0.736999        2.000000        0.00000786        0.00000904        0.00000002
      97         -0.726419        2.000000        0.00000003        0.00000043        0.00000000
      98         -0.719129        2.000000        0.00000001        0.00000001        0.00000000
      99         -0.696511        2.000000        0.00000000        0.00000000        0.00000000
     100         -0.460315        2.000000        0.00000000        0.00000000        0.00000000
     101         -0.427906        2.000000        0.00000018        0.00000061        0.00000002
     102         -0.424376        2.000000        0.00000007        0.00000016        0.00000000
     103         -0.405781        2.000000        0.00000000        0.00000002        0.00000000
     104         -0.401299        2.000000        0.00000004        0.00000018        0.00000000
     105         -0.398347        2.000000        0.00000007        0.00000034        0.00000000
     106         -0.398267        2.000000        0.00000099        0.00000476        0.00000002
     107         -0.397295        2.000000        0.00000056        0.00000223        0.00000002
     108         -0.395753        2.000000        0.00000088        0.00000494        0.00000002
     109         -0.395158        2.000000        0.00001204        0.00006725        0.00000031
     110         -0.394493        2.000000        0.00000052        0.00000914        0.00000006
     111         -0.394192        2.000000        0.00001691        0.00009868        0.00000039
     112         -0.393919        2.000000        0.00000407        0.00002539        0.00000007
     113         -0.393017        2.000000        0.00000183        0.00000637        0.00000003
     114         -0.391793        2.000000        0.00000542        0.00001752        0.00000039
     115         -0.389280        2.000000        0.00000012        0.00000067        0.00000000
     116         -0.388145        2.000000        0.00000134        0.00000519        0.00000010
     117         -0.387090        2.000000        0.00001154        0.00005155        0.00000028
     118         -0.386138        2.000000        0.00000471        0.00001056        0.00000013
     119         -0.385161        2.000000        0.00000100        0.00000461        0.00000009
     120         -0.384984        2.000000        0.00001676        0.00007658        0.00000099
     121         -0.383823        2.000000        0.00000446        0.00001742        0.00000016
     122         -0.383101        2.000000        0.00000155        0.00000723        0.00000004
     123         -0.383025        2.000000        0.00004966        0.00019559        0.00000129
     124         -0.381208        2.000000        0.00000950        0.00011863        0.00000050
     125         -0.380660        2.000000        0.00000262        0.00005612        0.00000059
     126         -0.380323        2.000000        0.00000637        0.00005205        0.00000030
     127         -0.379623        2.000000        0.00002319        0.00012053        0.00000472
     128         -0.379161        2.000000        0.00000019        0.00000087        0.00000000
     129         -0.378115        2.000000        0.00000065        0.00000741        0.00000017
     130         -0.377757        2.000000        0.00002341        0.00010182        0.00000052
     131         -0.377213        2.000000        0.00000711        0.00003553        0.00000018
     132         -0.376655        2.000000        0.00000071        0.00000957        0.00000003
     133         -0.376089        2.000000        0.00000292        0.00001404        0.00000009
     134         -0.375522        2.000000        0.00000240        0.00000973        0.00000013
     135         -0.373953        2.000000        0.00000357        0.00001590        0.00000024
     136         -0.373564        2.000000        0.00000120        0.00000602        0.00000008
     137         -0.372991        2.000000        0.00000139        0.00001031        0.00000029
     138         -0.372433        2.000000        0.00000224        0.00001184        0.00000009
     139         -0.372037        2.000000        0.00000044        0.00000675        0.00000001
     140         -0.371632        2.000000        0.00001104        0.00004140        0.00000044
     141         -0.371006        2.000000        0.00000500        0.00002363        0.00000014
     142         -0.369840        2.000000        0.00001493        0.00005976        0.00000041
     143         -0.369635        2.000000        0.00007919        0.00032716        0.00000204
     144         -0.369153        2.000000        0.00000733        0.00002801        0.00000026
     145         -0.369131        2.000000        0.00002786        0.00010752        0.00000121
     146         -0.368498        2.000000        0.00000024        0.00000385        0.00000001
     147         -0.367984        2.000000        0.00003269        0.00015699        0.00000061
     148         -0.367257        2.000000        0.00004804        0.00019407        0.00000125
     149         -0.366951        2.000000        0.00005826        0.00024096        0.00000155
     150         -0.366882        2.000000        0.00129431        0.00501017        0.00003747
     151         -0.366558        2.000000        0.00026057        0.00104185        0.00000736
     152         -0.366087        2.000000        0.00026603        0.00107377        0.00000780
     153         -0.365532        2.000000        0.00003086        0.00011099        0.00000105
     154         -0.365292        2.000000        0.00000580        0.00002207        0.00000050
     155         -0.364873        2.000000        0.00000471        0.00002277        0.00000041
     156         -0.364499        2.000000        0.00000152        0.00001009        0.00000003
     157         -0.364385        2.000000        0.00008103        0.00034509        0.00000261
     158         -0.363409        2.000000        0.00007110        0.00025796        0.00000412
     159         -0.362731        2.000000        0.00014893        0.00078025        0.00001201
     160         -0.361690        2.000000        0.00000546        0.00002649        0.00000020
     161         -0.361463        2.000000        0.00017193        0.00070200        0.00001166
     162         -0.360695        2.000000        0.00001594        0.00006069        0.00000073
     163         -0.359909        2.000000        0.00000862        0.00006173        0.00000061
     164         -0.358869        2.000000        0.00002149        0.00011684        0.00000004
     165         -0.358762        2.000000        0.00000026        0.00000534        0.00000004
     166         -0.358424        2.000000        0.00022759        0.00088195        0.00000900
     167         -0.357749        2.000000        0.00000060        0.00000755        0.00000012
     168         -0.357432        2.000000        0.00000530        0.00003450        0.00000027
     169         -0.356226        2.000000        0.00008655        0.00034047        0.00000268
     170         -0.355206        2.000000        0.00000228        0.00000381        0.00000001
     171         -0.354151        2.000000        0.00000402        0.00001478        0.00000023
     172         -0.353675        2.000000        0.00007411        0.00029231        0.00000393
     173         -0.353241        2.000000        0.00000833        0.00004637        0.00000014
     174         -0.352384        2.000000        0.00002668        0.00009826        0.00000119
     175         -0.349281        2.000000        0.00026334        0.00096460        0.00001721
     176         -0.348101        2.000000        0.00027742        0.00084989        0.00002222
     177         -0.347056        2.000000        0.00274735        0.00838386        0.00018964
     178         -0.346421        2.000000        0.00008282        0.00044107        0.00000233
     179         -0.346099        2.000000        0.00077543        0.00233514        0.00005170
     180         -0.344626        2.000000        0.00002657        0.00008113        0.00000180
     181         -0.344227        2.000000        0.00001493        0.00004931        0.00000078
     182         -0.344158        2.000000        0.00006674        0.00021449        0.00000378
     183         -0.343279        2.000000        0.00000041        0.00000256        0.00000002
     184         -0.342186        2.000000        0.00002302        0.00010136        0.00000181
     185         -0.341638        2.000000        0.00008244        0.00031449        0.00000289
     186         -0.341223        2.000000        0.00002655        0.00009533        0.00000105
     187         -0.341051        2.000000        0.00001511        0.00004302        0.00000101
     188         -0.340810        2.000000        0.00001754        0.00006284        0.00000074
     189         -0.340344        2.000000        0.00000303        0.00001167        0.00000018
     190         -0.340103        2.000000        0.00007312        0.00049507        0.00000511
     191         -0.339538        2.000000        0.00075176        0.00264419        0.00003359
     192         -0.338904        2.000000        0.00007246        0.00027452        0.00000279
     193         -0.338737        2.000000        0.00491439        0.01778716        0.00020420
     194         -0.337951        2.000000        0.00555188        0.01868662        0.00026011
     195         -0.337180        2.000000        0.00017654        0.00046849        0.00001643
     196         -0.336960        2.000000        0.00405397        0.01412256        0.00018903
     197         -0.336163        2.000000        0.00130388        0.00460607        0.00005701
     198         -0.335733        2.000000        0.00259661        0.00916477        0.00011606
     199         -0.334956        2.000000        0.00038553        0.00100665        0.00003066
     200         -0.333834        2.000000        0.00155508        0.00396211        0.00012347
     201         -0.331670        2.000000        0.01355878        0.04162126        0.00079424
     202         -0.330715        2.000000        0.00001363        0.00014070        0.00000109
     203         -0.327469        2.000000        0.00205070        0.00549835        0.00014946
     204         -0.326924        2.000000        0.19513583        0.55128816        0.01404739
     205         -0.319799        2.000000        0.00000034        0.00000111        0.00000003
     206         -0.319625        2.000000        0.00000239        0.00000737        0.00000019
     207         -0.318771        2.000000        0.00009102        0.00057107        0.00000500
     208         -0.318487        2.000000        0.00000007        0.00000041        0.00000001
     209         -0.318151        2.000000        0.00000058        0.00000186        0.00000004
     210         -0.317254        2.000000        0.00000003        0.00000013        0.00000000
     211         -0.316615        2.000000        0.00000002        0.00000010        0.00000000
     212         -0.316317        2.000000        0.00196805        0.00555071        0.00011662
     213         -0.315885        2.000000        0.00000620        0.00001753        0.00000043
     214         -0.315512        2.000000        0.00000015        0.00000074        0.00000002
     215         -0.314742        2.000000        0.00000102        0.00000327        0.00000009
     216         -0.314240        2.000000        0.00000075        0.00000225        0.00000005
     217         -0.313093        2.000000        0.00000296        0.00000942        0.00000017
     218         -0.312538        2.000000        0.00000281        0.00000877        0.00000023
     219         -0.312396        2.000000        0.00000248        0.00000805        0.00000018
     220         -0.312037        2.000000        0.00000054        0.00000261        0.00000007
     221         -0.310598        2.000000        0.00000157        0.00000402        0.00000012
     222         -0.310221        2.000000        0.00000102        0.00000310        0.00000007
     223         -0.309408        2.000000        0.00000073        0.00000224        0.00000004
     224         -0.309395        2.000000        0.00000165        0.00000449        0.00000011
     225         -0.309234        2.000000        0.00000091        0.00000266        0.00000007
     226         -0.308381        2.000000        0.00004675        0.00016043        0.00000228
     227         -0.308250        2.000000        0.00104842        0.00359579        0.00004744
     228         -0.308097        2.000000        0.00001641        0.00005901        0.00000069
     229         -0.307179        2.000000        0.00000118        0.00000677        0.00000006
     230         -0.305966        2.000000        0.00004082        0.00012248        0.00000284
     231         -0.305190        2.000000        0.00009653        0.00028473        0.00000542
     232         -0.305170        2.000000        0.00001582        0.00005792        0.00000083
     233         -0.303881        2.000000        0.00002354        0.00009837        0.00000152
     234         -0.303186        2.000000        0.00000009        0.00000046        0.00000001
     235         -0.302644        2.000000        0.00000126        0.00000415        0.00000014
     236         -0.302137        2.000000        0.00000856        0.00002671        0.00000074
     237         -0.301410        2.000000        0.00000008        0.00000065        0.00000000
     238         -0.301270        2.000000        0.00000509        0.00001437        0.00000047
     239         -0.300504        2.000000        0.00000202        0.00000665        0.00000024
     240         -0.300347        2.000000        0.00001942        0.00004698        0.00000170
     241         -0.300010        2.000000        0.00001229        0.00008038        0.00000065
     242         -0.298878        2.000000        0.00000086        0.00000227        0.00000005
     243         -0.298505        2.000000        0.00000349        0.00000910        0.00000033
     244         -0.297847        2.000000        0.00000053        0.00000188        0.00000005
     245         -0.297156        2.000000        0.00000053        0.00000224        0.00000004
     246         -0.297046        2.000000        0.00000068        0.00000208        0.00000007
     247         -0.296671        2.000000        0.00000027        0.00000118        0.00000001
     248         -0.296618        2.000000        0.00000037        0.00000142        0.00000002
     249         -0.295969        2.000000        0.00000190        0.00000572        0.00000015
     250         -0.295348        2.000000        0.00001159        0.00003314        0.00000103
     251         -0.295087        2.000000        0.00000013        0.00000042        0.00000001
     252         -0.294369        2.000000        0.00000097        0.00000235        0.00000007
     253         -0.294183        2.000000        0.00000252        0.00000653        0.00000022
     254         -0.293640        2.000000        0.00000053        0.00000192        0.00000005
     255         -0.293246        2.000000        0.00000067        0.00000158        0.00000004
     256         -0.292577        2.000000        0.00000001        0.00000018        0.00000000
     257         -0.291994        2.000000        0.00000451        0.00001713        0.00000031
     258         -0.291705        2.000000        0.00000105        0.00000315        0.00000007
     259         -0.290928        2.000000        0.00000960        0.00003240        0.00000069
     260         -0.290306        2.000000        0.00000326        0.00001707        0.00000014
     261         -0.289901        2.000000        0.00003749        0.00012758        0.00000236
     262         -0.289451        2.000000        0.00000023        0.00000506        0.00000005
     263         -0.289043        2.000000        0.00000073        0.00000469        0.00000003
     264         -0.288015        2.000000        0.00000574        0.00001739        0.00000036
     265         -0.287861        2.000000        0.00002598        0.00009344        0.00000177
     266         -0.286936        2.000000        0.00000023        0.00000081        0.00000001
     267         -0.286667        2.000000        0.00000067        0.00000235        0.00000005
     268         -0.286302        2.000000        0.00000032        0.00000107        0.00000003
     269         -0.285607        2.000000        0.00000152        0.00000688        0.00000012
     270         -0.285328        2.000000        0.00000158        0.00000696        0.00000012
     271         -0.285085        2.000000        0.00000081        0.00000194        0.00000007
     272         -0.284841        2.000000        0.00000086        0.00000511        0.00000007
     273         -0.284131        2.000000        0.00000075        0.00000347        0.00000005
     274         -0.283572        2.000000        0.00000096        0.00000680        0.00000010
     275         -0.283249        2.000000        0.00000126        0.00000781        0.00000014
     276         -0.283050        2.000000        0.00000113        0.00000753        0.00000014
     277         -0.282957        2.000000        0.00000019        0.00000072        0.00000002
     278         -0.282638        2.000000        0.00000202        0.00001141        0.00000019
     279         -0.282393        2.000000        0.00004855        0.00028024        0.00000475
     280         -0.282190        2.000000        0.00000089        0.00000439        0.00000010
     281         -0.281812        2.000000        0.00000042        0.00000198        0.00000003
     282         -0.281718        2.000000        0.00000165        0.00000823        0.00000017
     283         -0.281529        2.000000        0.00001455        0.00005837        0.00000128
     284         -0.281304        2.000000        0.00002052        0.00008555        0.00000185
     285         -0.281056        2.000000        0.00001715        0.00006336        0.00000135
     286         -0.280948        2.000000        0.00000261        0.00000992        0.00000023
     287         -0.280843        2.000000        0.00000666        0.00002560        0.00000038
     288         -0.280780        2.000000        0.00000171        0.00000946        0.00000012
     289         -0.280282        2.000000        0.00001084        0.00004687        0.00000091
     290         -0.279956        2.000000        0.00000143        0.00000653        0.00000012
     291         -0.279807        2.000000        0.00001088        0.00004609        0.00000093
     292         -0.279686        2.000000        0.00009039        0.00039939        0.00000748
     293         -0.279589        2.000000        0.00000586        0.00002456        0.00000049
     294         -0.279495        2.000000        0.00002658        0.00013936        0.00000190
     295         -0.279217        2.000000        0.00000024        0.00000557        0.00000006
     296         -0.279093        2.000000        0.00001290        0.00016124        0.00000158
     297         -0.278951        2.000000        0.00000268        0.00001971        0.00000035
     298         -0.278592        2.000000        0.00000876        0.00003958        0.00000097
     299         -0.278433        2.000000        0.00000159        0.00000900        0.00000012
     300         -0.278210        2.000000        0.00000548        0.00002125        0.00000044
     301         -0.278135        2.000000        0.00000007        0.00000045        0.00000001
     302         -0.278031        2.000000        0.00000083        0.00000316        0.00000005
     303         -0.277650        2.000000        0.00003041        0.00012067        0.00000237
     304         -0.277312        2.000000        0.00001304        0.00006119        0.00000097
     305         -0.276990        2.000000        0.00007087        0.00028842        0.00000545
     306         -0.276609        2.000000        0.00000467        0.00001623        0.00000036
     307         -0.276405        2.000000        0.00005505        0.00023179        0.00000389