# Projected DOS for list 94 of 3 atoms, at iteration step i = 0, E(Fermi) =    -0.060510 a.u.
#     MO Eigenvalue [a.u.]      Occupation                 s                 p                 d
       1         -0.895259        2.000000        0.00000000        0.00000000        0.00000000
       2         -0.868125        2.000000        0.00000017        0.00000023        0.00000001
       3         -0.864615        2.000000        0.00000022        0.00000030        0.00000001
       4         -0.857993        2.000000        0.00000699        0.00000699        0.00000004
       5         -0.853826        2.000000        0.00032044        0.00028711        0.00000093
       6         -0.850378        2.000000        0.00000002        0.00000008        0.00000000
       7         -0.848222        2.000000        0.00000882        0.00000470        0.00000003
       8         -0.847335        2.000000        0.00425336        0.00277209        0.00001527
       9         -0.842977        2.000000        0.00000052        0.00000044        0.00000000
      10         -0.841504        2.000000        0.00022058        0.00020124        0.00000164
      11         -0.840654        2.000000        0.00054824        0.00041191        0.00000356
      12         -0.839688        2.000000        0.00051877        0.00010836        0.00000210
      13         -0.839172        2.000000        0.00007460        0.00041439        0.00000128
      14         -0.838522        2.000000        0.00001571        0.00006192        0.00000018
      15         -0.837015        2.000000        0.00060488        0.00066498        0.00000375
      16         -0.832753        2.000000        0.00299197        0.00054939        0.00001275
      17         -0.832000        2.000000        0.00608194        0.00602751        0.00004732
      18         -0.831644        2.000000        0.01351978        0.00158749        0.00005716
      19         -0.830027        2.000000        0.00043684        0.00009222        0.00000150
      20         -0.829447        2.000000        0.01086585        0.00218136        0.00003942
      21         -0.828640        2.000000        0.00380754        0.00099771        0.00001530
      22         -0.828147        2.000000        0.00028339        0.00007320        0.00000052
      23         -0.827394        2.000000        0.00013814        0.00069549        0.00000625
      24         -0.826637        2.000000        0.00000466        0.00001685        0.00000010
      25         -0.825864        2.000000        0.00004797        0.00020232        0.00000141
      26         -0.825007        2.000000        0.00081962        0.00015443        0.00000059
      27         -0.824149        2.000000        0.00020008        0.00020702        0.00000296
      28         -0.823003        2.000000        0.00001315        0.00016757        0.00000231
      29         -0.821982        2.000000        0.00042134        0.00024041        0.00000077
      30         -0.820560        2.000000        0.00052214        0.00035016        0.00000438
      31         -0.820223        2.000000        0.00002534        0.00043709        0.00001023
      32         -0.820029        2.000000        0.00015012        0.00005249        0.00000124
      33         -0.819390        2.000000        0.00008118        0.00025764        0.00000691
      34         -0.818664        2.000000        0.00010479        0.00003168        0.00000039
      35         -0.817548        2.000000        0.00083592        0.00032391        0.00000235
      36         -0.816472        2.000000        0.00058286        0.00035819        0.00000285
      37         -0.815444        2.000000        0.00729932        0.00115920        0.00001119
      38         -0.814805        2.000000        0.00107941        0.00023140        0.00000088
      39         -0.814124        2.000000        0.00092017        0.00083046        0.00000586
      40         -0.813968        2.000000        0.00002128        0.00023526        0.00000485
      41         -0.813053        2.000000        0.00037850        0.00006020        0.00000247
      42         -0.812601        2.000000        0.00020549        0.00006986        0.00000073
      43         -0.811948        2.000000        0.00197622        0.00049222        0.00000127
      44         -0.811687        2.000000        0.00026200        0.00017770        0.00000127
      45         -0.810574        2.000000        0.00148967        0.00043303        0.00000338
      46         -0.809310        2.000000        0.00006030        0.00002247        0.00000046
      47         -0.808268        2.000000        0.00011168        0.00001758        0.00000038
      48         -0.807324        2.000000        0.00252265        0.00055275        0.00000558
      49         -0.806602        2.000000        0.00658140        0.00146560        0.00001248
      50         -0.806376        2.000000        0.01434822        0.00298665        0.00003198
      51         -0.806147        2.000000        0.02328947        0.00487593        0.00004999
      52         -0.804835        2.000000        0.03178923        0.00866624        0.00003895
      53         -0.804321        2.000000        0.00064076        0.00012094        0.00000193
      54         -0.803943        2.000000        0.00457652        0.00122992        0.00000606
      55         -0.803401        2.000000        0.01295954        0.00431470        0.00002082
      56         -0.802648        2.000000        0.14042272        0.03738427        0.00023816
      57         -0.801912        2.000000        0.16173524        0.04390341        0.00027235
      58         -0.801342        2.000000        0.19956055        0.05541535        0.00032867
      59         -0.800594        2.000000        0.02606832        0.00773443        0.00004195
      60         -0.799945        2.000000        0.00889759        0.00248683        0.00001498
      61         -0.799254        2.000000        0.00255302        0.00069079        0.00000463
      62         -0.798331        2.000000        0.00781562        0.00200635        0.00001608
      63         -0.797356        2.000000        0.00070875        0.00017215        0.00000173
      64         -0.795713        2.000000        0.00016154        0.00006357        0.00000030
      65         -0.795144        2.000000        0.00046069        0.00014204        0.00000095
      66         -0.794508        2.000000        0.00179319        0.00040344        0.00000824
      67         -0.793501        2.000000        0.00047763        0.00015992        0.00000165
      68         -0.792888        2.000000        0.00864821        0.00243504        0.00002523
      69         -0.792771        2.000000        0.00029950        0.00010092        0.00000208
      70         -0.792166        2.000000        0.00277841        0.00077610        0.00000779
      71         -0.791795        2.000000        0.00008833        0.00004270        0.00000110
      72         -0.790466        2.000000        0.00001789        0.00006268        0.00000103
      73         -0.789691        2.000000        0.00046891        0.00045397        0.00000817
      74         -0.789018        2.000000        0.00021474        0.00008216        0.00000109
      75         -0.788284        2.000000        0.05539239        0.01541557        0.00033710
      76         -0.787044        2.000000        0.00116790        0.00039221        0.00000401
      77         -0.785765        2.000000        0.00459284        0.00132066        0.00003748
      78         -0.783215        2.000000        0.00014240        0.00004614        0.00000160
      79         -0.782853        2.000000        0.00047915        0.00015682        0.00000543
      80         -0.782388        2.000000        0.00036273        0.00015566        0.00000457
      81         -0.781821        2.000000        0.00000076        0.00000055        0.00000000
      82         -0.780108        2.000000        0.00000209        0.00000169        0.00000003
      83         -0.778906        2.000000        0.00000012        0.00000005        0.00000000
      84         -0.778076        2.000000        0.00000014        0.00000019        0.00000000
      85         -0.775317        2.000000        0.00000145        0.00000125        0.00000003
      86         -0.773086        2.000000        0.00001802        0.00002417        0.00000042
      87         -0.772920        2.000000        0.00000145        0.00000165        0.00000003
      88         -0.771409        2.000000        0.00000022        0.00000045        0.00000001
      89         -0.769725        2.000000        0.00000060        0.00000046        0.00000003
      90         -0.769226        2.000000        0.00001007        0.00000460        0.00000024
      91         -0.767566        2.000000        0.00000576        0.00000262        0.00000011
      92         -0.766737        2.000000        0.00000053        0.00000095        0.00000007
      93         -0.755845        2.000000        0.00000004        0.00000004        0.00000000
      94         -0.752538        2.000000        0.00000006        0.00000020        0.00000000
      95         -0.747161        2.000000        0.00000000        0.00000000        0.00000000
      96         -0.736999        2.000000        0.00000000        0.00000001        0.00000000
      97         -0.726419        2.000000        0.00000000        0.00000000        0.00000000
      98         -0.719129        2.000000        0.00000000        0.00000000        0.00000000
      99         -0.696511        2.000000        0.00000000        0.00000000        0.00000000
     100         -0.460315        2.000000        0.00000000        0.00000000        0.00000000
     101         -0.427906        2.000000        0.00000005        0.00000029        0.00000000
     102         -0.424376        2.000000        0.00000001        0.00000003        0.00000000
     103         -0.405781        2.000000        0.00000158        0.00000631        0.00000009
     104         -0.401299        2.000000        0.00000900        0.00004286        0.00000051
     105         -0.398347        2.000000        0.00000011        0.00000070        0.00000002
     106         -0.398267        2.000000        0.00002272        0.00008493        0.00000114
     107         -0.397295        2.000000        0.00000060        0.00000194        0.00000003
     108         -0.395753        2.000000        0.00000414        0.00002352        0.00000027
     109         -0.395158        2.000000        0.00006606        0.00031131        0.00000366
     110         -0.394493        2.000000        0.00000462        0.00004976        0.00000022
     111         -0.394192        2.000000        0.00005155        0.00048267        0.00000295
     112         -0.393919        2.000000        0.00002039        0.00014581        0.00000114
     113         -0.393017        2.000000        0.00001193        0.00005184        0.00000061
     114         -0.391793        2.000000        0.00000377        0.00002316        0.00000021
     115         -0.389280        2.000000        0.00015871        0.00051345        0.00000990
     116         -0.388145        2.000000        0.00000065        0.00000285        0.00000004
     117         -0.387090        2.000000        0.00006534        0.00036968        0.00000485
     118         -0.386138        2.000000        0.00030991        0.00096467        0.00001518
     119         -0.385161        2.000000        0.00016734        0.00056426        0.00000988
     120         -0.384984        2.000000        0.00151943        0.00668367        0.00008553
     121         -0.383823        2.000000        0.00000507        0.00016194        0.00000133
     122         -0.383101        2.000000        0.00008713        0.00027607        0.00000471
     123         -0.383025        2.000000        0.00012376        0.00097189        0.00000840
     124         -0.381208        2.000000        0.00225203        0.00714118        0.00012083
     125         -0.380660        2.000000        0.00142739        0.00430021        0.00007887
     126         -0.380323        2.000000        0.00036612        0.00132740        0.00001846
     127         -0.379623        2.000000        0.00041037        0.00123032        0.00002259
     128         -0.379161        2.000000        0.00035965        0.00097868        0.00002105
     129         -0.378115        2.000000        0.00027876        0.00079370        0.00001560
     130         -0.377757        2.000000        0.00004650        0.00012750        0.00000321
     131         -0.377213        2.000000        0.00226199        0.00667113        0.00012887
     132         -0.376655        2.000000        0.00252314        0.00724301        0.00014466
     133         -0.376089        2.000000        0.00072925        0.00200771        0.00004368
     134         -0.375522        2.000000        0.00124847        0.00329291        0.00007732
     135         -0.373953        2.000000        0.00268078        0.00800390        0.00017030
     136         -0.373564        2.000000        0.00003862        0.00014740        0.00000263
     137         -0.372991        2.000000        0.00184675        0.00509411        0.00010883
     138         -0.372433        2.000000        0.00008144        0.00024032        0.00000456
     139         -0.372037        2.000000        0.00548186        0.01437152        0.00034140
     140         -0.371632        2.000000        0.00004805        0.00024780        0.00000579
     141         -0.371006        2.000000        0.00140507        0.00363611        0.00009170
     142         -0.369840        2.000000        0.00029741        0.00077869        0.00001793
     143         -0.369635        2.000000        0.00183179        0.00481148        0.00011073
     144         -0.369153        2.000000        0.00046736        0.00123124        0.00002855
     145         -0.369131        2.000000        0.00105204        0.00272310        0.00006623
     146         -0.368498        2.000000        0.00461240        0.01206938        0.00027532
     147         -0.367984        2.000000        0.02681668        0.06934278        0.00163782
     148         -0.367257        2.000000        0.00021851        0.00078743        0.00001478
     149         -0.366951        2.000000        0.00001762        0.00008184        0.00000158
     150         -0.366882        2.000000        0.00001260        0.00012899        0.00000129
     151         -0.366558        2.000000        0.00001149        0.00005246        0.00000105
     152         -0.366087        2.000000        0.00210380        0.00552764        0.00014848
     153         -0.365532        2.000000        0.00746518        0.02140676        0.00043841
     154         -0.365292        2.000000        0.00469476        0.01305850        0.00027392
     155         -0.364873        2.000000        0.00425258        0.01125580        0.00025055
     156         -0.364499        2.000000        0.00231945        0.00608184        0.00013985
     157         -0.364385        2.000000        0.00036814        0.00096049        0.00002379
     158         -0.363409        2.000000        0.14503412        0.37801405        0.00870132
     159         -0.362731        2.000000        0.00005263        0.00016350        0.00000295
     160         -0.361690        2.000000        0.00039122        0.00114370        0.00001882
     161         -0.361463        2.000000        0.00035351        0.00097348        0.00002447
     162         -0.360695        2.000000        0.00128954        0.00345886        0.00007508
     163         -0.359909        2.000000        0.00012342        0.00038824        0.00000909
     164         -0.358869        2.000000        0.00042474        0.00131226        0.00002159
     165         -0.358762        2.000000        0.00019039        0.00050572        0.00001117
     166         -0.358424        2.000000        0.00026196        0.00088688        0.00001328
     167         -0.357749        2.000000        0.00000544        0.00002266        0.00000047
     168         -0.357432        2.000000        0.00017712        0.00048086        0.00001142
     169         -0.356226        2.000000        0.00001421        0.00005862        0.00000098
     170         -0.355206        2.000000        0.00020783        0.00050576        0.00000857
     171         -0.354151        2.000000        0.00022154        0.00059061        0.00001288
     172         -0.353675        2.000000        0.00006777        0.00031303        0.00000735
     173         -0.353241        2.000000        0.01123406        0.02845400        0.00070128
     174         -0.352384        2.000000        0.00026727        0.00069392        0.00001579
     175         -0.349281        2.000000        0.00013200        0.00033822        0.00000856
     176         -0.348101        2.000000        0.00098434        0.00250294        0.00005660
     177         -0.347056        2.000000        0.00055651        0.00146765        0.00003643
     178         -0.346421        2.000000        0.00013454        0.00034316        0.00000774
     179         -0.346099        2.000000        0.00057305        0.00141088        0.00003620
     180         -0.344626        2.000000        0.00000215        0.00000651        0.00000024
     181         -0.344227        2.000000        0.00000220        0.00000590        0.00000014
     182         -0.344158        2.000000        0.00004897        0.00013715        0.00000289
     183         -0.343279        2.000000        0.00052921        0.00130644        0.00003618
     184         -0.342186        2.000000        0.00002079        0.00005978        0.00000113
     185         -0.341638        2.000000        0.00003338        0.00010361        0.00000233
     186         -0.341223        2.000000        0.00001764        0.00006369        0.00000104
     187         -0.341051        2.000000        0.00000210        0.00000825        0.00000016
     188         -0.340810        2.000000        0.00000661        0.00002249        0.00000044
     189         -0.340344        2.000000        0.00008540        0.00021849        0.00000619
     190         -0.340103        2.000000        0.00004386        0.00017612        0.00000452
     191         -0.339538        2.000000        0.00001599        0.00003440        0.00000084
     192         -0.338904        2.000000        0.00000292        0.00000707        0.00000017
     193         -0.338737        2.000000        0.00000416        0.00002377        0.00000044
     194         -0.337951        2.000000        0.00002322        0.00022096        0.00000319
     195         -0.337180        2.000000        0.00000204        0.00001592        0.00000033
     196         -0.336960        2.000000        0.00000359        0.00002589        0.00000012
     197         -0.336163        2.000000        0.00001233        0.00012644        0.00000252
     198         -0.335733        2.000000        0.00001317        0.00013130        0.00000258
     199         -0.334956        2.000000        0.00009215        0.00027399        0.00000657
     200         -0.333834        2.000000        0.00000751        0.00003209        0.00000046
     201         -0.331670        2.000000        0.00006582        0.00033307        0.00000417
     202         -0.330715        2.000000        0.00000571        0.00002770        0.00000033
     203         -0.327469        2.000000        0.00000206        0.00001378        0.00000013
     204         -0.326924        2.000000        0.00017729        0.00102454        0.00000805
     205         -0.319799        2.000000        0.00000264        0.00001263        0.00000011
     206         -0.319625        2.000000        0.00000035        0.00000274        0.00000004
     207         -0.318771        2.000000        0.00008175        0.00065612        0.00000863
     208         -0.318487        2.000000        0.00000212        0.00001199        0.00000010
     209         -0.318151        2.000000        0.00000730        0.00002315        0.00000057
     210         -0.317254        2.000000        0.00000061        0.00000288        0.00000004
     211         -0.316615        2.000000        0.00000090        0.00000777        0.00000002
     212         -0.316317        2.000000        0.00003783        0.00028269        0.00000373
     213         -0.315885        2.000000        0.00000317        0.00001861        0.00000008
     214         -0.315512        2.000000        0.00000481        0.00002167        0.00000032
     215         -0.314742        2.000000        0.00000026        0.00000633        0.00000003
     216         -0.314240        2.000000        0.00001104        0.00005662        0.00000014
     217         -0.313093        2.000000        0.00002131        0.00009606        0.00000133
     218         -0.312538        2.000000        0.00002762        0.00009947        0.00000037
     219         -0.312396        2.000000        0.00000641        0.00004726        0.00000067
     220         -0.312037        2.000000        0.00000479        0.00003949        0.00000015
     221         -0.310598        2.000000        0.00000502        0.00001654        0.00000031
     222         -0.310221        2.000000        0.00001868        0.00007092        0.00000083
     223         -0.309408        2.000000        0.00000304        0.00001357        0.00000026
     224         -0.309395        2.000000        0.00000255        0.00001027        0.00000012
     225         -0.309234        2.000000        0.00000195        0.00000686        0.00000004
     226         -0.308381        2.000000        0.00015736        0.00135063        0.00001668
     227         -0.308250        2.000000        0.00530828        0.04033728        0.00049399
     228         -0.308097        2.000000        0.00011140        0.00088198        0.00000927
     229         -0.307179        2.000000        0.00002300        0.00016468        0.00000150
     230         -0.305966        2.000000        0.00011721        0.00040295        0.00000476
     231         -0.305190        2.000000        0.00001477        0.00007464        0.00000100
     232         -0.305170        2.000000        0.00002118        0.00012862        0.00000168
     233         -0.303881        2.000000        0.00000070        0.00000268        0.00000004
     234         -0.303186        2.000000        0.00000194        0.00000885        0.00000006
     235         -0.302644        2.000000        0.00001108        0.00007372        0.00000015
     236         -0.302137        2.000000        0.00002335        0.00014565        0.00000009
     237         -0.301410        2.000000        0.00000484        0.00001220        0.00000027
     238         -0.301270        2.000000        0.00001496        0.00015306        0.00000033
     239         -0.300504        2.000000        0.00002544        0.00010418        0.00000032
     240         -0.300347        2.000000        0.00006126        0.00049940        0.00000286
     241         -0.300010        2.000000        0.00000010        0.00000122        0.00000001
     242         -0.298878        2.000000        0.00000494        0.00002169        0.00000014
     243         -0.298505        2.000000        0.00001935        0.00019696        0.00000153
     244         -0.297847        2.000000        0.00001445        0.00009005        0.00000063
     245         -0.297156        2.000000        0.00001636        0.00004098        0.00000058
     246         -0.297046        2.000000        0.00000449        0.00000662        0.00000009
     247         -0.296671        2.000000        0.00003237        0.00009197        0.00000078
     248         -0.296618        2.000000        0.00001724        0.00010960        0.00000093
     249         -0.295969        2.000000        0.00001627        0.00006388        0.00000046
     250         -0.295348        2.000000        0.00000756        0.00005169        0.00000038
     251         -0.295087        2.000000        0.00001344        0.00005836        0.00000059
     252         -0.294369        2.000000        0.00000847        0.00002121        0.00000008
     253         -0.294183        2.000000        0.00000274        0.00002102        0.00000011
     254         -0.293640        2.000000        0.00008410        0.00036766        0.00000202
     255         -0.293246        2.000000        0.00000330        0.00003185        0.00000009
     256         -0.292577        2.000000        0.00000341        0.00004025        0.00000012
     257         -0.291994        2.000000        0.00051186        0.00231624        0.00001435
     258         -0.291705        2.000000        0.00005582        0.00020922        0.00000197
     259         -0.290928        2.000000        0.00001103        0.00013670        0.00000036
     260         -0.290306        2.000000        0.00036482        0.00184846        0.00001378
     261         -0.289901        2.000000        0.00017359        0.00070906        0.00000586
     262         -0.289451        2.000000        0.00003131        0.00013542        0.00000135
     263         -0.289043        2.000000        0.00006792        0.00025016        0.00000124
     264         -0.288015        2.000000        0.00057544        0.00228119        0.00001574
     265         -0.287861        2.000000        0.00501973        0.01976822        0.00015679
     266         -0.286936        2.000000        0.00000086        0.00000814        0.00000005
     267         -0.286667        2.000000        0.00019873        0.00079454        0.00000583
     268         -0.286302        2.000000        0.00000800        0.00003541        0.00000026
     269         -0.285607        2.000000        0.00007989        0.00032465        0.00000204
     270         -0.285328        2.000000        0.00025737        0.00104284        0.00000871
     271         -0.285085        2.000000        0.00005815        0.00022741        0.00000151
     272         -0.284841        2.000000        0.00000372        0.00001108        0.00000009
     273         -0.284131        2.000000        0.00005843        0.00023937        0.00000186
     274         -0.283572        2.000000        0.00001205        0.00003755        0.00000050
     275         -0.283249        2.000000        0.00004881        0.00022984        0.00000172
     276         -0.283050        2.000000        0.00002344        0.00010128        0.00000081
     277         -0.282957        2.000000        0.00001500        0.00005963        0.00000062
     278         -0.282638        2.000000        0.00003756        0.00013304        0.00000124
     279         -0.282393        2.000000        0.00024109        0.00072662        0.00000658
     280         -0.282190        2.000000        0.00000268        0.00000781        0.00000009
     281         -0.281812        2.000000        0.00000444        0.00002365        0.00000009
     282         -0.281718        2.000000        0.00000341        0.00002734        0.00000013
     283         -0.281529        2.000000        0.00000777        0.00005000        0.00000047
     284         -0.281304        2.000000        0.00002773        0.00007955        0.00000073
     285         -0.281056        2.000000        0.00000403        0.00001542        0.00000030
     286         -0.280948        2.000000        0.00000857        0.00005114        0.00000036
     287         -0.280843        2.000000        0.00000079        0.00001094        0.00000017
     288         -0.280780        2.000000        0.00000809        0.00003831        0.00000049
     289         -0.280282        2.000000        0.00000485        0.00003161        0.00000029
     290         -0.279956        2.000000        0.00000050        0.00001178        0.00000006
     291         -0.279807        2.000000        0.00000274        0.00001264        0.00000010
     292         -0.279686        2.000000        0.00005262        0.00032919        0.00000190
     293         -0.279589        2.000000        0.00000191        0.00000976        0.00000013
     294         -0.279495        2.000000        0.00000425        0.00001313        0.00000015
     295         -0.279217        2.000000        0.00002959        0.00021436        0.00000106
     296         -0.279093        2.000000        0.00012809        0.00092167        0.00000735
     297         -0.278951        2.000000        0.00008952        0.00057613        0.00000281
     298         -0.278592        2.000000        0.00001310        0.00009054        0.00000028
     299         -0.278433        2.000000        0.00002576        0.00009698        0.00000129
     300         -0.278210        2.000000        0.00000836        0.00003933        0.00000007
     301         -0.278135        2.000000        0.00000055        0.00000937        0.00000004
     302         -0.278031        2.000000        0.00000412        0.00002017        0.00000016
     303         -0.277650        2.000000        0.00002139        0.00011704        0.00000091
     304         -0.277312        2.000000        0.00000875        0.00004463        0.00000034
     305         -0.276990        2.000000        0.00008972        0.00045700        0.00000211
     306         -0.276609        2.000000        0.00000799        0.00002222        0.00000023
     307         -0.276405        2.000000        0.00007522        0.00028886        0.00000198