# Projected DOS for list 45 of 3 atoms, at iteration step i = 0, E(Fermi) =    -0.060510 a.u.
#     MO Eigenvalue [a.u.]      Occupation                 s                 p                 d
       1         -0.895259        2.000000        0.00000000        0.00000000        0.00000000
       2         -0.868125        2.000000        0.00000001        0.00000001        0.00000000
       3         -0.864615        2.000000        0.00000007        0.00000003        0.00000000
       4         -0.857993        2.000000        0.00000845        0.00000140        0.00000004
       5         -0.853826        2.000000        0.05020095        0.01489497        0.00036969
       6         -0.850378        2.000000        0.00001948        0.00000811        0.00000015
       7         -0.848222        2.000000        0.00008396        0.00006301        0.00000089
       8         -0.847335        2.000000        0.00058253        0.00316496        0.00002609
       9         -0.842977        2.000000        0.00000707        0.00000382        0.00000006
      10         -0.841504        2.000000        0.00114704        0.00049999        0.00000984
      11         -0.840654        2.000000        0.00012136        0.00020364        0.00000164
      12         -0.839688        2.000000        0.00076975        0.00018727        0.00000377
      13         -0.839172        2.000000        0.00160731        0.00064809        0.00000972
      14         -0.838522        2.000000        0.00022217        0.00018181        0.00000131
      15         -0.837015        2.000000        0.00437495        0.00250361        0.00005119
      16         -0.832753        2.000000        0.00044266        0.00018518        0.00000165
      17         -0.832000        2.000000        0.00346064        0.00142565        0.00002235
      18         -0.831644        2.000000        0.00888029        0.00168607        0.00003904
      19         -0.830027        2.000000        0.00012129        0.00001365        0.00000028
      20         -0.829447        2.000000        0.00160690        0.00022982        0.00000324
      21         -0.828640        2.000000        0.00052379        0.00022833        0.00000069
      22         -0.828147        2.000000        0.00198092        0.00033206        0.00000542
      23         -0.827394        2.000000        0.00001176        0.00004457        0.00000043
      24         -0.826637        2.000000        0.00148087        0.00033524        0.00000130
      25         -0.825864        2.000000        0.00104572        0.00023449        0.00000092
      26         -0.825007        2.000000        0.00023503        0.00008077        0.00000019
      27         -0.824149        2.000000        0.00635247        0.00126499        0.00002345
      28         -0.823003        2.000000        0.00003596        0.00005787        0.00000058
      29         -0.821982        2.000000        0.03027646        0.00680583        0.00012086
      30         -0.820560        2.000000        0.00223053        0.00053793        0.00000317
      31         -0.820223        2.000000        0.00285386        0.00082141        0.00000991
      32         -0.820029        2.000000        0.00004190        0.00027705        0.00000172
      33         -0.819390        2.000000        0.00047382        0.00008029        0.00000296
      34         -0.818664        2.000000        0.00936458        0.00347252        0.00000706
      35         -0.817548        2.000000        0.00064737        0.00028358        0.00000048
      36         -0.816472        2.000000        0.05989359        0.01089235        0.00023255
      37         -0.815444        2.000000        0.03800828        0.00737035        0.00014703
      38         -0.814805        2.000000        0.00006466        0.00001836        0.00000042
      39         -0.814124        2.000000        0.00373818        0.00084545        0.00002025
      40         -0.813968        2.000000        0.00051482        0.00011691        0.00000340
      41         -0.813053        2.000000        0.00112467        0.00277938        0.00004197
      42         -0.812601        2.000000        0.00022225        0.00025920        0.00000334
      43         -0.811948        2.000000        0.00009921        0.00046654        0.00000273
      44         -0.811687        2.000000        0.00003027        0.00022500        0.00000302
      45         -0.810574        2.000000        0.00000751        0.00001556        0.00000007
      46         -0.809310        2.000000        0.00000412        0.00000428        0.00000007
      47         -0.808268        2.000000        0.00013361        0.00029927        0.00000095
      48         -0.807324        2.000000        0.00001238        0.00008510        0.00000043
      49         -0.806602        2.000000        0.00059597        0.00233052        0.00000928
      50         -0.806376        2.000000        0.00006919        0.00043321        0.00000089
      51         -0.806147        2.000000        0.00039232        0.00023079        0.00000100
      52         -0.804835        2.000000        0.00027236        0.00011707        0.00000023
      53         -0.804321        2.000000        0.00043612        0.00042707        0.00000094
      54         -0.803943        2.000000        0.00098584        0.00108393        0.00000303
      55         -0.803401        2.000000        0.00000818        0.00008161        0.00000063
      56         -0.802648        2.000000        0.00141809        0.00046727        0.00000206
      57         -0.801912        2.000000        0.00065257        0.00040014        0.00000048
      58         -0.801342        2.000000        0.00035696        0.00010093        0.00000191
      59         -0.800594        2.000000        0.00015256        0.00019865        0.00000038
      60         -0.799945        2.000000        0.00004159        0.00003762        0.00000011
      61         -0.799254        2.000000        0.00052373        0.00023166        0.00000050
      62         -0.798331        2.000000        0.00016206        0.00005692        0.00000065
      63         -0.797356        2.000000        0.00002082        0.00002368        0.00000014
      64         -0.795713        2.000000        0.00858625        0.00317913        0.00001569
      65         -0.795144        2.000000        0.00110344        0.00040292        0.00000095
      66         -0.794508        2.000000        0.00222511        0.00085444        0.00000240
      67         -0.793501        2.000000        0.00002255        0.00001033        0.00000002
      68         -0.792888        2.000000        0.00408401        0.00147133        0.00000392
      69         -0.792771        2.000000        0.02046594        0.00694794        0.00002086
      70         -0.792166        2.000000        0.05125018        0.01726131        0.00005483
      71         -0.791795        2.000000        0.40724165        0.13935369        0.00044313
      72         -0.790466        2.000000        0.00001617        0.00001925        0.00000024
      73         -0.789691        2.000000        0.00062832        0.00024646        0.00000055
      74         -0.789018        2.000000        0.01396641        0.00563987        0.00001154
      75         -0.788284        2.000000        0.00002005        0.00001033        0.00000002
      76         -0.787044        2.000000        0.00270249        0.00110592        0.00000297
      77         -0.785765        2.000000        0.00000273        0.00000136        0.00000001
      78         -0.783215        2.000000        0.00000492        0.00000252        0.00000001
      79         -0.782853        2.000000        0.00000227        0.00000091        0.00000000
      80         -0.782388        2.000000        0.00002697        0.00001514        0.00000004
      81         -0.781821        2.000000        0.00000291        0.00000142        0.00000000
      82         -0.780108        2.000000        0.00068483        0.00034747        0.00000085
      83         -0.778906        2.000000        0.00000054        0.00000030        0.00000000
      84         -0.778076        2.000000        0.00000073        0.00000040        0.00000000
      85         -0.775317        2.000000        0.00030339        0.00018150        0.00000055
      86         -0.773086        2.000000        0.00018455        0.00011828        0.00000047
      87         -0.772920        2.000000        0.00001075        0.00000692        0.00000003
      88         -0.771409        2.000000        0.00000011        0.00000074        0.00000001
      89         -0.769725        2.000000        0.00000000        0.00000002        0.00000000
      90         -0.769226        2.000000        0.00000000        0.00000001        0.00000000
      91         -0.767566        2.000000        0.00000000        0.00000001        0.00000000
      92         -0.766737        2.000000        0.00000003        0.00000004        0.00000000
      93         -0.755845        2.000000        0.00000000        0.00000000        0.00000000
      94         -0.752538        2.000000        0.00000000        0.00000000        0.00000000
      95         -0.747161        2.000000        0.00000000        0.00000000        0.00000000
      96         -0.736999        2.000000        0.00000000        0.00000000        0.00000000
      97         -0.726419        2.000000        0.00000000        0.00000000        0.00000000
      98         -0.719129        2.000000        0.00000000        0.00000000        0.00000000
      99         -0.696511        2.000000        0.00000000        0.00000000        0.00000000
     100         -0.460315        2.000000        0.00000000        0.00000000        0.00000000
     101         -0.427906        2.000000        0.00000000        0.00000000        0.00000000
     102         -0.424376        2.000000        0.00000000        0.00000000        0.00000000
     103         -0.405781        2.000000        0.00000013        0.00000182        0.00000001
     104         -0.401299        2.000000        0.01102809        0.02990889        0.00057918
     105         -0.398347        2.000000        0.00001396        0.00013541        0.00000076
     106         -0.398267        2.000000        0.00157009        0.00506130        0.00008540
     107         -0.397295        2.000000        0.00009266        0.00026838        0.00000495
     108         -0.395753        2.000000        0.00927824        0.02359222        0.00049406
     109         -0.395158        2.000000        0.00186760        0.00487206        0.00009670
     110         -0.394493        2.000000        0.00006440        0.00022114        0.00000297
     111         -0.394192        2.000000        0.00567459        0.01407230        0.00030123
     112         -0.393919        2.000000        0.00192160        0.00477201        0.00010186
     113         -0.393017        2.000000        0.00096019        0.00229832        0.00005046
     114         -0.391793        2.000000        0.00025909        0.00061223        0.00001385
     115         -0.389280        2.000000        0.00626613        0.01558359        0.00031901
     116         -0.388145        2.000000        0.00000027        0.00000169        0.00000001
     117         -0.387090        2.000000        0.05295059        0.12750500        0.00275467
     118         -0.386138        2.000000        0.00022930        0.00057545        0.00001144
     119         -0.385161        2.000000        0.00013589        0.00032378        0.00000707
     120         -0.384984        2.000000        0.00234793        0.00554933        0.00012018
     121         -0.383823        2.000000        0.02796927        0.06398077        0.00151541
     122         -0.383101        2.000000        0.00016796        0.00041504        0.00000873
     123         -0.383025        2.000000        0.00026124        0.00062497        0.00001220
     124         -0.381208        2.000000        0.00007627        0.00020499        0.00000195
     125         -0.380660        2.000000        0.00006367        0.00038728        0.00000103
     126         -0.380323        2.000000        0.00381602        0.01060056        0.00017601
     127         -0.379623        2.000000        0.00001729        0.00005067        0.00000082
     128         -0.379161        2.000000        0.00361591        0.00900225        0.00020977
     129         -0.378115        2.000000        0.00224248        0.00619755        0.00010531
     130         -0.377757        2.000000        0.00099208        0.00367156        0.00003658
     131         -0.377213        2.000000        0.03287999        0.08954639        0.00154533
     132         -0.376655        2.000000        0.00557552        0.01542104        0.00025856
     133         -0.376089        2.000000        0.00036042        0.00105245        0.00002325
     134         -0.375522        2.000000        0.00316552        0.00866499        0.00014411
     135         -0.373953        2.000000        0.00313337        0.00883921        0.00014125
     136         -0.373564        2.000000        0.00022552        0.00125725        0.00003007
     137         -0.372991        2.000000        0.00005541        0.00044944        0.00000221
     138         -0.372433        2.000000        0.00076646        0.00194530        0.00003583
     139         -0.372037        2.000000        0.00026470        0.00123218        0.00000646
     140         -0.371632        2.000000        0.00017981        0.00061777        0.00000687
     141         -0.371006        2.000000        0.00762521        0.02217072        0.00032868
     142         -0.369840        2.000000        0.00001145        0.00004107        0.00000014
     143         -0.369635        2.000000        0.00039676        0.00101112        0.00001661
     144         -0.369153        2.000000        0.00008543        0.00023410        0.00000437
     145         -0.369131        2.000000        0.00032557        0.00099206        0.00001304
     146         -0.368498        2.000000        0.00147332        0.00444222        0.00006135
     147         -0.367984        2.000000        0.00743150        0.02274091        0.00028766
     148         -0.367257        2.000000        0.00002143        0.00006791        0.00000179
     149         -0.366951        2.000000        0.00001141        0.00006808        0.00000138
     150         -0.366882        2.000000        0.00019988        0.00077818        0.00001670
     151         -0.366558        2.000000        0.00016862        0.00079404        0.00001139
     152         -0.366087        2.000000        0.00063343        0.00228464        0.00003664
     153         -0.365532        2.000000        0.00011938        0.00027810        0.00000667
     154         -0.365292        2.000000        0.00004962        0.00016575        0.00000049
     155         -0.364873        2.000000        0.00001753        0.00004293        0.00000063
     156         -0.364499        2.000000        0.00017020        0.00063083        0.00001143
     157         -0.364385        2.000000        0.00005715        0.00014934        0.00000239
     158         -0.363409        2.000000        0.00076146        0.00292765        0.00001955
     159         -0.362731        2.000000        0.00007358        0.00022289        0.00000287
     160         -0.361690        2.000000        0.00008307        0.00022661        0.00000385
     161         -0.361463        2.000000        0.00009501        0.00025578        0.00000370
     162         -0.360695        2.000000        0.00004282        0.00048916        0.00001065
     163         -0.359909        2.000000        0.00001900        0.00006546        0.00000067
     164         -0.358869        2.000000        0.00002748        0.00010260        0.00000081
     165         -0.358762        2.000000        0.00000107        0.00000385        0.00000001
     166         -0.358424        2.000000        0.00001182        0.00007562        0.00000097
     167         -0.357749        2.000000        0.00001696        0.00005677        0.00000070
     168         -0.357432        2.000000        0.00008938        0.00024732        0.00000347
     169         -0.356226        2.000000        0.00001268        0.00008960        0.00000281
     170         -0.355206        2.000000        0.02039811        0.05934084        0.00071075
     171         -0.354151        2.000000        0.00137746        0.00471334        0.00005372
     172         -0.353675        2.000000        0.00011537        0.00030068        0.00000346
     173         -0.353241        2.000000        0.00064149        0.00176876        0.00002327
     174         -0.352384        2.000000        0.00122108        0.00363515        0.00003997
     175         -0.349281        2.000000        0.00004203        0.00011427        0.00000115
     176         -0.348101        2.000000        0.00001215        0.00004581        0.00000026
     177         -0.347056        2.000000        0.00000262        0.00002781        0.00000051
     178         -0.346421        2.000000        0.00001532        0.00012527        0.00000005
     179         -0.346099        2.000000        0.00000217        0.00000988        0.00000007
     180         -0.344626        2.000000        0.00016005        0.00081183        0.00001268
     181         -0.344227        2.000000        0.00000044        0.00000231        0.00000004
     182         -0.344158        2.000000        0.00001878        0.00018670        0.00000275
     183         -0.343279        2.000000        0.00001086        0.00005240        0.00000094
     184         -0.342186        2.000000        0.00005675        0.00016806        0.00000203
     185         -0.341638        2.000000        0.00014654        0.00090178        0.00000996
     186         -0.341223        2.000000        0.00000945        0.00007456        0.00000043
     187         -0.341051        2.000000        0.00000024        0.00000157        0.00000001
     188         -0.340810        2.000000        0.00001542        0.00011017        0.00000086
     189         -0.340344        2.000000        0.00008650        0.00056884        0.00000495
     190         -0.340103        2.000000        0.00000808        0.00005622        0.00000046
     191         -0.339538        2.000000        0.00011532        0.00072484        0.00000679
     192         -0.338904        2.000000        0.00003316        0.00009455        0.00000185
     193         -0.338737        2.000000        0.00000375        0.00002498        0.00000009
     194         -0.337951        2.000000        0.00001283        0.00004892        0.00000042
     195         -0.337180        2.000000        0.00000064        0.00000239        0.00000002
     196         -0.336960        2.000000        0.00000099        0.00000476        0.00000003
     197         -0.336163        2.000000        0.00000255        0.00001426        0.00000008
     198         -0.335733        2.000000        0.00000505        0.00002877        0.00000014
     199         -0.334956        2.000000        0.00000121        0.00000332        0.00000007
     200         -0.333834        2.000000        0.00000044        0.00000231        0.00000001
     201         -0.331670        2.000000        0.00003871        0.00014852        0.00000108
     202         -0.330715        2.000000        0.00000305        0.00001260        0.00000013
     203         -0.327469        2.000000        0.00000007        0.00000031        0.00000000
     204         -0.326924        2.000000        0.00000106        0.00000399        0.00000003
     205         -0.319799        2.000000        0.00000751        0.00004029        0.00000037
     206         -0.319625        2.000000        0.00000001        0.00000003        0.00000000
     207         -0.318771        2.000000        0.00000030        0.00000109        0.00000001
     208         -0.318487        2.000000        0.00000246        0.00002316        0.00000015
     209         -0.318151        2.000000        0.00035381        0.00199724        0.00001475
     210         -0.317254        2.000000        0.00005024        0.00034619        0.00000256
     211         -0.316615        2.000000        0.00009837        0.00065957        0.00000461
     212         -0.316317        2.000000        0.00000108        0.00000394        0.00000003
     213         -0.315885        2.000000        0.00008778        0.00025379        0.00000298
     214         -0.315512        2.000000        0.00010777        0.00054528        0.00000374
     215         -0.314742        2.000000        0.00028076        0.00136903        0.00000787
     216         -0.314240        2.000000        0.00000152        0.00001401        0.00000006
     217         -0.313093        2.000000        0.00057118        0.00267399        0.00002512
     218         -0.312538        2.000000        0.00039006        0.00274943        0.00001723
     219         -0.312396        2.000000        0.00026530        0.00144394        0.00001065
     220         -0.312037        2.000000        0.00185607        0.01261420        0.00007984
     221         -0.310598        2.000000        0.00085204        0.00323121        0.00003686
     222         -0.310221        2.000000        0.00073509        0.00374517        0.00003235
     223         -0.309408        2.000000        0.00005720        0.00032185        0.00000257
     224         -0.309395        2.000000        0.00067979        0.00341769        0.00002819
     225         -0.309234        2.000000        0.00023184        0.00168259        0.00000834
     226         -0.308381        2.000000        0.00082198        0.00227675        0.00003440
     227         -0.308250        2.000000        0.00002089        0.00010754        0.00000072
     228         -0.308097        2.000000        0.00074614        0.00234136        0.00003007
     229         -0.307179        2.000000        0.00275870        0.00845797        0.00011190
     230         -0.305966        2.000000        0.00098526        0.00294881        0.00004315
     231         -0.305190        2.000000        0.00001938        0.00007620        0.00000101
     232         -0.305170        2.000000        0.00000601        0.00002277        0.00000035
     233         -0.303881        2.000000        0.00000785        0.00003066        0.00000041
     234         -0.303186        2.000000        0.00009126        0.00059976        0.00000272
     235         -0.302644        2.000000        0.00194300        0.00906837        0.00007434
     236         -0.302137        2.000000        0.00008275        0.00039712        0.00000310
     237         -0.301410        2.000000        0.00134266        0.00857315        0.00004702
     238         -0.301270        2.000000        0.00009150        0.00025424        0.00000204
     239         -0.300504        2.000000        0.00107555        0.00445576        0.00004516
     240         -0.300347        2.000000        0.00515903        0.02614559        0.00017693
     241         -0.300010        2.000000        0.00000120        0.00000745        0.00000003
     242         -0.298878        2.000000        0.00814875        0.04874133        0.00028413
     243         -0.298505        2.000000        0.00138624        0.00708181        0.00005656
     244         -0.297847        2.000000        0.00021167        0.00130820        0.00000879
     245         -0.297156        2.000000        0.00302263        0.01588508        0.00010944
     246         -0.297046        2.000000        0.00481628        0.02480524        0.00017408
     247         -0.296671        2.000000        0.00246261        0.01264794        0.00009134
     248         -0.296618        2.000000        0.00038505        0.00264527        0.00001050
     249         -0.295969        2.000000        0.00057468        0.00241250        0.00002183
     250         -0.295348        2.000000        0.00300534        0.02038375        0.00009578
     251         -0.295087        2.000000        0.00054047        0.00220556        0.00001999
     252         -0.294369        2.000000        0.00497180        0.02756592        0.00016116
     253         -0.294183        2.000000        0.00006871        0.00025533        0.00000368
     254         -0.293640        2.000000        0.00595883        0.03084479        0.00018900
     255         -0.293246        2.000000        0.00459249        0.02474935        0.00015031
     256         -0.292577        2.000000        0.00014818        0.00100581        0.00000348
     257         -0.291994        2.000000        0.00073617        0.00341618        0.00002711
     258         -0.291705        2.000000        0.00007335        0.00021516        0.00000287
     259         -0.290928        2.000000        0.00508327        0.02330488        0.00016417
     260         -0.290306        2.000000        0.00033224        0.00032488        0.00001062
     261         -0.289901        2.000000        0.00013238        0.00057985        0.00000226
     262         -0.289451        2.000000        0.00273293        0.01866266        0.00007934
     263         -0.289043        2.000000        0.00143893        0.00764089        0.00004237
     264         -0.288015        2.000000        0.00005892        0.00032745        0.00000162
     265         -0.287861        2.000000        0.00003264        0.00005290        0.00000076
     266         -0.286936        2.000000        0.00002744        0.00018035        0.00000065
     267         -0.286667        2.000000        0.00002889        0.00021991        0.00000088
     268         -0.286302        2.000000        0.00182992        0.00831594        0.00005817
     269         -0.285607        2.000000        0.00011663        0.00095810        0.00000309
     270         -0.285328        2.000000        0.00004994        0.00037575        0.00000173
     271         -0.285085        2.000000        0.00040312        0.00278894        0.00001068
     272         -0.284841        2.000000        0.00021607        0.00120052        0.00000765
     273         -0.284131        2.000000        0.00007353        0.00042057        0.00000245
     274         -0.283572        2.000000        0.00031216        0.00065174        0.00001400
     275         -0.283249        2.000000        0.00019169        0.00093462        0.00000512
     276         -0.283050        2.000000        0.00016451        0.00104446        0.00000469
     277         -0.282957        2.000000        0.00008828        0.00040376        0.00000159
     278         -0.282638        2.000000        0.00001754        0.00009878        0.00000045
     279         -0.282393        2.000000        0.00132897        0.00874415        0.00004390
     280         -0.282190        2.000000        0.00001816        0.00007952        0.00000135
     281         -0.281812        2.000000        0.00027942        0.00186561        0.00000800
     282         -0.281718        2.000000        0.00020659        0.00183396        0.00000740
     283         -0.281529        2.000000        0.00007285        0.00065018        0.00000158
     284         -0.281304        2.000000        0.00003267        0.00023260        0.00000079
     285         -0.281056        2.000000        0.00005906        0.00024837        0.00000349
     286         -0.280948        2.000000        0.00036496        0.00306159        0.00000905
     287         -0.280843        2.000000        0.00011193        0.00050253        0.00000488
     288         -0.280780        2.000000        0.00005349        0.00024141        0.00000140
     289         -0.280282        2.000000        0.00015080        0.00144336        0.00000389
     290         -0.279956        2.000000        0.00026711        0.00254454        0.00000630
     291         -0.279807        2.000000        0.00002307        0.00019817        0.00000015
     292         -0.279686        2.000000        0.00044076        0.00387679        0.00000945
     293         -0.279589        2.000000        0.00033781        0.00277334        0.00001029
     294         -0.279495        2.000000        0.00081883        0.00666143        0.00001817
     295         -0.279217        2.000000        0.00015974        0.00187798        0.00000676
     296         -0.279093        2.000000        0.00013534        0.00085041        0.00000488
     297         -0.278951        2.000000        0.00066385        0.00458986        0.00001586
     298         -0.278592        2.000000        0.00102425        0.00959700        0.00002824
     299         -0.278433        2.000000        0.00079964        0.00654445        0.00002564
     300         -0.278210        2.000000        0.00008846        0.00075566        0.00000352
     301         -0.278135        2.000000        0.00045493        0.00343388        0.00001073
     302         -0.278031        2.000000        0.00001196        0.00018870        0.00000095
     303         -0.277650        2.000000        0.00004884        0.00007220        0.00000124
     304         -0.277312        2.000000        0.00144819        0.01177402        0.00003732
     305         -0.276990        2.000000        0.00031924        0.00269236        0.00000748
     306         -0.276609        2.000000        0.00000153        0.00001538        0.00000021
     307         -0.276405        2.000000        0.00010161        0.00054389        0.00000454