# Projected DOS for list 50 of 3 atoms, at iteration step i = 0, E(Fermi) =    -0.060510 a.u.
#     MO Eigenvalue [a.u.]      Occupation                 s                 p                 d
       1         -0.895259        2.000000        0.00000001        0.00000002        0.00000000
       2         -0.868125        2.000000        0.00000003        0.00000003        0.00000000
       3         -0.864615        2.000000        0.00000003        0.00000003        0.00000000
       4         -0.857993        2.000000        0.00000112        0.00000093        0.00000000
       5         -0.853826        2.000000        0.00002567        0.00001647        0.00000011
       6         -0.850378        2.000000        0.00000023        0.00000007        0.00000000
       7         -0.848222        2.000000        0.00000692        0.00000327        0.00000002
       8         -0.847335        2.000000        0.00045639        0.00022832        0.00000082
       9         -0.842977        2.000000        0.00001584        0.00000352        0.00000013
      10         -0.841504        2.000000        0.00001911        0.00000929        0.00000022
      11         -0.840654        2.000000        0.00000037        0.00000268        0.00000004
      12         -0.839688        2.000000        0.00002039        0.00004382        0.00000038
      13         -0.839172        2.000000        0.00004686        0.00005837        0.00000126
      14         -0.838522        2.000000        0.00000156        0.00001320        0.00000008
      15         -0.837015        2.000000        0.00005177        0.00011670        0.00000080
      16         -0.832753        2.000000        0.00010406        0.00001864        0.00000029
      17         -0.832000        2.000000        0.00072479        0.00013150        0.00000164
      18         -0.831644        2.000000        0.00158140        0.00027554        0.00000386
      19         -0.830027        2.000000        0.00152336        0.00062225        0.00001603
      20         -0.829447        2.000000        0.00020596        0.00004726        0.00000211
      21         -0.828640        2.000000        0.00018462        0.00001466        0.00000092
      22         -0.828147        2.000000        0.00511875        0.00082923        0.00001225
      23         -0.827394        2.000000        0.00063179        0.00023020        0.00000162
      24         -0.826637        2.000000        0.00003200        0.00002601        0.00000029
      25         -0.825864        2.000000        0.00011491        0.00009831        0.00000072
      26         -0.825007        2.000000        0.00001369        0.00003449        0.00000031
      27         -0.824149        2.000000        0.01516313        0.00284059        0.00004737
      28         -0.823003        2.000000        0.00044284        0.00005951        0.00000161
      29         -0.821982        2.000000        0.00560551        0.00172899        0.00001799
      30         -0.820560        2.000000        0.02412304        0.00523478        0.00009490
      31         -0.820223        2.000000        0.01417613        0.00341378        0.00006009
      32         -0.820029        2.000000        0.01110662        0.00323309        0.00005687
      33         -0.819390        2.000000        0.00018103        0.00001943        0.00000051
      34         -0.818664        2.000000        0.00066743        0.00075574        0.00000556
      35         -0.817548        2.000000        0.01577270        0.00250738        0.00003677
      36         -0.816472        2.000000        0.00016147        0.00015556        0.00000127
      37         -0.815444        2.000000        0.00147979        0.00042723        0.00000265
      38         -0.814805        2.000000        0.00002791        0.00018667        0.00000159
      39         -0.814124        2.000000        0.00356683        0.00055457        0.00000895
      40         -0.813968        2.000000        0.00028035        0.00004272        0.00000109
      41         -0.813053        2.000000        0.00225292        0.00031096        0.00000348
      42         -0.812601        2.000000        0.02099066        0.00252600        0.00003500
      43         -0.811948        2.000000        0.00710173        0.00172323        0.00000870
      44         -0.811687        2.000000        0.00284052        0.00082025        0.00000752
      45         -0.810574        2.000000        0.03106696        0.00600177        0.00004625
      46         -0.809310        2.000000        0.00003735        0.00001604        0.00000028
      47         -0.808268        2.000000        0.01055216        0.00473645        0.00002118
      48         -0.807324        2.000000        0.23172266        0.04886572        0.00027936
      49         -0.806602        2.000000        0.01879390        0.00381043        0.00002807
      50         -0.806376        2.000000        0.00476042        0.00099089        0.00000493
      51         -0.806147        2.000000        0.00241216        0.00038493        0.00000347
      52         -0.804835        2.000000        0.00000520        0.00001216        0.00000077
      53         -0.804321        2.000000        0.00014346        0.00041296        0.00000298
      54         -0.803943        2.000000        0.00047398        0.00019308        0.00000326
      55         -0.803401        2.000000        0.02460995        0.00685624        0.00002312
      56         -0.802648        2.000000        0.00913848        0.00210268        0.00001054
      57         -0.801912        2.000000        0.00056416        0.00018226        0.00000326
      58         -0.801342        2.000000        0.03683410        0.00916289        0.00003433
      59         -0.800594        2.000000        0.00295755        0.00172794        0.00000512
      60         -0.799945        2.000000        0.00004877        0.00003185        0.00000036
      61         -0.799254        2.000000        0.00635710        0.00211657        0.00001300
      62         -0.798331        2.000000        0.00027175        0.00013448        0.00000060
      63         -0.797356        2.000000        0.00384654        0.00831905        0.00003849
      64         -0.795713        2.000000        0.00236103        0.00189339        0.00000249
      65         -0.795144        2.000000        0.00235001        0.00081281        0.00000190
      66         -0.794508        2.000000        0.02009783        0.01308550        0.00003003
      67         -0.793501        2.000000        0.00292700        0.00171139        0.00000238
      68         -0.792888        2.000000        0.00028012        0.00008009        0.00000052
      69         -0.792771        2.000000        0.01374811        0.00648557        0.00000807
      70         -0.792166        2.000000        0.00122990        0.00085346        0.00000066
      71         -0.791795        2.000000        0.00148533        0.00079537        0.00000081
      72         -0.790466        2.000000        0.00131744        0.00042273        0.00000224
      73         -0.789691        2.000000        0.01794564        0.00453416        0.00010536
      74         -0.789018        2.000000        0.00181521        0.00069214        0.00000261
      75         -0.788284        2.000000        0.00045709        0.00025673        0.00000068
      76         -0.787044        2.000000        0.00047207        0.00035592        0.00000171
      77         -0.785765        2.000000        0.00034224        0.00010760        0.00000557
      78         -0.783215        2.000000        0.00042048        0.00046482        0.00003042
      79         -0.782853        2.000000        0.00002455        0.00001576        0.00000115
      80         -0.782388        2.000000        0.02072841        0.00815301        0.00061166
      81         -0.781821        2.000000        0.00031666        0.00012167        0.00001984
      82         -0.780108        2.000000        0.00323921        0.00100372        0.00001984
      83         -0.778906        2.000000        0.00000806        0.00000547        0.00000013
      84         -0.778076        2.000000        0.00169687        0.00063957        0.00000638
      85         -0.775317        2.000000        0.01097498        0.00513277        0.00002784
      86         -0.773086        2.000000        0.12262513        0.06518725        0.00031465
      87         -0.772920        2.000000        0.00725866        0.00389231        0.00001852
      88         -0.771409        2.000000        0.00429001        0.00194280        0.00001568
      89         -0.769725        2.000000        0.00000081        0.00000052        0.00000001
      90         -0.769226        2.000000        0.00000072        0.00000133        0.00000001
      91         -0.767566        2.000000        0.00000044        0.00000055        0.00000001
      92         -0.766737        2.000000        0.00002214        0.00002149        0.00000022
      93         -0.755845        2.000000        0.00000001        0.00000003        0.00000000
      94         -0.752538        2.000000        0.00000006        0.00000016        0.00000001
      95         -0.747161        2.000000        0.00000008        0.00000166        0.00000002
      96         -0.736999        2.000000        0.00000017        0.00000021        0.00000001
      97         -0.726419        2.000000        0.00000023        0.00000025        0.00000002
      98         -0.719129        2.000000        0.00000001        0.00000009        0.00000000
      99         -0.696511        2.000000        0.00000000        0.00000001        0.00000000
     100         -0.460315        2.000000        0.00000000        0.00000000        0.00000000
     101         -0.427906        2.000000        0.00000000        0.00000002        0.00000000
     102         -0.424376        2.000000        0.00000000        0.00000000        0.00000000
     103         -0.405781        2.000000        0.00000195        0.00000602        0.00000013
     104         -0.401299        2.000000        0.00000030        0.00000076        0.00000001
     105         -0.398347        2.000000        0.00000016        0.00000065        0.00000001
     106         -0.398267        2.000000        0.00000268        0.00001602        0.00000039
     107         -0.397295        2.000000        0.00016649        0.00046867        0.00001172
     108         -0.395753        2.000000        0.00000465        0.00002199        0.00000054
     109         -0.395158        2.000000        0.00020169        0.00113647        0.00000684
     110         -0.394493        2.000000        0.00003985        0.00019145        0.00000329
     111         -0.394192        2.000000        0.00043736        0.00142831        0.00003877
     112         -0.393919        2.000000        0.00206749        0.00612455        0.00016382
     113         -0.393017        2.000000        0.00008085        0.00021308        0.00000544
     114         -0.391793        2.000000        0.00009127        0.00060878        0.00000470
     115         -0.389280        2.000000        0.00000080        0.00000249        0.00000008
     116         -0.388145        2.000000        0.00020271        0.00077112        0.00001195
     117         -0.387090        2.000000        0.00002730        0.00015531        0.00000178
     118         -0.386138        2.000000        0.00002739        0.00015773        0.00000157
     119         -0.385161        2.000000        0.00001068        0.00006500        0.00000049
     120         -0.384984        2.000000        0.00000131        0.00002033        0.00000014
     121         -0.383823        2.000000        0.00001151        0.00002890        0.00000088
     122         -0.383101        2.000000        0.00001191        0.00007881        0.00000076
     123         -0.383025        2.000000        0.00003296        0.00019596        0.00000244
     124         -0.381208        2.000000        0.00027123        0.00186764        0.00001551
     125         -0.380660        2.000000        0.00046924        0.00360522        0.00002471
     126         -0.380323        2.000000        0.00016431        0.00115008        0.00000435
     127         -0.379623        2.000000        0.00423895        0.02878534        0.00018546
     128         -0.379161        2.000000        0.00002836        0.00014292        0.00000108
     129         -0.378115        2.000000        0.00048849        0.00144850        0.00002631
     130         -0.377757        2.000000        0.00002920        0.00025783        0.00000131
     131         -0.377213        2.000000        0.00002705        0.00015582        0.00000132
     132         -0.376655        2.000000        0.00007469        0.00047671        0.00000498
     133         -0.376089        2.000000        0.00002163        0.00012253        0.00000073
     134         -0.375522        2.000000        0.00001262        0.00013821        0.00000047
     135         -0.373953        2.000000        0.00002927        0.00019133        0.00000036
     136         -0.373564        2.000000        0.00004445        0.00030591        0.00000134
     137         -0.372991        2.000000        0.00006315        0.00032512        0.00000548
     138         -0.372433        2.000000        0.00000260        0.00002055        0.00000012
     139         -0.372037        2.000000        0.00004561        0.00043698        0.00000204
     140         -0.371632        2.000000        0.00002966        0.00021901        0.00000060
     141         -0.371006        2.000000        0.00014601        0.00134300        0.00000866
     142         -0.369840        2.000000        0.00001100        0.00006619        0.00000067
     143         -0.369635        2.000000        0.00007379        0.00037927        0.00000505
     144         -0.369153        2.000000        0.00000174        0.00001553        0.00000013
     145         -0.369131        2.000000        0.00000808        0.00004616        0.00000041
     146         -0.368498        2.000000        0.00003013        0.00019964        0.00000200
     147         -0.367984        2.000000        0.00019368        0.00136963        0.00001382
     148         -0.367257        2.000000        0.00002271        0.00014786        0.00000143
     149         -0.366951        2.000000        0.00003439        0.00020315        0.00000200
     150         -0.366882        2.000000        0.00047245        0.00313999        0.00002247
     151         -0.366558        2.000000        0.00013267        0.00092395        0.00000589
     152         -0.366087        2.000000        0.00013292        0.00072470        0.00000934
     153         -0.365532        2.000000        0.00002649        0.00015595        0.00000090
     154         -0.365292        2.000000        0.00000157        0.00000472        0.00000004
     155         -0.364873        2.000000        0.00009642        0.00037869        0.00000533
     156         -0.364499        2.000000        0.00003443        0.00009354        0.00000290
     157         -0.364385        2.000000        0.00005486        0.00016761        0.00000453
     158         -0.363409        2.000000        0.00001914        0.00008103        0.00000258
     159         -0.362731        2.000000        0.00001274        0.00004541        0.00000096
     160         -0.361690        2.000000        0.00590676        0.01985090        0.00041712
     161         -0.361463        2.000000        0.00010229        0.00034196        0.00000754
     162         -0.360695        2.000000        0.00000486        0.00002667        0.00000041
     163         -0.359909        2.000000        0.00032582        0.00103139        0.00002757
     164         -0.358869        2.000000        0.00000772        0.00002741        0.00000108
     165         -0.358762        2.000000        0.00000075        0.00000346        0.00000004
     166         -0.358424        2.000000        0.00007377        0.00026368        0.00001096
     167         -0.357749        2.000000        0.00000877        0.00003512        0.00000055
     168         -0.357432        2.000000        0.00004575        0.00015403        0.00000962
     169         -0.356226        2.000000        0.00000467        0.00004725        0.00000229
     170         -0.355206        2.000000        0.00035115        0.00090724        0.00002636
     171         -0.354151        2.000000        0.00000680        0.00002606        0.00000035
     172         -0.353675        2.000000        0.00000563        0.00003290        0.00000051
     173         -0.353241        2.000000        0.00002714        0.00009109        0.00000209
     174         -0.352384        2.000000        0.00001433        0.00006140        0.00000107
     175         -0.349281        2.000000        0.00002697        0.00016706        0.00000472
     176         -0.348101        2.000000        0.00000546        0.00002603        0.00000082
     177         -0.347056        2.000000        0.00005425        0.00031204        0.00000649
     178         -0.346421        2.000000        0.00006251        0.00045478        0.00001912
     179         -0.346099        2.000000        0.00003664        0.00022612        0.00000394
     180         -0.344626        2.000000        0.00000259        0.00001267        0.00000038
     181         -0.344227        2.000000        0.00003024        0.00015042        0.00000218
     182         -0.344158        2.000000        0.00001447        0.00005982        0.00000142
     183         -0.343279        2.000000        0.00000134        0.00000958        0.00000022
     184         -0.342186        2.000000        0.00004108        0.00013915        0.00000298
     185         -0.341638        2.000000        0.00012493        0.00062829        0.00001346
     186         -0.341223        2.000000        0.00004870        0.00022687        0.00000587
     187         -0.341051        2.000000        0.00015800        0.00048991        0.00001028
     188         -0.340810        2.000000        0.00008451        0.00028118        0.00000573
     189         -0.340344        2.000000        0.00000028        0.00000255        0.00000013
     190         -0.340103        2.000000        0.00137475        0.00680449        0.00011485
     191         -0.339538        2.000000        0.00135617        0.00542237        0.00011617
     192         -0.338904        2.000000        0.00102898        0.00345217        0.00007190
     193         -0.338737        2.000000        0.03345655        0.11648041        0.00240651
     194         -0.337951        2.000000        0.00826244        0.03330798        0.00072163
     195         -0.337180        2.000000        0.00045961        0.00162767        0.00003307
     196         -0.336960        2.000000        0.00201172        0.01271900        0.00029782
     197         -0.336163        2.000000        0.00120617        0.00538953        0.00015067
     198         -0.335733        2.000000        0.00228144        0.01041057        0.00029446
     199         -0.334956        2.000000        0.00056304        0.00168795        0.00003755
     200         -0.333834        2.000000        0.00283306        0.00860053        0.00018911
     201         -0.331670        2.000000        0.14537325        0.40955779        0.00996890
     202         -0.330715        2.000000        0.00172073        0.00488851        0.00012216
     203         -0.327469        2.000000        0.00016515        0.00062668        0.00001596
     204         -0.326924        2.000000        0.00610378        0.02632235        0.00060637
     205         -0.319799        2.000000        0.00000339        0.00001232        0.00000018
     206         -0.319625        2.000000        0.00000082        0.00000245        0.00000001
     207         -0.318771        2.000000        0.00002357        0.00008156        0.00000126
     208         -0.318487        2.000000        0.00000877        0.00002908        0.00000050
     209         -0.318151        2.000000        0.00001698        0.00005207        0.00000109
     210         -0.317254        2.000000        0.00000027        0.00000101        0.00000001
     211         -0.316615        2.000000        0.00000630        0.00002036        0.00000037
     212         -0.316317        2.000000        0.00033853        0.00188947        0.00001031
     213         -0.315885        2.000000        0.00000047        0.00000161        0.00000005
     214         -0.315512        2.000000        0.00000272        0.00000843        0.00000015
     215         -0.314742        2.000000        0.00001456        0.00004884        0.00000081
     216         -0.314240        2.000000        0.00001056        0.00003299        0.00000061
     217         -0.313093        2.000000        0.00003512        0.00011387        0.00000193
     218         -0.312538        2.000000        0.00000917        0.00002764        0.00000052
     219         -0.312396        2.000000        0.00005215        0.00016999        0.00000296
     220         -0.312037        2.000000        0.00002892        0.00009199        0.00000163
     221         -0.310598        2.000000        0.00001875        0.00006252        0.00000108
     222         -0.310221        2.000000        0.00000328        0.00001077        0.00000018
     223         -0.309408        2.000000        0.00001453        0.00004805        0.00000078
     224         -0.309395        2.000000        0.00002743        0.00009088        0.00000155
     225         -0.309234        2.000000        0.00000535        0.00001898        0.00000028
     226         -0.308381        2.000000        0.00003074        0.00009991        0.00000170
     227         -0.308250        2.000000        0.00060318        0.00198380        0.00003377
     228         -0.308097        2.000000        0.00000358        0.00001347        0.00000021
     229         -0.307179        2.000000        0.00014201        0.00048331        0.00000746
     230         -0.305966        2.000000        0.00000236        0.00002703        0.00000045
     231         -0.305190        2.000000        0.00000743        0.00002691        0.00000043
     232         -0.305170        2.000000        0.00000718        0.00002055        0.00000042
     233         -0.303881        2.000000        0.00001437        0.00008091        0.00000047
     234         -0.303186        2.000000        0.00000027        0.00000093        0.00000002
     235         -0.302644        2.000000        0.00054430        0.00190949        0.00002623
     236         -0.302137        2.000000        0.00034324        0.00120151        0.00001655
     237         -0.301410        2.000000        0.00000145        0.00000653        0.00000008
     238         -0.301270        2.000000        0.00076121        0.00266856        0.00003655
     239         -0.300504        2.000000        0.00051602        0.00190681        0.00002332
     240         -0.300347        2.000000        0.00502393        0.01786459        0.00023511
     241         -0.300010        2.000000        0.00001165        0.00003984        0.00000067
     242         -0.298878        2.000000        0.00000282        0.00001173        0.00000014
     243         -0.298505        2.000000        0.00099395        0.00351062        0.00004756
     244         -0.297847        2.000000        0.00023635        0.00083697        0.00001136
     245         -0.297156        2.000000        0.00029405        0.00105313        0.00001387
     246         -0.297046        2.000000        0.00013445        0.00049016        0.00000589
     247         -0.296671        2.000000        0.00012170        0.00043308        0.00000591
     248         -0.296618        2.000000        0.00000910        0.00004608        0.00000049
     249         -0.295969        2.000000        0.00002577        0.00011881        0.00000062
     250         -0.295348        2.000000        0.00065763        0.00253427        0.00002414
     251         -0.295087        2.000000        0.00000953        0.00003668        0.00000039
     252         -0.294369        2.000000        0.00003727        0.00015017        0.00000134
     253         -0.294183        2.000000        0.00013529        0.00051072        0.00000526
     254         -0.293640        2.000000        0.00006061        0.00025271        0.00000194
     255         -0.293246        2.000000        0.00001696        0.00007811        0.00000048
     256         -0.292577        2.000000        0.00000708        0.00002861        0.00000042
     257         -0.291994        2.000000        0.00005309        0.00020458        0.00000304
     258         -0.291705        2.000000        0.00000203        0.00001177        0.00000010
     259         -0.290928        2.000000        0.00013604        0.00050794        0.00000558
     260         -0.290306        2.000000        0.00006479        0.00036555        0.00000260
     261         -0.289901        2.000000        0.00026241        0.00110679        0.00000814
     262         -0.289451        2.000000        0.00008552        0.00038632        0.00000255
     263         -0.289043        2.000000        0.00000571        0.00002589        0.00000026
     264         -0.288015        2.000000        0.00007089        0.00029599        0.00000210
     265         -0.287861        2.000000        0.00013231        0.00052326        0.00000405
     266         -0.286936        2.000000        0.00000481        0.00002083        0.00000021
     267         -0.286667        2.000000        0.00001321        0.00005983        0.00000029
     268         -0.286302        2.000000        0.00000137        0.00001041        0.00000012
     269         -0.285607        2.000000        0.00012163        0.00048092        0.00000364
     270         -0.285328        2.000000        0.00007862        0.00029992        0.00000242
     271         -0.285085        2.000000        0.00002168        0.00009383        0.00000068
     272         -0.284841        2.000000        0.00010581        0.00038794        0.00000355
     273         -0.284131        2.000000        0.00007454        0.00028693        0.00000219
     274         -0.283572        2.000000        0.00006589        0.00023801        0.00000233
     275         -0.283249        2.000000        0.00017406        0.00065195        0.00000522
     276         -0.283050        2.000000        0.00014659        0.00055420        0.00000430
     277         -0.282957        2.000000        0.00000437        0.00001811        0.00000010
     278         -0.282638        2.000000        0.00018025        0.00069118        0.00000486
     279         -0.282393        2.000000        0.00392930        0.01485067        0.00010749
     280         -0.282190        2.000000        0.00000594        0.00002854        0.00000042
     281         -0.281812        2.000000        0.00001312        0.00005244        0.00000031
     282         -0.281718        2.000000        0.00015434        0.00059547        0.00000405
     283         -0.281529        2.000000        0.00058961        0.00231920        0.00001447
     284         -0.281304        2.000000        0.00093754        0.00367946        0.00002266
     285         -0.281056        2.000000        0.00026247        0.00113864        0.00000435
     286         -0.280948        2.000000        0.00006191        0.00024437        0.00000138
     287         -0.280843        2.000000        0.00011332        0.00046457        0.00000482
     288         -0.280780        2.000000        0.00015598        0.00059461        0.00000430
     289         -0.280282        2.000000        0.00040395        0.00156660        0.00000985
     290         -0.279956        2.000000        0.00002999        0.00012226        0.00000063
     291         -0.279807        2.000000        0.00036508        0.00145717        0.00000786
     292         -0.279686        2.000000        0.00237817        0.00971941        0.00004667
     293         -0.279589        2.000000        0.00011058        0.00049035        0.00000171
     294         -0.279495        2.000000        0.00035651        0.00155889        0.00000494
     295         -0.279217        2.000000        0.00017852        0.00065914        0.00000636
     296         -0.279093        2.000000        0.00312594        0.01141554        0.00010123
     297         -0.278951        2.000000        0.00036556        0.00133508        0.00001151
     298         -0.278592        2.000000        0.00075570        0.00281127        0.00002233
     299         -0.278433        2.000000        0.00007458        0.00027033        0.00000214
     300         -0.278210        2.000000        0.00014964        0.00056979        0.00000391
     301         -0.278135        2.000000        0.00001152        0.00004090        0.00000040
     302         -0.278031        2.000000        0.00000434        0.00002441        0.00000022
     303         -0.277650        2.000000        0.00085513        0.00325245        0.00002131
     304         -0.277312        2.000000        0.00037519        0.00139004        0.00000889
     305         -0.276990        2.000000        0.00145764        0.00566012        0.00003307
     306         -0.276609        2.000000        0.00006997        0.00031940        0.00000139
     307         -0.276405        2.000000        0.00089343        0.00360625        0.00001801