# Projected DOS for list 16 of 3 atoms, at iteration step i = 0, E(Fermi) =    -0.060510 a.u.
#     MO Eigenvalue [a.u.]      Occupation                 s                 p                 d
       1         -0.895259        2.000000        0.00000000        0.00000000        0.00000000
       2         -0.868125        2.000000        0.00000000        0.00000000        0.00000000
       3         -0.864615        2.000000        0.00000001        0.00000000        0.00000000
       4         -0.857993        2.000000        0.01264341        0.00750935        0.00017117
       5         -0.853826        2.000000        0.00000362        0.00001015        0.00000014
       6         -0.850378        2.000000        0.00000000        0.00000000        0.00000000
       7         -0.848222        2.000000        0.00000025        0.00000027        0.00000000
       8         -0.847335        2.000000        0.00022787        0.00019788        0.00000175
       9         -0.842977        2.000000        0.00000029        0.00000015        0.00000001
      10         -0.841504        2.000000        0.00002215        0.00001494        0.00000018
      11         -0.840654        2.000000        0.00003583        0.00002074        0.00000021
      12         -0.839688        2.000000        0.00009078        0.00001883        0.00000035
      13         -0.839172        2.000000        0.00008774        0.00002492        0.00000048
      14         -0.838522        2.000000        0.00019810        0.00020237        0.00000117
      15         -0.837015        2.000000        0.00012386        0.00006300        0.00000061
      16         -0.832753        2.000000        0.00003459        0.00000913        0.00000024
      17         -0.832000        2.000000        0.00012690        0.00005164        0.00000066
      18         -0.831644        2.000000        0.00051434        0.00013471        0.00000233
      19         -0.830027        2.000000        0.00000202        0.00000250        0.00000002
      20         -0.829447        2.000000        0.00023827        0.00004815        0.00000057
      21         -0.828640        2.000000        0.00032812        0.00005939        0.00000076
      22         -0.828147        2.000000        0.00989787        0.00275719        0.00008677
      23         -0.827394        2.000000        0.00550148        0.00174525        0.00002279
      24         -0.826637        2.000000        0.00012627        0.00003766        0.00000035
      25         -0.825864        2.000000        0.00019601        0.00060752        0.00001010
      26         -0.825007        2.000000        0.00004475        0.00001908        0.00000147
      27         -0.824149        2.000000        0.00076971        0.00033755        0.00000517
      28         -0.823003        2.000000        0.00005595        0.00002254        0.00000106
      29         -0.821982        2.000000        0.01892423        0.00395504        0.00007862
      30         -0.820560        2.000000        0.00017185        0.00007237        0.00000033
      31         -0.820223        2.000000        0.00017507        0.00022764        0.00000507
      32         -0.820029        2.000000        0.00412906        0.00064577        0.00000932
      33         -0.819390        2.000000        0.00000961        0.00001102        0.00000032
      34         -0.818664        2.000000        0.00126254        0.00053411        0.00000962
      35         -0.817548        2.000000        0.00698601        0.00087676        0.00002318
      36         -0.816472        2.000000        0.00558587        0.00069276        0.00001453
      37         -0.815444        2.000000        0.00715009        0.00126537        0.00002130
      38         -0.814805        2.000000        0.00057444        0.00008782        0.00000164
      39         -0.814124        2.000000        0.00002393        0.00008990        0.00000061
      40         -0.813968        2.000000        0.00006320        0.00003178        0.00000067
      41         -0.813053        2.000000        0.00456905        0.00055766        0.00001339
      42         -0.812601        2.000000        0.00347513        0.00040628        0.00001063
      43         -0.811948        2.000000        0.00401960        0.00094936        0.00001306
      44         -0.811687        2.000000        0.00376582        0.00078632        0.00001353
      45         -0.810574        2.000000        0.00009506        0.00042172        0.00000254
      46         -0.809310        2.000000        0.00012632        0.00002331        0.00000041
      47         -0.808268        2.000000        0.00020316        0.00014476        0.00000246
      48         -0.807324        2.000000        0.00366034        0.00083165        0.00000857
      49         -0.806602        2.000000        0.00289751        0.00059212        0.00000900
      50         -0.806376        2.000000        0.01151216        0.00185766        0.00002370
      51         -0.806147        2.000000        0.00474449        0.00086227        0.00001053
      52         -0.804835        2.000000        0.00403987        0.00106396        0.00000438
      53         -0.804321        2.000000        0.02786987        0.00453884        0.00006253
      54         -0.803943        2.000000        0.00433642        0.00061752        0.00001223
      55         -0.803401        2.000000        0.00466133        0.00079518        0.00001032
      56         -0.802648        2.000000        0.00011818        0.00004112        0.00000029
      57         -0.801912        2.000000        0.02371127        0.00433232        0.00004777
      58         -0.801342        2.000000        0.07157804        0.01373476        0.00014088
      59         -0.800594        2.000000        0.12206794        0.02622294        0.00022778
      60         -0.799945        2.000000        0.01247288        0.00250501        0.00002911
      61         -0.799254        2.000000        0.00020394        0.00012662        0.00000027
      62         -0.798331        2.000000        0.00028064        0.00006527        0.00000064
      63         -0.797356        2.000000        0.00404016        0.00152883        0.00000932
      64         -0.795713        2.000000        0.15470139        0.03987912        0.00024166
      65         -0.795144        2.000000        0.00027358        0.00012075        0.00000074
      66         -0.794508        2.000000        0.01019536        0.00345453        0.00001442
      67         -0.793501        2.000000        0.00051055        0.00031333        0.00000066
      68         -0.792888        2.000000        0.00166651        0.00026052        0.00000966
      69         -0.792771        2.000000        0.00277594        0.00083276        0.00000785
      70         -0.792166        2.000000        0.00056711        0.00179283        0.00001468
      71         -0.791795        2.000000        0.01859101        0.00587834        0.00002598
      72         -0.790466        2.000000        0.00179862        0.00317043        0.00001979
      73         -0.789691        2.000000        0.00351957        0.00123350        0.00000469
      74         -0.789018        2.000000        0.06892727        0.02407412        0.00009037
      75         -0.788284        2.000000        0.00034706        0.00011938        0.00000090
      76         -0.787044        2.000000        0.00163514        0.00699092        0.00006222
      77         -0.785765        2.000000        0.00002722        0.00004003        0.00000046
      78         -0.783215        2.000000        0.00003013        0.00001576        0.00000002
      79         -0.782853        2.000000        0.00007025        0.00004057        0.00000043
      80         -0.782388        2.000000        0.00081319        0.00039287        0.00000121
      81         -0.781821        2.000000        0.00007724        0.00006407        0.00000048
      82         -0.780108        2.000000        0.02045741        0.01309983        0.00007697
      83         -0.778906        2.000000        0.00003354        0.00001875        0.00000008
      84         -0.778076        2.000000        0.00000618        0.00000355        0.00000001
      85         -0.775317        2.000000        0.08481915        0.04838361        0.00007300
      86         -0.773086        2.000000        0.00460846        0.00291241        0.00000581
      87         -0.772920        2.000000        0.00030193        0.00018997        0.00000035
      88         -0.771409        2.000000        0.00000699        0.00000651        0.00000004
      89         -0.769725        2.000000        0.00000371        0.00000207        0.00000001
      90         -0.769226        2.000000        0.00001646        0.00001209        0.00000001
      91         -0.767566        2.000000        0.00001835        0.00001341        0.00000002
      92         -0.766737        2.000000        0.00000103        0.00000073        0.00000000
      93         -0.755845        2.000000        0.00000009        0.00000011        0.00000000
      94         -0.752538        2.000000        0.00000029        0.00000038        0.00000000
      95         -0.747161        2.000000        0.00000000        0.00000000        0.00000000
      96         -0.736999        2.000000        0.00000000        0.00000001        0.00000000
      97         -0.726419        2.000000        0.00000000        0.00000000        0.00000000
      98         -0.719129        2.000000        0.00000000        0.00000000        0.00000000
      99         -0.696511        2.000000        0.00000000        0.00000000        0.00000000
     100         -0.460315        2.000000        0.00000000        0.00000000        0.00000000
     101         -0.427906        2.000000        0.00000000        0.00000000        0.00000000
     102         -0.424376        2.000000        0.00000000        0.00000000        0.00000000
     103         -0.405781        2.000000        0.00223939        0.01781542        0.00068251
     104         -0.401299        2.000000        0.00000517        0.00002210        0.00000071
     105         -0.398347        2.000000        0.00000148        0.00001288        0.00000053
     106         -0.398267        2.000000        0.00000067        0.00000309        0.00000007
     107         -0.397295        2.000000        0.00000157        0.00000286        0.00000045
     108         -0.395753        2.000000        0.00005884        0.00020253        0.00000462
     109         -0.395158        2.000000        0.00312471        0.01193976        0.00022884
     110         -0.394493        2.000000        0.00026697        0.00098064        0.00001821
     111         -0.394192        2.000000        0.00205484        0.00742341        0.00013542
     112         -0.393919        2.000000        0.00003905        0.00012011        0.00000933
     113         -0.393017        2.000000        0.00003539        0.00012887        0.00000313
     114         -0.391793        2.000000        0.00004427        0.00015390        0.00000318
     115         -0.389280        2.000000        0.00001824        0.00017987        0.00000159
     116         -0.388145        2.000000        0.00000326        0.00002620        0.00000022
     117         -0.387090        2.000000        0.00010617        0.00041142        0.00000890
     118         -0.386138        2.000000        0.00002133        0.00016483        0.00000557
     119         -0.385161        2.000000        0.00003696        0.00027856        0.00000949
     120         -0.384984        2.000000        0.00000144        0.00002374        0.00000061
     121         -0.383823        2.000000        0.00010665        0.00021979        0.00000704
     122         -0.383101        2.000000        0.00000159        0.00000382        0.00000005
     123         -0.383025        2.000000        0.00007084        0.00019517        0.00000532
     124         -0.381208        2.000000        0.00001225        0.00001572        0.00000057
     125         -0.380660        2.000000        0.00010517        0.00041944        0.00000515
     126         -0.380323        2.000000        0.00126875        0.00359239        0.00007133
     127         -0.379623        2.000000        0.00015784        0.00046678        0.00000756
     128         -0.379161        2.000000        0.00005946        0.00019572        0.00000690
     129         -0.378115        2.000000        0.00015235        0.00047275        0.00000417
     130         -0.377757        2.000000        0.00002631        0.00010020        0.00000145
     131         -0.377213        2.000000        0.00001891        0.00004230        0.00000158
     132         -0.376655        2.000000        0.00012747        0.00044439        0.00000574
     133         -0.376089        2.000000        0.00026823        0.00088363        0.00001112
     134         -0.375522        2.000000        0.00027818        0.00081527        0.00001565
     135         -0.373953        2.000000        0.00006319        0.00026842        0.00000176
     136         -0.373564        2.000000        0.00005797        0.00026316        0.00000229
     137         -0.372991        2.000000        0.00029348        0.00117337        0.00002069
     138         -0.372433        2.000000        0.00004795        0.00018727        0.00000375
     139         -0.372037        2.000000        0.00008166        0.00022518        0.00000480
     140         -0.371632        2.000000        0.00012060        0.00033806        0.00000871
     141         -0.371006        2.000000        0.00047580        0.00135089        0.00002746
     142         -0.369840        2.000000        0.00000891        0.00003833        0.00000089
     143         -0.369635        2.000000        0.00000801        0.00001812        0.00000084
     144         -0.369153        2.000000        0.00001315        0.00004177        0.00000094
     145         -0.369131        2.000000        0.00052572        0.00185290        0.00003518
     146         -0.368498        2.000000        0.00000180        0.00004926        0.00000034
     147         -0.367984        2.000000        0.00009770        0.00047631        0.00000426
     148         -0.367257        2.000000        0.00001415        0.00005795        0.00000134
     149         -0.366951        2.000000        0.00000345        0.00001556        0.00000005
     150         -0.366882        2.000000        0.00002139        0.00005067        0.00000106
     151         -0.366558        2.000000        0.00000752        0.00003212        0.00000028
     152         -0.366087        2.000000        0.00002808        0.00012453        0.00000049
     153         -0.365532        2.000000        0.00002749        0.00009650        0.00000144
     154         -0.365292        2.000000        0.00000174        0.00000676        0.00000021
     155         -0.364873        2.000000        0.00000069        0.00001775        0.00000108
     156         -0.364499        2.000000        0.00000501        0.00004276        0.00000041
     157         -0.364385        2.000000        0.00001395        0.00010982        0.00000205
     158         -0.363409        2.000000        0.00000353        0.00001923        0.00000038
     159         -0.362731        2.000000        0.00006474        0.00025682        0.00000198
     160         -0.361690        2.000000        0.00078576        0.00284633        0.00002993
     161         -0.361463        2.000000        0.00003712        0.00015120        0.00000113
     162         -0.360695        2.000000        0.00007231        0.00025354        0.00000211
     163         -0.359909        2.000000        0.00235649        0.00909498        0.00007420
     164         -0.358869        2.000000        0.00049463        0.00178194        0.00001684
     165         -0.358762        2.000000        0.00006083        0.00021868        0.00000211
     166         -0.358424        2.000000        0.00006322        0.00026702        0.00000169
     167         -0.357749        2.000000        0.00001179        0.00003771        0.00000115
     168         -0.357432        2.000000        0.00503640        0.01851452        0.00017171
     169         -0.356226        2.000000        0.00006679        0.00023102        0.00000396
     170         -0.355206        2.000000        0.00000442        0.00002287        0.00000032
     171         -0.354151        2.000000        0.00005272        0.00014474        0.00000375
     172         -0.353675        2.000000        0.00000012        0.00000123        0.00000002
     173         -0.353241        2.000000        0.00022139        0.00086324        0.00001243
     174         -0.352384        2.000000        0.00010214        0.00032817        0.00000448
     175         -0.349281        2.000000        0.00004140        0.00012052        0.00000277
     176         -0.348101        2.000000        0.00072165        0.00216155        0.00004154
     177         -0.347056        2.000000        0.00079646        0.00229834        0.00004998
     178         -0.346421        2.000000        0.00031119        0.00089989        0.00001822
     179         -0.346099        2.000000        0.00097589        0.00284111        0.00006000
     180         -0.344626        2.000000        0.00286374        0.00819283        0.00018712
     181         -0.344227        2.000000        0.00016934        0.00048231        0.00001072
     182         -0.344158        2.000000        0.00086031        0.00252603        0.00005746
     183         -0.343279        2.000000        0.00099600        0.00272775        0.00006523
     184         -0.342186        2.000000        0.00119897        0.00331732        0.00007942
     185         -0.341638        2.000000        0.00003530        0.00009830        0.00000211
     186         -0.341223        2.000000        0.14260696        0.39444350        0.00929369
     187         -0.341051        2.000000        0.00109515        0.00302598        0.00007148
     188         -0.340810        2.000000        0.04786382        0.13183355        0.00311998
     189         -0.340344        2.000000        0.00098354        0.00268256        0.00006381
     190         -0.340103        2.000000        0.00008912        0.00023050        0.00000648
     191         -0.339538        2.000000        0.00015757        0.00039872        0.00001104
     192         -0.338904        2.000000        0.00111406        0.00314619        0.00007475
     193         -0.338737        2.000000        0.00032427        0.00099986        0.00001740
     194         -0.337951        2.000000        0.00174486        0.00472430        0.00011616
     195         -0.337180        2.000000        0.00013391        0.00036606        0.00000864
     196         -0.336960        2.000000        0.00262843        0.00747160        0.00015522
     197         -0.336163        2.000000        0.00028679        0.00077193        0.00001907
     198         -0.335733        2.000000        0.00017328        0.00045508        0.00001230
     199         -0.334956        2.000000        0.00000246        0.00001497        0.00000007
     200         -0.333834        2.000000        0.00001789        0.00004598        0.00000129
     201         -0.331670        2.000000        0.00007942        0.00024551        0.00000610
     202         -0.330715        2.000000        0.00001338        0.00005511        0.00000125
     203         -0.327469        2.000000        0.00000160        0.00000630        0.00000011
     204         -0.326924        2.000000        0.00000207        0.00000757        0.00000031
     205         -0.319799        2.000000        0.00355106        0.01736534        0.00034462
     206         -0.319625        2.000000        0.00000060        0.00000278        0.00000006
     207         -0.318771        2.000000        0.00000224        0.00000813        0.00000020
     208         -0.318487        2.000000        0.00004104        0.00022145        0.00000343
     209         -0.318151        2.000000        0.00074864        0.00370339        0.00007036
     210         -0.317254        2.000000        0.00062287        0.00312116        0.00005955
     211         -0.316615        2.000000        0.00054719        0.00298261        0.00005565
     212         -0.316317        2.000000        0.00000001        0.00000215        0.00000001
     213         -0.315885        2.000000        0.00011890        0.00072191        0.00001231
     214         -0.315512        2.000000        0.00006053        0.00030771        0.00000626
     215         -0.314742        2.000000        0.00005669        0.00038117        0.00000427
     216         -0.314240        2.000000        0.00001640        0.00010533        0.00000182
     217         -0.313093        2.000000        0.00002914        0.00019157        0.00000183
     218         -0.312538        2.000000        0.00040042        0.00252810        0.00004103
     219         -0.312396        2.000000        0.00005806        0.00030286        0.00000442
     220         -0.312037        2.000000        0.00049367        0.00312224        0.00004881
     221         -0.310598        2.000000        0.00079182        0.00517386        0.00008007
     222         -0.310221        2.000000        0.00009855        0.00065363        0.00000899
     223         -0.309408        2.000000        0.00001593        0.00008260        0.00000137
     224         -0.309395        2.000000        0.00013684        0.00093078        0.00001379
     225         -0.309234        2.000000        0.00029358        0.00194521        0.00003068
     226         -0.308381        2.000000        0.00084579        0.00552502        0.00008499
     227         -0.308250        2.000000        0.00001784        0.00012436        0.00000192
     228         -0.308097        2.000000        0.00008663        0.00051119        0.00000802
     229         -0.307179        2.000000        0.00001077        0.00009554        0.00000088
     230         -0.305966        2.000000        0.00002378        0.00008148        0.00000170
     231         -0.305190        2.000000        0.00000545        0.00002514        0.00000044
     232         -0.305170        2.000000        0.00000146        0.00000769        0.00000012
     233         -0.303881        2.000000        0.00000063        0.00000401        0.00000005
     234         -0.303186        2.000000        0.00000932        0.00006118        0.00000083
     235         -0.302644        2.000000        0.00001772        0.00026401        0.00000107
     236         -0.302137        2.000000        0.00003944        0.00056332        0.00000239
     237         -0.301410        2.000000        0.00026257        0.00177643        0.00002392
     238         -0.301270        2.000000        0.00004571        0.00031158        0.00000296
     239         -0.300504        2.000000        0.00000349        0.00016380        0.00000034
     240         -0.300347        2.000000        0.00027652        0.00147430        0.00001579
     241         -0.300010        2.000000        0.00000034        0.00000170        0.00000002
     242         -0.298878        2.000000        0.00010851        0.00071441        0.00000897
     243         -0.298505        2.000000        0.00000485        0.00008834        0.00000073
     244         -0.297847        2.000000        0.00002214        0.00008758        0.00000093
     245         -0.297156        2.000000        0.00003064        0.00014829        0.00000196
     246         -0.297046        2.000000        0.00001280        0.00013096        0.00000077
     247         -0.296671        2.000000        0.00000067        0.00000276        0.00000002
     248         -0.296618        2.000000        0.00004011        0.00019904        0.00000333
     249         -0.295969        2.000000        0.00000763        0.00012685        0.00000094
     250         -0.295348        2.000000        0.00002435        0.00024344        0.00000160
     251         -0.295087        2.000000        0.00000493        0.00003096        0.00000038
     252         -0.294369        2.000000        0.00004560        0.00029209        0.00000397
     253         -0.294183        2.000000        0.00001177        0.00022106        0.00000186
     254         -0.293640        2.000000        0.00005986        0.00024607        0.00000392
     255         -0.293246        2.000000        0.00003507        0.00020751        0.00000315
     256         -0.292577        2.000000        0.00002047        0.00013942        0.00000146
     257         -0.291994        2.000000        0.00004206        0.00030729        0.00000355
     258         -0.291705        2.000000        0.00001244        0.00008379        0.00000098
     259         -0.290928        2.000000        0.00000770        0.00004411        0.00000063
     260         -0.290306        2.000000        0.00014689        0.00132218        0.00001259
     261         -0.289901        2.000000        0.00011789        0.00056890        0.00000687
     262         -0.289451        2.000000        0.00013204        0.00050292        0.00000684
     263         -0.289043        2.000000        0.00001322        0.00007363        0.00000060
     264         -0.288015        2.000000        0.00002333        0.00011564        0.00000155
     265         -0.287861        2.000000        0.00000368        0.00006652        0.00000052
     266         -0.286936        2.000000        0.00003601        0.00020832        0.00000161
     267         -0.286667        2.000000        0.00000956        0.00005080        0.00000056
     268         -0.286302        2.000000        0.00000100        0.00000384        0.00000005
     269         -0.285607        2.000000        0.00000657        0.00014609        0.00000091
     270         -0.285328        2.000000        0.00000608        0.00005825        0.00000034
     271         -0.285085        2.000000        0.00002271        0.00021015        0.00000257
     272         -0.284841        2.000000        0.00002405        0.00018086        0.00000170
     273         -0.284131        2.000000        0.00001302        0.00008393        0.00000059
     274         -0.283572        2.000000        0.00002455        0.00007170        0.00000042
     275         -0.283249        2.000000        0.00002305        0.00015744        0.00000129
     276         -0.283050        2.000000        0.00000631        0.00001889        0.00000045
     277         -0.282957        2.000000        0.00000825        0.00006302        0.00000072
     278         -0.282638        2.000000        0.00000604        0.00001958        0.00000036
     279         -0.282393        2.000000        0.00023089        0.00108005        0.00000627
     280         -0.282190        2.000000        0.00004585        0.00015184        0.00000115
     281         -0.281812        2.000000        0.00002864        0.00015468        0.00000179
     282         -0.281718        2.000000        0.00002622        0.00012004        0.00000073
     283         -0.281529        2.000000        0.00000169        0.00001080        0.00000010
     284         -0.281304        2.000000        0.00006381        0.00039394        0.00000414
     285         -0.281056        2.000000        0.00006571        0.00041523        0.00000365
     286         -0.280948        2.000000        0.00000274        0.00002337        0.00000020
     287         -0.280843        2.000000        0.00002455        0.00007554        0.00000143
     288         -0.280780        2.000000        0.00001010        0.00004662        0.00000032
     289         -0.280282        2.000000        0.00008282        0.00041539        0.00000360
     290         -0.279956        2.000000        0.00007992        0.00037860        0.00000315
     291         -0.279807        2.000000        0.00000499        0.00003169        0.00000018
     292         -0.279686        2.000000        0.00000176        0.00013453        0.00000069
     293         -0.279589        2.000000        0.00001270        0.00006561        0.00000056
     294         -0.279495        2.000000        0.00004677        0.00016335        0.00000138
     295         -0.279217        2.000000        0.00002569        0.00016299        0.00000181
     296         -0.279093        2.000000        0.00009630        0.00044045        0.00000297
     297         -0.278951        2.000000        0.00000645        0.00005041        0.00000040
     298         -0.278592        2.000000        0.00025698        0.00103714        0.00000500
     299         -0.278433        2.000000        0.00004412        0.00028474        0.00000267
     300         -0.278210        2.000000        0.00001555        0.00005584        0.00000070
     301         -0.278135        2.000000        0.00000750        0.00008519        0.00000020
     302         -0.278031        2.000000        0.00000346        0.00001954        0.00000003
     303         -0.277650        2.000000        0.00012433        0.00053284        0.00000315
     304         -0.277312        2.000000        0.00004012        0.00017455        0.00000143
     305         -0.276990        2.000000        0.00011173        0.00046121        0.00000228
     306         -0.276609        2.000000        0.00001255        0.00005116        0.00000019
     307         -0.276405        2.000000        0.00005419        0.00019466        0.00000167