# Projected DOS for list 36 of 3 atoms, at iteration step i = 0, E(Fermi) =    -0.060510 a.u.
#     MO Eigenvalue [a.u.]      Occupation                 s                 p                 d
       1         -0.895259        2.000000        0.00000000        0.00000000        0.00000000
       2         -0.868125        2.000000        0.00000000        0.00000000        0.00000000
       3         -0.864615        2.000000        0.00000000        0.00000000        0.00000000
       4         -0.857993        2.000000        0.00000133        0.00000057        0.00000000
       5         -0.853826        2.000000        0.00001377        0.00000224        0.00000006
       6         -0.850378        2.000000        0.00000003        0.00000001        0.00000000
       7         -0.848222        2.000000        0.00000025        0.00000003        0.00000000
       8         -0.847335        2.000000        0.00002625        0.00000436        0.00000009
       9         -0.842977        2.000000        0.00004295        0.00000691        0.00000004
      10         -0.841504        2.000000        0.01881240        0.00296370        0.00002208
      11         -0.840654        2.000000        0.03453355        0.00545290        0.00005147
      12         -0.839688        2.000000        0.00616354        0.00203202        0.00003438
      13         -0.839172        2.000000        0.00057208        0.00014001        0.00000437
      14         -0.838522        2.000000        0.00087581        0.00045094        0.00000949
      15         -0.837015        2.000000        0.00009210        0.00002739        0.00000039
      16         -0.832753        2.000000        0.01135341        0.00177674        0.00001839
      17         -0.832000        2.000000        0.02289899        0.00353184        0.00004159
      18         -0.831644        2.000000        0.01332732        0.00213912        0.00002435
      19         -0.830027        2.000000        0.00008579        0.00002110        0.00000029
      20         -0.829447        2.000000        0.06341288        0.01458664        0.00007921
      21         -0.828640        2.000000        0.15414193        0.03565349        0.00019753
      22         -0.828147        2.000000        0.00167486        0.00036821        0.00000167
      23         -0.827394        2.000000        0.00724250        0.00194332        0.00000886
      24         -0.826637        2.000000        0.02898651        0.00887539        0.00006986
      25         -0.825864        2.000000        0.00186259        0.00069633        0.00000181
      26         -0.825007        2.000000        0.00664717        0.00272909        0.00001197
      27         -0.824149        2.000000        0.00030414        0.00020800        0.00000097
      28         -0.823003        2.000000        0.00066563        0.00067656        0.00000840
      29         -0.821982        2.000000        0.00013657        0.00065513        0.00000553
      30         -0.820560        2.000000        0.00000247        0.00002104        0.00000030
      31         -0.820223        2.000000        0.00001500        0.00009040        0.00000205
      32         -0.820029        2.000000        0.00396374        0.00078048        0.00001442
      33         -0.819390        2.000000        0.00000615        0.00000986        0.00000018
      34         -0.818664        2.000000        0.00056577        0.00023329        0.00000041
      35         -0.817548        2.000000        0.00197075        0.00043630        0.00001804
      36         -0.816472        2.000000        0.04256489        0.00726335        0.00023290
      37         -0.815444        2.000000        0.02736021        0.00580283        0.00018415
      38         -0.814805        2.000000        0.00295334        0.00075185        0.00003319
      39         -0.814124        2.000000        0.01183690        0.00217076        0.00005400
      40         -0.813968        2.000000        0.00070083        0.00013440        0.00000359
      41         -0.813053        2.000000        0.00042677        0.00031965        0.00000085
      42         -0.812601        2.000000        0.00061271        0.00020276        0.00000898
      43         -0.811948        2.000000        0.00432379        0.00383465        0.00002483
      44         -0.811687        2.000000        0.00126829        0.00222918        0.00001234
      45         -0.810574        2.000000        0.00009454        0.00009760        0.00000121
      46         -0.809310        2.000000        0.00000196        0.00001112        0.00000024
      47         -0.808268        2.000000        0.00061005        0.00044995        0.00000279
      48         -0.807324        2.000000        0.00023610        0.00043208        0.00000377
      49         -0.806602        2.000000        0.00477980        0.00325200        0.00001407
      50         -0.806376        2.000000        0.00550490        0.00373707        0.00001216
      51         -0.806147        2.000000        0.00441239        0.00356350        0.00001694
      52         -0.804835        2.000000        0.00014403        0.00012893        0.00000040
      53         -0.804321        2.000000        0.02882210        0.01213172        0.00008389
      54         -0.803943        2.000000        0.00136345        0.00045194        0.00000258
      55         -0.803401        2.000000        0.02171850        0.00943220        0.00004552
      56         -0.802648        2.000000        0.13480253        0.04863280        0.00028607
      57         -0.801912        2.000000        0.04817101        0.01926125        0.00008211
      58         -0.801342        2.000000        0.00366071        0.00213351        0.00001046
      59         -0.800594        2.000000        0.00168402        0.00099047        0.00000240
      60         -0.799945        2.000000        0.00023954        0.00012899        0.00000040
      61         -0.799254        2.000000        0.00030478        0.00012159        0.00000061
      62         -0.798331        2.000000        0.00000083        0.00000396        0.00000004
      63         -0.797356        2.000000        0.00028944        0.00012992        0.00000057
      64         -0.795713        2.000000        0.00253065        0.00174991        0.00000232
      65         -0.795144        2.000000        0.00017219        0.00006014        0.00000082
      66         -0.794508        2.000000        0.00048524        0.00014648        0.00000313
      67         -0.793501        2.000000        0.00005764        0.00006216        0.00000413
      68         -0.792888        2.000000        0.00008965        0.00008509        0.00000108
      69         -0.792771        2.000000        0.00173823        0.00057200        0.00000741
      70         -0.792166        2.000000        0.00026764        0.00009637        0.00000116
      71         -0.791795        2.000000        0.00066387        0.00023407        0.00000196
      72         -0.790466        2.000000        0.00263249        0.00094073        0.00001755
      73         -0.789691        2.000000        0.00001504        0.00003046        0.00000009
      74         -0.789018        2.000000        0.00004076        0.00084142        0.00000136
      75         -0.788284        2.000000        0.00007155        0.00004746        0.00000030
      76         -0.787044        2.000000        0.00401489        0.00117639        0.00002626
      77         -0.785765        2.000000        0.00045467        0.00016691        0.00000266
      78         -0.783215        2.000000        0.00000913        0.00001004        0.00000007
      79         -0.782853        2.000000        0.00000957        0.00001361        0.00000064
      80         -0.782388        2.000000        0.00000399        0.00000465        0.00000007
      81         -0.781821        2.000000        0.00000008        0.00000056        0.00000000
      82         -0.780108        2.000000        0.00003678        0.00010718        0.00000081
      83         -0.778906        2.000000        0.00000047        0.00000043        0.00000001
      84         -0.778076        2.000000        0.00000001        0.00000002        0.00000000
      85         -0.775317        2.000000        0.00017519        0.00040706        0.00000041
      86         -0.773086        2.000000        0.00001859        0.00002908        0.00000003
      87         -0.772920        2.000000        0.00002266        0.00001216        0.00000037
      88         -0.771409        2.000000        0.00007239        0.00003026        0.00000168
      89         -0.769725        2.000000        0.00654098        0.00331784        0.00020111
      90         -0.769226        2.000000        0.00007872        0.00006809        0.00000389
      91         -0.767566        2.000000        0.00200862        0.00103191        0.00005946
      92         -0.766737        2.000000        0.00002471        0.00001282        0.00000072
      93         -0.755845        2.000000        0.00000249        0.00000172        0.00000011
      94         -0.752538        2.000000        0.00000707        0.00000579        0.00000037
      95         -0.747161        2.000000        0.00000000        0.00000000        0.00000000
      96         -0.736999        2.000000        0.00000016        0.00000018        0.00000001
      97         -0.726419        2.000000        0.00000000        0.00000000        0.00000000
      98         -0.719129        2.000000        0.00000000        0.00000000        0.00000000
      99         -0.696511        2.000000        0.00000000        0.00000000        0.00000000
     100         -0.460315        2.000000        0.00000000        0.00000000        0.00000000
     101         -0.427906        2.000000        0.00000000        0.00000001        0.00000000
     102         -0.424376        2.000000        0.00000000        0.00000000        0.00000000
     103         -0.405781        2.000000        0.00000241        0.00000702        0.00000019
     104         -0.401299        2.000000        0.00000424        0.00001647        0.00000030
     105         -0.398347        2.000000        0.00002428        0.00007515        0.00000150
     106         -0.398267        2.000000        0.00002002        0.00006907        0.00000122
     107         -0.397295        2.000000        0.00000043        0.00000236        0.00000002
     108         -0.395753        2.000000        0.00028866        0.00082195        0.00001884
     109         -0.395158        2.000000        0.00201956        0.00546392        0.00014294
     110         -0.394493        2.000000        0.00573662        0.01642823        0.00037602
     111         -0.394192        2.000000        0.00061979        0.00194543        0.00003968
     112         -0.393919        2.000000        0.00009515        0.00025778        0.00000638
     113         -0.393017        2.000000        0.00001126        0.00004361        0.00000086
     114         -0.391793        2.000000        0.00158651        0.00481030        0.00009474
     115         -0.389280        2.000000        0.00037149        0.00239925        0.00004391
     116         -0.388145        2.000000        0.00001215        0.00003600        0.00000090
     117         -0.387090        2.000000        0.00090407        0.00245783        0.00006152
     118         -0.386138        2.000000        0.00000699        0.00002352        0.00000046
     119         -0.385161        2.000000        0.00012710        0.00038361        0.00000834
     120         -0.384984        2.000000        0.00178160        0.00524672        0.00011872
     121         -0.383823        2.000000        0.00007009        0.00025733        0.00000557
     122         -0.383101        2.000000        0.00003837        0.00010233        0.00000268
     123         -0.383025        2.000000        0.00029908        0.00088579        0.00001869
     124         -0.381208        2.000000        0.00050703        0.00137154        0.00003574
     125         -0.380660        2.000000        0.00783149        0.02053632        0.00052085
     126         -0.380323        2.000000        0.02863606        0.07485490        0.00191066
     127         -0.379623        2.000000        0.00435406        0.01137179        0.00029733
     128         -0.379161        2.000000        0.00197970        0.00519021        0.00012868
     129         -0.378115        2.000000        0.00551951        0.01461389        0.00035626
     130         -0.377757        2.000000        0.00161855        0.00491134        0.00008927
     131         -0.377213        2.000000        0.00092885        0.00255326        0.00005560
     132         -0.376655        2.000000        0.00014977        0.00056560        0.00001202
     133         -0.376089        2.000000        0.00467261        0.01499078        0.00023420
     134         -0.375522        2.000000        0.00883462        0.02609624        0.00047743
     135         -0.373953        2.000000        0.00325790        0.01120994        0.00016867
     136         -0.373564        2.000000        0.00138577        0.00451444        0.00007129
     137         -0.372991        2.000000        0.00127992        0.00412349        0.00007108
     138         -0.372433        2.000000        0.00000093        0.00000736        0.00000014
     139         -0.372037        2.000000        0.00323517        0.00883720        0.00018729
     140         -0.371632        2.000000        0.00059162        0.00152958        0.00003317
     141         -0.371006        2.000000        0.00002536        0.00008095        0.00000106
     142         -0.369840        2.000000        0.00007269        0.00024403        0.00000394
     143         -0.369635        2.000000        0.00055236        0.00211721        0.00002939
     144         -0.369153        2.000000        0.00003314        0.00013297        0.00000277
     145         -0.369131        2.000000        0.00016638        0.00046186        0.00001362
     146         -0.368498        2.000000        0.00185551        0.00533947        0.00010548
     147         -0.367984        2.000000        0.00008398        0.00064058        0.00000647
     148         -0.367257        2.000000        0.00053516        0.00162097        0.00002860
     149         -0.366951        2.000000        0.00038149        0.00249653        0.00003420
     150         -0.366882        2.000000        0.00023294        0.00076828        0.00001588
     151         -0.366558        2.000000        0.00025639        0.00072986        0.00001354
     152         -0.366087        2.000000        0.00017358        0.00126299        0.00001511
     153         -0.365532        2.000000        0.00333022        0.01281171        0.00019964
     154         -0.365292        2.000000        0.02519524        0.10179693        0.00147537
     155         -0.364873        2.000000        0.00040325        0.00135341        0.00002382
     156         -0.364499        2.000000        0.00817883        0.02579727        0.00045254
     157         -0.364385        2.000000        0.00076716        0.00267537        0.00004637
     158         -0.363409        2.000000        0.00051432        0.00219846        0.00003067
     159         -0.362731        2.000000        0.00033653        0.00151280        0.00002975
     160         -0.361690        2.000000        0.00009129        0.00031528        0.00000526
     161         -0.361463        2.000000        0.00010239        0.00034750        0.00000738
     162         -0.360695        2.000000        0.03498351        0.10386642        0.00236133
     163         -0.359909        2.000000        0.00007227        0.00052183        0.00001018
     164         -0.358869        2.000000        0.00582638        0.01809902        0.00038274
     165         -0.358762        2.000000        0.00025927        0.00079878        0.00001701
     166         -0.358424        2.000000        0.00372195        0.01034446        0.00020947
     167         -0.357749        2.000000        0.00110788        0.00303192        0.00006938
     168         -0.357432        2.000000        0.00003331        0.00010823        0.00000232
     169         -0.356226        2.000000        0.05932465        0.17797565        0.00412140
     170         -0.355206        2.000000        0.00024943        0.00072435        0.00001466
     171         -0.354151        2.000000        0.00094035        0.00272749        0.00006219
     172         -0.353675        2.000000        0.00003160        0.00011500        0.00000236
     173         -0.353241        2.000000        0.00054735        0.00165034        0.00003043
     174         -0.352384        2.000000        0.00000490        0.00001646        0.00000023
     175         -0.349281        2.000000        0.00229083        0.02416651        0.00036950
     176         -0.348101        2.000000        0.00002657        0.00006795        0.00000222
     177         -0.347056        2.000000        0.00036414        0.00385677        0.00005845
     178         -0.346421        2.000000        0.00041234        0.00403081        0.00006918
     179         -0.346099        2.000000        0.00006933        0.00019946        0.00000512
     180         -0.344626        2.000000        0.00054119        0.00155268        0.00003075
     181         -0.344227        2.000000        0.00000032        0.00000102        0.00000004
     182         -0.344158        2.000000        0.00019996        0.00040143        0.00000295
     183         -0.343279        2.000000        0.00006783        0.00053292        0.00001028
     184         -0.342186        2.000000        0.00136021        0.00721109        0.00016894
     185         -0.341638        2.000000        0.00005008        0.00015663        0.00000224
     186         -0.341223        2.000000        0.00005574        0.00027310        0.00000679
     187         -0.341051        2.000000        0.00000099        0.00000855        0.00000020
     188         -0.340810        2.000000        0.00009567        0.00038037        0.00000514
     189         -0.340344        2.000000        0.00004964        0.00029885        0.00000425
     190         -0.340103        2.000000        0.00003950        0.00027661        0.00000417
     191         -0.339538        2.000000        0.00002907        0.00020358        0.00000226
     192         -0.338904        2.000000        0.00007759        0.00042388        0.00000755
     193         -0.338737        2.000000        0.00002254        0.00008505        0.00000160
     194         -0.337951        2.000000        0.00001307        0.00023998        0.00000407
     195         -0.337180        2.000000        0.00000040        0.00000768        0.00000013
     196         -0.336960        2.000000        0.00015738        0.00109600        0.00001719
     197         -0.336163        2.000000        0.00000442        0.00004920        0.00000077
     198         -0.335733        2.000000        0.00000112        0.00002598        0.00000042
     199         -0.334956        2.000000        0.00012269        0.00043593        0.00000642
     200         -0.333834        2.000000        0.00006722        0.00063581        0.00000894
     201         -0.331670        2.000000        0.00000681        0.00002471        0.00000041
     202         -0.330715        2.000000        0.00002166        0.00007795        0.00000063
     203         -0.327469        2.000000        0.00005939        0.00044630        0.00000552
     204         -0.326924        2.000000        0.00000128        0.00000532        0.00000007
     205         -0.319799        2.000000        0.00005704        0.00025776        0.00000163
     206         -0.319625        2.000000        0.00000034        0.00000224        0.00000003
     207         -0.318771        2.000000        0.00000281        0.00001461        0.00000004
     208         -0.318487        2.000000        0.00002523        0.00011304        0.00000096
     209         -0.318151        2.000000        0.00069643        0.00366764        0.00002803
     210         -0.317254        2.000000        0.00000246        0.00001606        0.00000011
     211         -0.316615        2.000000        0.00000596        0.00003359        0.00000018
     212         -0.316317        2.000000        0.00000040        0.00000093        0.00000002
     213         -0.315885        2.000000        0.00042015        0.00243546        0.00001716
     214         -0.315512        2.000000        0.00034172        0.00200908        0.00001392
     215         -0.314742        2.000000        0.00059540        0.00354901        0.00002259
     216         -0.314240        2.000000        0.00018318        0.00082661        0.00000569
     217         -0.313093        2.000000        0.00013925        0.00069852        0.00000486
     218         -0.312538        2.000000        0.00113371        0.00572431        0.00003900
     219         -0.312396        2.000000        0.00087932        0.00495627        0.00003383
     220         -0.312037        2.000000        0.00013680        0.00071759        0.00000425
     221         -0.310598        2.000000        0.00012847        0.00061644        0.00000387
     222         -0.310221        2.000000        0.00101106        0.00494893        0.00003330
     223         -0.309408        2.000000        0.00011113        0.00060600        0.00000365
     224         -0.309395        2.000000        0.00071062        0.00372458        0.00002383
     225         -0.309234        2.000000        0.00080881        0.00436453        0.00002777
     226         -0.308381        2.000000        0.00007306        0.00048068        0.00000294
     227         -0.308250        2.000000        0.00001272        0.00007020        0.00000040
     228         -0.308097        2.000000        0.00002430        0.00012407        0.00000081
     229         -0.307179        2.000000        0.00030359        0.00136967        0.00000850
     230         -0.305966        2.000000        0.02154218        0.11455613        0.00073375
     231         -0.305190        2.000000        0.00140834        0.00731490        0.00004450
     232         -0.305170        2.000000        0.00035571        0.00180078        0.00001108
     233         -0.303881        2.000000        0.00005080        0.00024177        0.00000142
     234         -0.303186        2.000000        0.00001475        0.00005957        0.00000027
     235         -0.302644        2.000000        0.00019621        0.00048745        0.00000299
     236         -0.302137        2.000000        0.00100463        0.00520028        0.00003306
     237         -0.301410        2.000000        0.00031905        0.00152311        0.00000827
     238         -0.301270        2.000000        0.00005005        0.00008283        0.00000140
     239         -0.300504        2.000000        0.00064669        0.00328844        0.00001858
     240         -0.300347        2.000000        0.00024928        0.00072964        0.00001060
     241         -0.300010        2.000000        0.00000029        0.00000408        0.00000008
     242         -0.298878        2.000000        0.00004859        0.00026141        0.00000173
     243         -0.298505        2.000000        0.00022906        0.00093108        0.00000487
     244         -0.297847        2.000000        0.00002410        0.00011332        0.00000038
     245         -0.297156        2.000000        0.00010193        0.00034693        0.00000197
     246         -0.297046        2.000000        0.00024682        0.00116816        0.00000730
     247         -0.296671        2.000000        0.00030415        0.00103040        0.00000567
     248         -0.296618        2.000000        0.00003231        0.00020704        0.00000116
     249         -0.295969        2.000000        0.00051931        0.00241292        0.00001211
     250         -0.295348        2.000000        0.00045793        0.00242562        0.00001155
     251         -0.295087        2.000000        0.00002091        0.00006743        0.00000014
     252         -0.294369        2.000000        0.00007278        0.00043968        0.00000197
     253         -0.294183        2.000000        0.00003805        0.00013652        0.00000117
     254         -0.293640        2.000000        0.00003741        0.00012900        0.00000124
     255         -0.293246        2.000000        0.00005864        0.00030826        0.00000193
     256         -0.292577        2.000000        0.00012067        0.00056011        0.00000273
     257         -0.291994        2.000000        0.00059241        0.00183169        0.00001228
     258         -0.291705        2.000000        0.00045223        0.00159760        0.00001074
     259         -0.290928        2.000000        0.00008198        0.00039022        0.00000189
     260         -0.290306        2.000000        0.00013020        0.00071849        0.00000568
     261         -0.289901        2.000000        0.00026553        0.00067130        0.00000444
     262         -0.289451        2.000000        0.00007536        0.00040623        0.00000262
     263         -0.289043        2.000000        0.00057740        0.00201364        0.00001170
     264         -0.288015        2.000000        0.00093105        0.00466225        0.00002731
     265         -0.287861        2.000000        0.00691375        0.03231875        0.00019735
     266         -0.286936        2.000000        0.00009889        0.00047068        0.00000275
     267         -0.286667        2.000000        0.00016339        0.00098326        0.00000526
     268         -0.286302        2.000000        0.00001475        0.00010147        0.00000037
     269         -0.285607        2.000000        0.00006375        0.00061291        0.00000192
     270         -0.285328        2.000000        0.00016309        0.00117474        0.00000515
     271         -0.285085        2.000000        0.00007732        0.00039422        0.00000244
     272         -0.284841        2.000000        0.00000760        0.00001699        0.00000009
     273         -0.284131        2.000000        0.00008688        0.00036595        0.00000317
     274         -0.283572        2.000000        0.00013194        0.00042298        0.00000256
     275         -0.283249        2.000000        0.00004412        0.00038416        0.00000190
     276         -0.283050        2.000000        0.00004342        0.00014356        0.00000122
     277         -0.282957        2.000000        0.00005942        0.00035842        0.00000152
     278         -0.282638        2.000000        0.00020742        0.00108446        0.00000304
     279         -0.282393        2.000000        0.00164064        0.00842396        0.00002321
     280         -0.282190        2.000000        0.00001617        0.00005076        0.00000012
     281         -0.281812        2.000000        0.00001807        0.00008113        0.00000038
     282         -0.281718        2.000000        0.00001609        0.00004122        0.00000026
     283         -0.281529        2.000000        0.00000951        0.00010509        0.00000044
     284         -0.281304        2.000000        0.00006136        0.00040633        0.00000120
     285         -0.281056        2.000000        0.00002425        0.00012804        0.00000099
     286         -0.280948        2.000000        0.00009712        0.00036859        0.00000203
     287         -0.280843        2.000000        0.00006706        0.00026324        0.00000119
     288         -0.280780        2.000000        0.00007607        0.00029361        0.00000175
     289         -0.280282        2.000000        0.00001712        0.00004714        0.00000024
     290         -0.279956        2.000000        0.00001724        0.00011428        0.00000050
     291         -0.279807        2.000000        0.00007311        0.00029591        0.00000166
     292         -0.279686        2.000000        0.00041676        0.00179069        0.00000859
     293         -0.279589        2.000000        0.00001263        0.00002666        0.00000025
     294         -0.279495        2.000000        0.00000197        0.00002119        0.00000035
     295         -0.279217        2.000000        0.00001063        0.00003195        0.00000086
     296         -0.279093        2.000000        0.00002447        0.00015946        0.00000241
     297         -0.278951        2.000000        0.00011660        0.00048007        0.00000199
     298         -0.278592        2.000000        0.00021642        0.00122683        0.00000519
     299         -0.278433        2.000000        0.00007173        0.00052078        0.00000119
     300         -0.278210        2.000000        0.00012492        0.00057020        0.00000210
     301         -0.278135        2.000000        0.00005001        0.00020391        0.00000069
     302         -0.278031        2.000000        0.00010714        0.00074421        0.00000209
     303         -0.277650        2.000000        0.00019109        0.00103474        0.00000301
     304         -0.277312        2.000000        0.00004136        0.00016216        0.00000105
     305         -0.276990        2.000000        0.00077547        0.00295126        0.00001492
     306         -0.276609        2.000000        0.00009495        0.00038280        0.00000128
     307         -0.276405        2.000000        0.00007272        0.00029708        0.00000156