# Projected DOS for list 44 of 3 atoms, at iteration step i = 0, E(Fermi) =    -0.060510 a.u.
#     MO Eigenvalue [a.u.]      Occupation                 s                 p                 d
       1         -0.895259        2.000000        0.00000000        0.00000000        0.00000000
       2         -0.868125        2.000000        0.00000005        0.00000007        0.00000000
       3         -0.864615        2.000000        0.00000014        0.00000017        0.00000000
       4         -0.857993        2.000000        0.00017032        0.00015128        0.00000589
       5         -0.853826        2.000000        0.00007548        0.00007982        0.00000064
       6         -0.850378        2.000000        0.00000002        0.00000004        0.00000000
       7         -0.848222        2.000000        0.00000026        0.00000025        0.00000000
       8         -0.847335        2.000000        0.00000271        0.00002433        0.00000026
       9         -0.842977        2.000000        0.00000465        0.00000116        0.00000002
      10         -0.841504        2.000000        0.00074298        0.00013011        0.00000261
      11         -0.840654        2.000000        0.00100782        0.00023165        0.00000376
      12         -0.839688        2.000000        0.00195637        0.00071392        0.00001087
      13         -0.839172        2.000000        0.00034413        0.00069467        0.00000449
      14         -0.838522        2.000000        0.01226392        0.00872637        0.00008735
      15         -0.837015        2.000000        0.00003173        0.00006051        0.00000060
      16         -0.832753        2.000000        0.00002228        0.00003377        0.00000032
      17         -0.832000        2.000000        0.00002707        0.00005257        0.00000081
      18         -0.831644        2.000000        0.00008246        0.00001839        0.00000034
      19         -0.830027        2.000000        0.00004020        0.00003468        0.00000039
      20         -0.829447        2.000000        0.00000312        0.00013576        0.00000194
      21         -0.828640        2.000000        0.00002242        0.00034091        0.00000396
      22         -0.828147        2.000000        0.00220210        0.00047308        0.00000533
      23         -0.827394        2.000000        0.00003689        0.00024044        0.00000291
      24         -0.826637        2.000000        0.00198162        0.00070577        0.00001112
      25         -0.825864        2.000000        0.00392590        0.00139691        0.00002016
      26         -0.825007        2.000000        0.00013588        0.00009563        0.00000093
      27         -0.824149        2.000000        0.00005212        0.00010262        0.00000076
      28         -0.823003        2.000000        0.00002734        0.00002074        0.00000020
      29         -0.821982        2.000000        0.00430498        0.00158714        0.00000293
      30         -0.820560        2.000000        0.00033905        0.00007348        0.00000167
      31         -0.820223        2.000000        0.00010137        0.00006717        0.00000063
      32         -0.820029        2.000000        0.00018533        0.00014246        0.00000074
      33         -0.819390        2.000000        0.00007480        0.00004116        0.00000077
      34         -0.818664        2.000000        0.00041497        0.00013944        0.00000034
      35         -0.817548        2.000000        0.00384187        0.00088152        0.00000189
      36         -0.816472        2.000000        0.00318442        0.00108376        0.00000232
      37         -0.815444        2.000000        0.00017762        0.00026563        0.00000219
      38         -0.814805        2.000000        0.00067609        0.00023530        0.00000672
      39         -0.814124        2.000000        0.00092254        0.00014708        0.00000148
      40         -0.813968        2.000000        0.00003773        0.00000655        0.00000015
      41         -0.813053        2.000000        0.01369336        0.00212959        0.00001809
      42         -0.812601        2.000000        0.00481425        0.00141205        0.00003486
      43         -0.811948        2.000000        0.01299945        0.00445814        0.00002123
      44         -0.811687        2.000000        0.01123467        0.00360658        0.00001503
      45         -0.810574        2.000000        0.01230160        0.00249619        0.00006851
      46         -0.809310        2.000000        0.00070760        0.00011736        0.00000292
      47         -0.808268        2.000000        0.00270372        0.00043755        0.00001004
      48         -0.807324        2.000000        0.00032860        0.00007964        0.00000378
      49         -0.806602        2.000000        0.01350783        0.00253120        0.00001798
      50         -0.806376        2.000000        0.00784098        0.00145964        0.00001628
      51         -0.806147        2.000000        0.00005995        0.00027727        0.00000450
      52         -0.804835        2.000000        0.00007662        0.00009706        0.00000302
      53         -0.804321        2.000000        0.05395964        0.00860479        0.00017830
      54         -0.803943        2.000000        0.00604428        0.00116583        0.00000944
      55         -0.803401        2.000000        0.00268842        0.00048020        0.00000798
      56         -0.802648        2.000000        0.00149452        0.00034456        0.00001651
      57         -0.801912        2.000000        0.01270687        0.00251839        0.00003623
      58         -0.801342        2.000000        0.00635582        0.00330471        0.00001797
      59         -0.800594        2.000000        0.00099895        0.00341739        0.00007639
      60         -0.799945        2.000000        0.00010660        0.00041114        0.00000488
      61         -0.799254        2.000000        0.00144671        0.00022440        0.00000498
      62         -0.798331        2.000000        0.00000156        0.00000551        0.00000017
      63         -0.797356        2.000000        0.00033566        0.00009372        0.00000574
      64         -0.795713        2.000000        0.00004495        0.00131389        0.00014879
      65         -0.795144        2.000000        0.00130929        0.00023455        0.00000361
      66         -0.794508        2.000000        0.00874248        0.00193951        0.00002404
      67         -0.793501        2.000000        0.00393634        0.00078575        0.00000834
      68         -0.792888        2.000000        0.00172295        0.00036647        0.00000536
      69         -0.792771        2.000000        0.00451869        0.00092895        0.00001654
      70         -0.792166        2.000000        0.04700673        0.00953550        0.00011532
      71         -0.791795        2.000000        0.00617755        0.00120418        0.00002652
      72         -0.790466        2.000000        0.08643049        0.01944759        0.00018225
      73         -0.789691        2.000000        0.00046360        0.00015015        0.00000370
      74         -0.789018        2.000000        0.00339125        0.00212766        0.00008163
      75         -0.788284        2.000000        0.00057773        0.00014107        0.00000189
      76         -0.787044        2.000000        0.20142572        0.05548301        0.00033763
      77         -0.785765        2.000000        0.00119159        0.00032657        0.00000208
      78         -0.783215        2.000000        0.00003254        0.00000562        0.00000026
      79         -0.782853        2.000000        0.00026076        0.00011530        0.00000028
      80         -0.782388        2.000000        0.00017799        0.00005259        0.00000256
      81         -0.781821        2.000000        0.00048309        0.00022972        0.00000043
      82         -0.780108        2.000000        0.03236662        0.02097740        0.00003014
      83         -0.778906        2.000000        0.00000467        0.00000802        0.00000003
      84         -0.778076        2.000000        0.00005026        0.00001678        0.00000010
      85         -0.775317        2.000000        0.16349299        0.04816775        0.00047899
      86         -0.773086        2.000000        0.00484942        0.00134281        0.00001794
      87         -0.772920        2.000000        0.00039761        0.00011931        0.00000133
      88         -0.771409        2.000000        0.00000809        0.00000823        0.00000002
      89         -0.769725        2.000000        0.00013459        0.00023431        0.00000058
      90         -0.769226        2.000000        0.00017594        0.00008407        0.00000036
      91         -0.767566        2.000000        0.00035412        0.00022878        0.00000085
      92         -0.766737        2.000000        0.00000840        0.00000473        0.00000002
      93         -0.755845        2.000000        0.00000358        0.00000265        0.00000001
      94         -0.752538        2.000000        0.00001346        0.00001055        0.00000004
      95         -0.747161        2.000000        0.00000000        0.00000001        0.00000000
      96         -0.736999        2.000000        0.00000035        0.00000036        0.00000000
      97         -0.726419        2.000000        0.00000000        0.00000000        0.00000000
      98         -0.719129        2.000000        0.00000000        0.00000001        0.00000000
      99         -0.696511        2.000000        0.00000000        0.00000000        0.00000000
     100         -0.460315        2.000000        0.00000000        0.00000000        0.00000000
     101         -0.427906        2.000000        0.00000005        0.00000014        0.00000000
     102         -0.424376        2.000000        0.00000001        0.00000003        0.00000000
     103         -0.405781        2.000000        0.00002859        0.00017036        0.00000260
     104         -0.401299        2.000000        0.00005913        0.00015386        0.00000359
     105         -0.398347        2.000000        0.00000019        0.00000148        0.00000001
     106         -0.398267        2.000000        0.00000473        0.00001299        0.00000029
     107         -0.397295        2.000000        0.00000041        0.00000104        0.00000005
     108         -0.395753        2.000000        0.00000296        0.00001922        0.00000035
     109         -0.395158        2.000000        0.00027380        0.00155718        0.00002770
     110         -0.394493        2.000000        0.00001421        0.00009727        0.00000136
     111         -0.394192        2.000000        0.00019653        0.00095524        0.00001675
     112         -0.393919        2.000000        0.00001283        0.00005536        0.00000069
     113         -0.393017        2.000000        0.00000854        0.00003546        0.00000077
     114         -0.391793        2.000000        0.00000476        0.00001320        0.00000013
     115         -0.389280        2.000000        0.00901305        0.02375662        0.00050984
     116         -0.388145        2.000000        0.00000092        0.00000408        0.00000009
     117         -0.387090        2.000000        0.00205376        0.00595587        0.00011704
     118         -0.386138        2.000000        0.00007675        0.00018439        0.00000414
     119         -0.385161        2.000000        0.00006050        0.00017698        0.00000329
     120         -0.384984        2.000000        0.00003450        0.00009741        0.00000241
     121         -0.383823        2.000000        0.00009995        0.00036594        0.00001366
     122         -0.383101        2.000000        0.00001196        0.00004891        0.00000116
     123         -0.383025        2.000000        0.00027910        0.00070783        0.00001432
     124         -0.381208        2.000000        0.00002162        0.00015351        0.00000526
     125         -0.380660        2.000000        0.00050250        0.00218394        0.00005355
     126         -0.380323        2.000000        0.00267357        0.01152004        0.00028176
     127         -0.379623        2.000000        0.00012953        0.00107540        0.00003618
     128         -0.379161        2.000000        0.00241738        0.00665913        0.00012932
     129         -0.378115        2.000000        0.00803763        0.02076298        0.00042241
     130         -0.377757        2.000000        0.00004894        0.00031875        0.00000991
     131         -0.377213        2.000000        0.00001401        0.00003201        0.00000096
     132         -0.376655        2.000000        0.00201560        0.00562446        0.00011629
     133         -0.376089        2.000000        0.00053488        0.00424050        0.00010400
     134         -0.375522        2.000000        0.00535337        0.01560274        0.00030841
     135         -0.373953        2.000000        0.01616020        0.04087848        0.00086682
     136         -0.373564        2.000000        0.01885798        0.04773784        0.00096953
     137         -0.372991        2.000000        0.05101754        0.12874009        0.00253037
     138         -0.372433        2.000000        0.01186445        0.02995275        0.00059291
     139         -0.372037        2.000000        0.00061357        0.00157760        0.00003403
     140         -0.371632        2.000000        0.00032160        0.00091312        0.00001705
     141         -0.371006        2.000000        0.00003686        0.00023606        0.00000408
     142         -0.369840        2.000000        0.00234383        0.00594994        0.00011500
     143         -0.369635        2.000000        0.00015942        0.00044796        0.00000851
     144         -0.369153        2.000000        0.00112138        0.00283239        0.00005508
     145         -0.369131        2.000000        0.08617861        0.21781858        0.00427202
     146         -0.368498        2.000000        0.00019063        0.00049368        0.00000976
     147         -0.367984        2.000000        0.00192220        0.00488429        0.00010103
     148         -0.367257        2.000000        0.00053542        0.00138595        0.00002589
     149         -0.366951        2.000000        0.00056740        0.00145215        0.00002937
     150         -0.366882        2.000000        0.00174855        0.00461154        0.00009182
     151         -0.366558        2.000000        0.00021185        0.00056374        0.00001067
     152         -0.366087        2.000000        0.00093480        0.00251604        0.00005183
     153         -0.365532        2.000000        0.00052702        0.00133428        0.00002395
     154         -0.365292        2.000000        0.00009328        0.00060186        0.00000377
     155         -0.364873        2.000000        0.00247021        0.00633894        0.00011854
     156         -0.364499        2.000000        0.00018833        0.00069242        0.00001158
     157         -0.364385        2.000000        0.00583235        0.01499729        0.00028089
     158         -0.363409        2.000000        0.00005023        0.00016195        0.00000320
     159         -0.362731        2.000000        0.00017963        0.00048098        0.00000865
     160         -0.361690        2.000000        0.00001713        0.00011961        0.00000186
     161         -0.361463        2.000000        0.00040358        0.00112239        0.00001847
     162         -0.360695        2.000000        0.00035699        0.00232707        0.00005853
     163         -0.359909        2.000000        0.00008336        0.00049526        0.00000720
     164         -0.358869        2.000000        0.00096886        0.00299347        0.00004271
     165         -0.358762        2.000000        0.00009124        0.00027194        0.00000401
     166         -0.358424        2.000000        0.00089467        0.00260709        0.00003978
     167         -0.357749        2.000000        0.00265601        0.00705528        0.00012327
     168         -0.357432        2.000000        0.00126462        0.00383485        0.00007938
     169         -0.356226        2.000000        0.00023991        0.00131866        0.00003115
     170         -0.355206        2.000000        0.00000424        0.00002803        0.00000069
     171         -0.354151        2.000000        0.00092278        0.00268985        0.00004074
     172         -0.353675        2.000000        0.00001084        0.00003018        0.00000047
     173         -0.353241        2.000000        0.00004864        0.00016809        0.00000266
     174         -0.352384        2.000000        0.00002766        0.00008789        0.00000161
     175         -0.349281        2.000000        0.00040460        0.00098288        0.00001581
     176         -0.348101        2.000000        0.00002202        0.00011076        0.00000219
     177         -0.347056        2.000000        0.00001719        0.00010615        0.00000157
     178         -0.346421        2.000000        0.00001193        0.00009602        0.00000098
     179         -0.346099        2.000000        0.00002273        0.00013190        0.00000273
     180         -0.344626        2.000000        0.00003077        0.00030487        0.00000653
     181         -0.344227        2.000000        0.00000358        0.00002509        0.00000047
     182         -0.344158        2.000000        0.00002078        0.00014646        0.00000215
     183         -0.343279        2.000000        0.00001187        0.00010662        0.00000251
     184         -0.342186        2.000000        0.00008179        0.00036782        0.00000390
     185         -0.341638        2.000000        0.00000429        0.00001903        0.00000012
     186         -0.341223        2.000000        0.00277189        0.02263181        0.00039204
     187         -0.341051        2.000000        0.00001970        0.00017434        0.00000290
     188         -0.340810        2.000000        0.00105673        0.00814421        0.00013388
     189         -0.340344        2.000000        0.00001995        0.00017525        0.00000285
     190         -0.340103        2.000000        0.00000262        0.00001742        0.00000031
     191         -0.339538        2.000000        0.00001991        0.00007806        0.00000092
     192         -0.338904        2.000000        0.00001704        0.00019056        0.00000363
     193         -0.338737        2.000000        0.00002095        0.00010936        0.00000181
     194         -0.337951        2.000000        0.00043126        0.00128944        0.00003453
     195         -0.337180        2.000000        0.00003492        0.00012025        0.00000300
     196         -0.336960        2.000000        0.00109063        0.00375544        0.00008736
     197         -0.336163        2.000000        0.00008282        0.00031687        0.00000780
     198         -0.335733        2.000000        0.00004048        0.00015262        0.00000399
     199         -0.334956        2.000000        0.00000125        0.00000982        0.00000011
     200         -0.333834        2.000000        0.00005853        0.00018556        0.00000352
     201         -0.331670        2.000000        0.00000695        0.00004787        0.00000071
     202         -0.330715        2.000000        0.00000180        0.00001211        0.00000007
     203         -0.327469        2.000000        0.00005185        0.00016581        0.00000247
     204         -0.326924        2.000000        0.00000101        0.00000458        0.00000006
     205         -0.319799        2.000000        0.00021243        0.00168212        0.00002196
     206         -0.319625        2.000000        0.00000015        0.00000057        0.00000001
     207         -0.318771        2.000000        0.00000016        0.00000136        0.00000002
     208         -0.318487        2.000000        0.00000073        0.00001328        0.00000034
     209         -0.318151        2.000000        0.00002648        0.00027901        0.00000507
     210         -0.317254        2.000000        0.00003571        0.00029288        0.00000396
     211         -0.316615        2.000000        0.00003286        0.00028743        0.00000347
     212         -0.316317        2.000000        0.00000054        0.00000271        0.00000002
     213         -0.315885        2.000000        0.00002029        0.00012687        0.00000097
     214         -0.315512        2.000000        0.00000509        0.00003511        0.00000052
     215         -0.314742        2.000000        0.00001164        0.00006878        0.00000057
     216         -0.314240        2.000000        0.00000120        0.00001251        0.00000013
     217         -0.313093        2.000000        0.00000244        0.00003853        0.00000064
     218         -0.312538        2.000000        0.00005418        0.00031887        0.00000283
     219         -0.312396        2.000000        0.00002227        0.00014381        0.00000134
     220         -0.312037        2.000000        0.00001009        0.00016201        0.00000347
     221         -0.310598        2.000000        0.00004416        0.00040549        0.00000457
     222         -0.310221        2.000000        0.00001578        0.00007190        0.00000130
     223         -0.309408        2.000000        0.00000005        0.00001028        0.00000027
     224         -0.309395        2.000000        0.00003177        0.00019305        0.00000129
     225         -0.309234        2.000000        0.00003590        0.00026634        0.00000228
     226         -0.308381        2.000000        0.00005467        0.00043703        0.00000494
     227         -0.308250        2.000000        0.00000155        0.00001058        0.00000013
     228         -0.308097        2.000000        0.00000405        0.00003535        0.00000054
     229         -0.307179        2.000000        0.00000535        0.00008223        0.00000076
     230         -0.305966        2.000000        0.00008099        0.00053305        0.00000822
     231         -0.305190        2.000000        0.00000388        0.00003477        0.00000049
     232         -0.305170        2.000000        0.00000111        0.00001188        0.00000015
     233         -0.303881        2.000000        0.00000072        0.00000431        0.00000004
     234         -0.303186        2.000000        0.00000111        0.00000678        0.00000010
     235         -0.302644        2.000000        0.00003897        0.00030867        0.00000404
     236         -0.302137        2.000000        0.00001215        0.00007476        0.00000052
     237         -0.301410        2.000000        0.00001388        0.00011304        0.00000150
     238         -0.301270        2.000000        0.00003677        0.00030801        0.00000332
     239         -0.300504        2.000000        0.00000869        0.00007165        0.00000121
     240         -0.300347        2.000000        0.00021748        0.00209501        0.00003134
     241         -0.300010        2.000000        0.00000133        0.00000659        0.00000005
     242         -0.298878        2.000000        0.00000382        0.00004740        0.00000064
     243         -0.298505        2.000000        0.00000330        0.00004266        0.00000061
     244         -0.297847        2.000000        0.00000552        0.00003749        0.00000038
     245         -0.297156        2.000000        0.00001040        0.00007527        0.00000074
     246         -0.297046        2.000000        0.00001126        0.00014340        0.00000107
     247         -0.296671        2.000000        0.00000101        0.00000991        0.00000010
     248         -0.296618        2.000000        0.00001195        0.00009706        0.00000167
     249         -0.295969        2.000000        0.00001378        0.00005623        0.00000042
     250         -0.295348        2.000000        0.00002365        0.00025509        0.00000331
     251         -0.295087        2.000000        0.00000085        0.00001072        0.00000011
     252         -0.294369        2.000000        0.00000367        0.00003574        0.00000033
     253         -0.294183        2.000000        0.00000136        0.00002072        0.00000062
     254         -0.293640        2.000000        0.00001787        0.00024758        0.00000366
     255         -0.293246        2.000000        0.00000850        0.00009528        0.00000116
     256         -0.292577        2.000000        0.00000175        0.00002181        0.00000061
     257         -0.291994        2.000000        0.00003940        0.00041223        0.00000808
     258         -0.291705        2.000000        0.00000167        0.00001046        0.00000009
     259         -0.290928        2.000000        0.00000363        0.00001343        0.00000014
     260         -0.290306        2.000000        0.00009392        0.00129092        0.00002041
     261         -0.289901        2.000000        0.00013865        0.00108249        0.00001411
     262         -0.289451        2.000000        0.00004868        0.00033605        0.00000467
     263         -0.289043        2.000000        0.00000352        0.00003971        0.00000064
     264         -0.288015        2.000000        0.00000237        0.00003761        0.00000076
     265         -0.287861        2.000000        0.00000972        0.00007854        0.00000134
     266         -0.286936        2.000000        0.00001087        0.00006866        0.00000031
     267         -0.286667        2.000000        0.00000280        0.00003331        0.00000064
     268         -0.286302        2.000000        0.00000216        0.00002242        0.00000024
     269         -0.285607        2.000000        0.00000348        0.00002279        0.00000039
     270         -0.285328        2.000000        0.00001807        0.00005437        0.00000068
     271         -0.285085        2.000000        0.00001043        0.00006407        0.00000070
     272         -0.284841        2.000000        0.00001589        0.00008244        0.00000070
     273         -0.284131        2.000000        0.00001307        0.00008514        0.00000042
     274         -0.283572        2.000000        0.00011295        0.00046682        0.00000585
     275         -0.283249        2.000000        0.00005533        0.00023025        0.00000254
     276         -0.283050        2.000000        0.00005321        0.00020311        0.00000221
     277         -0.282957        2.000000        0.00000618        0.00002928        0.00000039
     278         -0.282638        2.000000        0.00002998        0.00010737        0.00000104
     279         -0.282393        2.000000        0.00130743        0.00512114        0.00005045
     280         -0.282190        2.000000        0.00016857        0.00066685        0.00000734
     281         -0.281812        2.000000        0.00002461        0.00013778        0.00000109
     282         -0.281718        2.000000        0.00008215        0.00042195        0.00000329
     283         -0.281529        2.000000        0.00000484        0.00003090        0.00000017
     284         -0.281304        2.000000        0.00000216        0.00001386        0.00000017
     285         -0.281056        2.000000        0.00001663        0.00008016        0.00000081
     286         -0.280948        2.000000        0.00002669        0.00011520        0.00000106
     287         -0.280843        2.000000        0.00028531        0.00098704        0.00000946
     288         -0.280780        2.000000        0.00000735        0.00004379        0.00000028
     289         -0.280282        2.000000        0.00009017        0.00044913        0.00000371
     290         -0.279956        2.000000        0.00015004        0.00071232        0.00000648
     291         -0.279807        2.000000        0.00000825        0.00003577        0.00000015
     292         -0.279686        2.000000        0.00021180        0.00095054        0.00000571
     293         -0.279589        2.000000        0.00001299        0.00012863        0.00000110
     294         -0.279495        2.000000        0.00057692        0.00201588        0.00001973
     295         -0.279217        2.000000        0.00012289        0.00055259        0.00000312
     296         -0.279093        2.000000        0.00277058        0.00978639        0.00009246
     297         -0.278951        2.000000        0.00023795        0.00095259        0.00000753
     298         -0.278592        2.000000        0.00117299        0.00483418        0.00004539
     299         -0.278433        2.000000        0.00008047        0.00034554        0.00000248
     300         -0.278210        2.000000        0.00018518        0.00064750        0.00000701
     301         -0.278135        2.000000        0.00000899        0.00009667        0.00000049
     302         -0.278031        2.000000        0.00005734        0.00018206        0.00000174
     303         -0.277650        2.000000        0.00029505        0.00119732        0.00001315
     304         -0.277312        2.000000        0.00001626        0.00009757        0.00000109
     305         -0.276990        2.000000        0.00056718        0.00207230        0.00002437
     306         -0.276609        2.000000        0.00009849        0.00032574        0.00000309
     307         -0.276405        2.000000        0.00028056        0.00112879        0.00001504