# Projected DOS for list 75 of 3 atoms, at iteration step i = 0, E(Fermi) =    -0.060510 a.u.
#     MO Eigenvalue [a.u.]      Occupation                 s                 p                 d
       1         -0.895259        2.000000        0.00000000        0.00000000        0.00000000
       2         -0.868125        2.000000        0.00000028        0.00000026        0.00000000
       3         -0.864615        2.000000        0.00000144        0.00000117        0.00000001
       4         -0.857993        2.000000        0.00000384        0.00000161        0.00000001
       5         -0.853826        2.000000        0.00157235        0.00024993        0.00000347
       6         -0.850378        2.000000        0.00017890        0.00006856        0.00000051
       7         -0.848222        2.000000        0.00095373        0.00031905        0.00000363
       8         -0.847335        2.000000        0.00024720        0.00004123        0.00000081
       9         -0.842977        2.000000        0.00052650        0.00006543        0.00000065
      10         -0.841504        2.000000        0.05514396        0.00568899        0.00009835
      11         -0.840654        2.000000        0.02477504        0.00407949        0.00006203
      12         -0.839688        2.000000        0.00209695        0.00212215        0.00000817
      13         -0.839172        2.000000        0.00523878        0.00227368        0.00003993
      14         -0.838522        2.000000        0.00260505        0.00127434        0.00001192
      15         -0.837015        2.000000        0.01072986        0.00382368        0.00004630
      16         -0.832753        2.000000        0.03076542        0.00539907        0.00003709
      17         -0.832000        2.000000        0.00962408        0.00171358        0.00001080
      18         -0.831644        2.000000        0.01177682        0.00210793        0.00001369
      19         -0.830027        2.000000        0.00482580        0.00130752        0.00000375
      20         -0.829447        2.000000        0.04739449        0.00808879        0.00006294
      21         -0.828640        2.000000        0.03522547        0.00662711        0.00005936
      22         -0.828147        2.000000        0.00186225        0.00079787        0.00000753
      23         -0.827394        2.000000        0.00584977        0.00134918        0.00000798
      24         -0.826637        2.000000        0.00145338        0.00407207        0.00002779
      25         -0.825864        2.000000        0.00051124        0.00150873        0.00001698
      26         -0.825007        2.000000        0.00503731        0.00307696        0.00002401
      27         -0.824149        2.000000        0.00006283        0.00009792        0.00000106
      28         -0.823003        2.000000        0.00369386        0.00267737        0.00001401
      29         -0.821982        2.000000        0.00785634        0.00256243        0.00000319
      30         -0.820560        2.000000        0.03321162        0.01131726        0.00001170
      31         -0.820223        2.000000        0.02118375        0.00753072        0.00001235
      32         -0.820029        2.000000        0.09773662        0.03221047        0.00005138
      33         -0.819390        2.000000        0.01640303        0.00556013        0.00002012
      34         -0.818664        2.000000        0.04797593        0.01791585        0.00001269
      35         -0.817548        2.000000        0.00984157        0.00373796        0.00000743
      36         -0.816472        2.000000        0.00224647        0.00173015        0.00001050
      37         -0.815444        2.000000        0.02249095        0.00859528        0.00002015
      38         -0.814805        2.000000        0.00214269        0.00086167        0.00000147
      39         -0.814124        2.000000        0.00001195        0.00009313        0.00000208
      40         -0.813968        2.000000        0.00101285        0.00047049        0.00000009
      41         -0.813053        2.000000        0.00035472        0.00078750        0.00000509
      42         -0.812601        2.000000        0.00024472        0.00011030        0.00000073
      43         -0.811948        2.000000        0.00573901        0.00366384        0.00000226
      44         -0.811687        2.000000        0.00324834        0.00170946        0.00000343
      45         -0.810574        2.000000        0.00029658        0.00010621        0.00000041
      46         -0.809310        2.000000        0.00009474        0.00001912        0.00000063
      47         -0.808268        2.000000        0.00112812        0.00066256        0.00000091
      48         -0.807324        2.000000        0.00019380        0.00048485        0.00000619
      49         -0.806602        2.000000        0.00288533        0.00481241        0.00003136
      50         -0.806376        2.000000        0.00161457        0.00120234        0.00002328
      51         -0.806147        2.000000        0.00001619        0.00069488        0.00005269
      52         -0.804835        2.000000        0.00091432        0.00159860        0.00001383
      53         -0.804321        2.000000        0.00211206        0.00150759        0.00000354
      54         -0.803943        2.000000        0.00078182        0.00494097        0.00012857
      55         -0.803401        2.000000        0.00015614        0.00045494        0.00000664
      56         -0.802648        2.000000        0.00270707        0.00133892        0.00000325
      57         -0.801912        2.000000        0.00484612        0.00284144        0.00001054
      58         -0.801342        2.000000        0.00488201        0.00209322        0.00000472
      59         -0.800594        2.000000        0.00339202        0.00176542        0.00000201
      60         -0.799945        2.000000        0.00226009        0.00095581        0.00000552
      61         -0.799254        2.000000        0.01201360        0.00456208        0.00002214
      62         -0.798331        2.000000        0.00088397        0.00038986        0.00000223
      63         -0.797356        2.000000        0.00163782        0.00052242        0.00000621
      64         -0.795713        2.000000        0.00141237        0.00034285        0.00001370
      65         -0.795144        2.000000        0.01929066        0.00621319        0.00010018
      66         -0.794508        2.000000        0.02750819        0.00909605        0.00015605
      67         -0.793501        2.000000        0.00258061        0.00094105        0.00002905
      68         -0.792888        2.000000        0.00739413        0.00239454        0.00005102
      69         -0.792771        2.000000        0.03129113        0.00969339        0.00027505
      70         -0.792166        2.000000        0.00062995        0.00022519        0.00000143
      71         -0.791795        2.000000        0.00272462        0.00105530        0.00001908
      72         -0.790466        2.000000        0.05319806        0.01532762        0.00024930
      73         -0.789691        2.000000        0.00025492        0.00006493        0.00000201
      74         -0.789018        2.000000        0.00014105        0.00006335        0.00000360
      75         -0.788284        2.000000        0.00001610        0.00000621        0.00000017
      76         -0.787044        2.000000        0.00883261        0.00310655        0.00006582
      77         -0.785765        2.000000        0.00007471        0.00004359        0.00000148
      78         -0.783215        2.000000        0.00002290        0.00000760        0.00000023
      79         -0.782853        2.000000        0.00000167        0.00000200        0.00000004
      80         -0.782388        2.000000        0.00018096        0.00005676        0.00000205
      81         -0.781821        2.000000        0.00001402        0.00000378        0.00000012
      82         -0.780108        2.000000        0.00029186        0.00023211        0.00000707
      83         -0.778906        2.000000        0.00000001        0.00000011        0.00000001
      84         -0.778076        2.000000        0.00006018        0.00001798        0.00000065
      85         -0.775317        2.000000        0.00000229        0.00001653        0.00000060
      86         -0.773086        2.000000        0.00031760        0.00008976        0.00000396
      87         -0.772920        2.000000        0.00001992        0.00000554        0.00000026
      88         -0.771409        2.000000        0.01852240        0.00544995        0.00028383
      89         -0.769725        2.000000        0.00019486        0.00006063        0.00000219
      90         -0.769226        2.000000        0.00007466        0.00002099        0.00000106
      91         -0.767566        2.000000        0.00000177        0.00000249        0.00000016
      92         -0.766737        2.000000        0.00000025        0.00000012        0.00000001
      93         -0.755845        2.000000        0.00000456        0.00000146        0.00000010
      94         -0.752538        2.000000        0.00000025        0.00000008        0.00000001
      95         -0.747161        2.000000        0.00000000        0.00000000        0.00000000
      96         -0.736999        2.000000        0.00000000        0.00000001        0.00000000
      97         -0.726419        2.000000        0.00000000        0.00000000        0.00000000
      98         -0.719129        2.000000        0.00000000        0.00000000        0.00000000
      99         -0.696511        2.000000        0.00000000        0.00000000        0.00000000
     100         -0.460315        2.000000        0.00000000        0.00000000        0.00000000
     101         -0.427906        2.000000        0.00000008        0.00000021        0.00000000
     102         -0.424376        2.000000        0.00000000        0.00000001        0.00000000
     103         -0.405781        2.000000        0.00000023        0.00000186        0.00000001
     104         -0.401299        2.000000        0.00463201        0.01452183        0.00028978
     105         -0.398347        2.000000        0.00137970        0.00398476        0.00008932
     106         -0.398267        2.000000        0.00903414        0.02578587        0.00057149
     107         -0.397295        2.000000        0.00020883        0.00061649        0.00001324
     108         -0.395753        2.000000        0.00228333        0.00844408        0.00013274
     109         -0.395158        2.000000        0.00016846        0.00051033        0.00000986
     110         -0.394493        2.000000        0.00007856        0.00032357        0.00000546
     111         -0.394192        2.000000        0.00009303        0.00029900        0.00000580
     112         -0.393919        2.000000        0.00000696        0.00003626        0.00000025
     113         -0.393017        2.000000        0.00051043        0.00156328        0.00002996
     114         -0.391793        2.000000        0.00055038        0.00209180        0.00002666
     115         -0.389280        2.000000        0.00004365        0.00028771        0.00000438
     116         -0.388145        2.000000        0.00000176        0.00001167        0.00000017
     117         -0.387090        2.000000        0.00285187        0.00819675        0.00020050
     118         -0.386138        2.000000        0.00067876        0.00189279        0.00004424
     119         -0.385161        2.000000        0.00009077        0.00024897        0.00000594
     120         -0.384984        2.000000        0.00084163        0.00243501        0.00005357
     121         -0.383823        2.000000        0.01590143        0.04393549        0.00103674
     122         -0.383101        2.000000        0.00136603        0.00375174        0.00008775
     123         -0.383025        2.000000        0.00124009        0.00338243        0.00007991
     124         -0.381208        2.000000        0.00020954        0.00054268        0.00001134
     125         -0.380660        2.000000        0.00162686        0.00428405        0.00010032
     126         -0.380323        2.000000        0.00000918        0.00006791        0.00000060
     127         -0.379623        2.000000        0.00005912        0.00024152        0.00000677
     128         -0.379161        2.000000        0.00305785        0.00893644        0.00020420
     129         -0.378115        2.000000        0.00320955        0.00886586        0.00020301
     130         -0.377757        2.000000        0.09180115        0.25378148        0.00570622
     131         -0.377213        2.000000        0.01009851        0.02804854        0.00063624
     132         -0.376655        2.000000        0.00000733        0.00003412        0.00000039
     133         -0.376089        2.000000        0.00639472        0.01718987        0.00039541
     134         -0.375522        2.000000        0.00000666        0.00008459        0.00000111
     135         -0.373953        2.000000        0.00003421        0.00010137        0.00000211
     136         -0.373564        2.000000        0.00002021        0.00020943        0.00000126
     137         -0.372991        2.000000        0.00001396        0.00014451        0.00000072
     138         -0.372433        2.000000        0.00015182        0.00056353        0.00000857
     139         -0.372037        2.000000        0.00014523        0.00051307        0.00000948
     140         -0.371632        2.000000        0.00189579        0.00534461        0.00011793
     141         -0.371006        2.000000        0.00002200        0.00015347        0.00000058
     142         -0.369840        2.000000        0.00048220        0.00151751        0.00003230
     143         -0.369635        2.000000        0.00510376        0.01585355        0.00033952
     144         -0.369153        2.000000        0.00002776        0.00010310        0.00000181
     145         -0.369131        2.000000        0.00002197        0.00007947        0.00000130
     146         -0.368498        2.000000        0.00000397        0.00002702        0.00000038
     147         -0.367984        2.000000        0.00001710        0.00005569        0.00000078
     148         -0.367257        2.000000        0.00003014        0.00008156        0.00000166
     149         -0.366951        2.000000        0.00016551        0.00048985        0.00000787
     150         -0.366882        2.000000        0.00302542        0.00757677        0.00019219
     151         -0.366558        2.000000        0.00270718        0.00719683        0.00017276
     152         -0.366087        2.000000        0.00486457        0.01324319        0.00030868
     153         -0.365532        2.000000        0.00113813        0.00340664        0.00007919
     154         -0.365292        2.000000        0.00004600        0.00023712        0.00000362
     155         -0.364873        2.000000        0.00154860        0.00488155        0.00010513
     156         -0.364499        2.000000        0.00001277        0.00002724        0.00000108
     157         -0.364385        2.000000        0.00042116        0.00148232        0.00003169
     158         -0.363409        2.000000        0.00002280        0.00021863        0.00000244
     159         -0.362731        2.000000        0.00000296        0.00004513        0.00000034
     160         -0.361690        2.000000        0.00000407        0.00004305        0.00000065
     161         -0.361463        2.000000        0.00000347        0.00000913        0.00000033
     162         -0.360695        2.000000        0.00016039        0.00051092        0.00001059
     163         -0.359909        2.000000        0.00000376        0.00006391        0.00000040
     164         -0.358869        2.000000        0.00014173        0.00081226        0.00001350
     165         -0.358762        2.000000        0.00000836        0.00003597        0.00000077
     166         -0.358424        2.000000        0.00012315        0.00084525        0.00000902
     167         -0.357749        2.000000        0.00002804        0.00012472        0.00000260
     168         -0.357432        2.000000        0.00000339        0.00003484        0.00000025
     169         -0.356226        2.000000        0.00023235        0.00054314        0.00001862
     170         -0.355206        2.000000        0.00195794        0.00683793        0.00011451
     171         -0.354151        2.000000        0.00176336        0.01480312        0.00021322
     172         -0.353675        2.000000        0.00008407        0.00094367        0.00001081
     173         -0.353241        2.000000        0.00004700        0.00045816        0.00000357
     174         -0.352384        2.000000        0.00017564        0.00097443        0.00001688
     175         -0.349281        2.000000        0.00234855        0.01196209        0.00020067
     176         -0.348101        2.000000        0.00376215        0.01211783        0.00031400
     177         -0.347056        2.000000        0.00040713        0.00172067        0.00004200
     178         -0.346421        2.000000        0.03260582        0.11113418        0.00314027
     179         -0.346099        2.000000        0.00010306        0.00046855        0.00000675
     180         -0.344626        2.000000        0.00020948        0.00085303        0.00002129
     181         -0.344227        2.000000        0.00000302        0.00001401        0.00000024
     182         -0.344158        2.000000        0.00030529        0.00149754        0.00002992
     183         -0.343279        2.000000        0.00004532        0.00019805        0.00000713
     184         -0.342186        2.000000        0.01120120        0.04923983        0.00121197
     185         -0.341638        2.000000        0.00002540        0.00009116        0.00000293
     186         -0.341223        2.000000        0.00011775        0.00041650        0.00001400
     187         -0.341051        2.000000        0.00000266        0.00001114        0.00000010
     188         -0.340810        2.000000        0.00003358        0.00017581        0.00000350
     189         -0.340344        2.000000        0.00022808        0.00079747        0.00002274
     190         -0.340103        2.000000        0.00003624        0.00017342        0.00000329
     191         -0.339538        2.000000        0.00003489        0.00017769        0.00000309
     192         -0.338904        2.000000        0.00000138        0.00001939        0.00000016
     193         -0.338737        2.000000        0.00002587        0.00015603        0.00000619
     194         -0.337951        2.000000        0.00023740        0.00101493        0.00002737
     195         -0.337180        2.000000        0.00000024        0.00000262        0.00000006
     196         -0.336960        2.000000        0.00000818        0.00009562        0.00000217
     197         -0.336163        2.000000        0.00020325        0.00061784        0.00002078
     198         -0.335733        2.000000        0.00045205        0.00129480        0.00003110
     199         -0.334956        2.000000        0.00039361        0.00143079        0.00004104
     200         -0.333834        2.000000        0.00000636        0.00003328        0.00000054
     201         -0.331670        2.000000        0.00006045        0.00040578        0.00001215
     202         -0.330715        2.000000        0.00004535        0.00013338        0.00000340
     203         -0.327469        2.000000        0.00000203        0.00000682        0.00000025
     204         -0.326924        2.000000        0.00001390        0.00011465        0.00000315
     205         -0.319799        2.000000        0.00001990        0.00005030        0.00000076
     206         -0.319625        2.000000        0.00000013        0.00000177        0.00000004
     207         -0.318771        2.000000        0.00000070        0.00000298        0.00000004
     208         -0.318487        2.000000        0.00000298        0.00001926        0.00000019
     209         -0.318151        2.000000        0.00003557        0.00009646        0.00000167
     210         -0.317254        2.000000        0.00000036        0.00000083        0.00000001
     211         -0.316615        2.000000        0.00005115        0.00013863        0.00000191
     212         -0.316317        2.000000        0.00002269        0.00006268        0.00000091
     213         -0.315885        2.000000        0.00006818        0.00020582        0.00000201
     214         -0.315512        2.000000        0.00010300        0.00028926        0.00000327
     215         -0.314742        2.000000        0.00027984        0.00076473        0.00000927
     216         -0.314240        2.000000        0.00000035        0.00000196        0.00000001
     217         -0.313093        2.000000        0.00015983        0.00043241        0.00000510
     218         -0.312538        2.000000        0.00009809        0.00034095        0.00000238
     219         -0.312396        2.000000        0.00013052        0.00063371        0.00000317
     220         -0.312037        2.000000        0.00001438        0.00007363        0.00000045
     221         -0.310598        2.000000        0.00033070        0.00084334        0.00001063
     222         -0.310221        2.000000        0.00014990        0.00036329        0.00000624
     223         -0.309408        2.000000        0.00003920        0.00016831        0.00000089
     224         -0.309395        2.000000        0.00012974        0.00051407        0.00000303
     225         -0.309234        2.000000        0.00003336        0.00018766        0.00000117
     226         -0.308381        2.000000        0.00086843        0.00281464        0.00002038
     227         -0.308250        2.000000        0.00000840        0.00003700        0.00000015
     228         -0.308097        2.000000        0.00037488        0.00105990        0.00000963
     229         -0.307179        2.000000        0.00154143        0.00439866        0.00003850
     230         -0.305966        2.000000        0.00237134        0.01267523        0.00007308
     231         -0.305190        2.000000        0.00059883        0.00192539        0.00001555
     232         -0.305170        2.000000        0.00024792        0.00081280        0.00000636
     233         -0.303881        2.000000        0.00033272        0.00114959        0.00000761
     234         -0.303186        2.000000        0.00003956        0.00017679        0.00000097
     235         -0.302644        2.000000        0.00034134        0.00125063        0.00000766
     236         -0.302137        2.000000        0.00171165        0.00742504        0.00004094
     237         -0.301410        2.000000        0.00061813        0.00206073        0.00001436
     238         -0.301270        2.000000        0.00083158        0.00327147        0.00001923
     239         -0.300504        2.000000        0.00423058        0.01433961        0.00009929
     240         -0.300347        2.000000        0.00063903        0.00222391        0.00001352
     241         -0.300010        2.000000        0.00002908        0.00010423        0.00000075
     242         -0.298878        2.000000        0.00030774        0.00109154        0.00000771
     243         -0.298505        2.000000        0.00073193        0.00260857        0.00001650
     244         -0.297847        2.000000        0.00102931        0.00372775        0.00002378
     245         -0.297156        2.000000        0.00198715        0.00679628        0.00004642
     246         -0.297046        2.000000        0.00006056        0.00011257        0.00000171
     247         -0.296671        2.000000        0.00098989        0.00312016        0.00002330
     248         -0.296618        2.000000        0.00030542        0.00116543        0.00000723
     249         -0.295969        2.000000        0.00942798        0.03385884        0.00022756
     250         -0.295348        2.000000        0.00926982        0.03448840        0.00022662
     251         -0.295087        2.000000        0.00000959        0.00003089        0.00000028
     252         -0.294369        2.000000        0.00027434        0.00116523        0.00000772
     253         -0.294183        2.000000        0.00003822        0.00019305        0.00000104
     254         -0.293640        2.000000        0.00000680        0.00002173        0.00000031
     255         -0.293246        2.000000        0.00004569        0.00022802        0.00000135
     256         -0.292577        2.000000        0.00000798        0.00003722        0.00000024
     257         -0.291994        2.000000        0.00020786        0.00095909        0.00000562
     258         -0.291705        2.000000        0.00001031        0.00006001        0.00000029
     259         -0.290928        2.000000        0.00010088        0.00047271        0.00000346
     260         -0.290306        2.000000        0.00033087        0.00102366        0.00000887
     261         -0.289901        2.000000        0.00236160        0.01103109        0.00005420
     262         -0.289451        2.000000        0.00099346        0.00355517        0.00002491
     263         -0.289043        2.000000        0.00082865        0.00332422        0.00002021
     264         -0.288015        2.000000        0.00044739        0.00133266        0.00001327
     265         -0.287861        2.000000        0.00008007        0.00023820        0.00000276
     266         -0.286936        2.000000        0.00001926        0.00006171        0.00000048
     267         -0.286667        2.000000        0.00002255        0.00005147        0.00000085
     268         -0.286302        2.000000        0.00026789        0.00105031        0.00000794
     269         -0.285607        2.000000        0.00000158        0.00000814        0.00000010
     270         -0.285328        2.000000        0.00001272        0.00008431        0.00000035
     271         -0.285085        2.000000        0.00002345        0.00015055        0.00000069
     272         -0.284841        2.000000        0.00005641        0.00028876        0.00000136
     273         -0.284131        2.000000        0.00001724        0.00013233        0.00000055
     274         -0.283572        2.000000        0.00020485        0.00131062        0.00000524
     275         -0.283249        2.000000        0.00011113        0.00085919        0.00000271
     276         -0.283050        2.000000        0.00014979        0.00114425        0.00000358
     277         -0.282957        2.000000        0.00000362        0.00002871        0.00000008
     278         -0.282638        2.000000        0.00007727        0.00054496        0.00000192
     279         -0.282393        2.000000        0.00266928        0.01737436        0.00006652
     280         -0.282190        2.000000        0.00007030        0.00057892        0.00000167
     281         -0.281812        2.000000        0.00000654        0.00002721        0.00000030
     282         -0.281718        2.000000        0.00010533        0.00075504        0.00000263
     283         -0.281529        2.000000        0.00009259        0.00049988        0.00000352
     284         -0.281304        2.000000        0.00019208        0.00099394        0.00000751
     285         -0.281056        2.000000        0.00012758        0.00067909        0.00000638
     286         -0.280948        2.000000        0.00001981        0.00008277        0.00000150
     287         -0.280843        2.000000        0.00004265        0.00047283        0.00000189
     288         -0.280780        2.000000        0.00000992        0.00005155        0.00000030
     289         -0.280282        2.000000        0.00003691        0.00015492        0.00000261
     290         -0.279956        2.000000        0.00000328        0.00002903        0.00000029
     291         -0.279807        2.000000        0.00002784        0.00015038        0.00000294
     292         -0.279686        2.000000        0.00008967        0.00102956        0.00001808
     293         -0.279589        2.000000        0.00001275        0.00013593        0.00000139
     294         -0.279495        2.000000        0.00001974        0.00056508        0.00000566
     295         -0.279217        2.000000        0.00020142        0.00075232        0.00000484
     296         -0.279093        2.000000        0.00144068        0.00454068        0.00003497
     297         -0.278951        2.000000        0.00015699        0.00064525        0.00000388
     298         -0.278592        2.000000        0.00020909        0.00078612        0.00000582
     299         -0.278433        2.000000        0.00004113        0.00012421        0.00000150
     300         -0.278210        2.000000        0.00001761        0.00020255        0.00000071
     301         -0.278135        2.000000        0.00004860        0.00022686        0.00000141
     302         -0.278031        2.000000        0.00012613        0.00057481        0.00000349
     303         -0.277650        2.000000        0.00004640        0.00056905        0.00000255
     304         -0.277312        2.000000        0.00011709        0.00091221        0.00000285
     305         -0.276990        2.000000        0.00030164        0.00325899        0.00000861
     306         -0.276609        2.000000        0.00008830        0.00062425        0.00000179
     307         -0.276405        2.000000        0.00036904        0.00311029        0.00000728