# Projected DOS for list 87 of 3 atoms, at iteration step i = 0, E(Fermi) =    -0.060510 a.u.
#     MO Eigenvalue [a.u.]      Occupation                 s                 p                 d
       1         -0.895259        2.000000        0.00000000        0.00000000        0.00000000
       2         -0.868125        2.000000        0.00000180        0.00000313        0.00000000
       3         -0.864615        2.000000        0.00000626        0.00001107        0.00000002
       4         -0.857993        2.000000        0.00000003        0.00000001        0.00000000
       5         -0.853826        2.000000        0.00005079        0.00003304        0.00000015
       6         -0.850378        2.000000        0.00029421        0.00015983        0.00000089
       7         -0.848222        2.000000        0.00060468        0.00049057        0.00000297
       8         -0.847335        2.000000        0.00000108        0.00001331        0.00000013
       9         -0.842977        2.000000        0.00008811        0.00002766        0.00000052
      10         -0.841504        2.000000        0.00390175        0.00117740        0.00002062
      11         -0.840654        2.000000        0.00320892        0.00099532        0.00001617
      12         -0.839688        2.000000        0.00111725        0.00019020        0.00000505
      13         -0.839172        2.000000        0.00016479        0.00003908        0.00000057
      14         -0.838522        2.000000        0.00024698        0.00004780        0.00000097
      15         -0.837015        2.000000        0.00056994        0.00029689        0.00000378
      16         -0.832753        2.000000        0.00466056        0.00522030        0.00003228
      17         -0.832000        2.000000        0.00004829        0.00008615        0.00000051
      18         -0.831644        2.000000        0.00005279        0.00028571        0.00000125
      19         -0.830027        2.000000        0.00176478        0.00048444        0.00000845
      20         -0.829447        2.000000        0.01109620        0.00199512        0.00004752
      21         -0.828640        2.000000        0.01093352        0.00226321        0.00004644
      22         -0.828147        2.000000        0.00002737        0.00010562        0.00000147
      23         -0.827394        2.000000        0.00092000        0.00017402        0.00000358
      24         -0.826637        2.000000        0.00066780        0.00009417        0.00000334
      25         -0.825864        2.000000        0.00135190        0.00015572        0.00000317
      26         -0.825007        2.000000        0.00063233        0.00010125        0.00000343
      27         -0.824149        2.000000        0.00464320        0.00077821        0.00000998
      28         -0.823003        2.000000        0.02026187        0.00309274        0.00007310
      29         -0.821982        2.000000        0.00008626        0.00009769        0.00000127
      30         -0.820560        2.000000        0.00144989        0.00033172        0.00000869
      31         -0.820223        2.000000        0.00489124        0.00075920        0.00001318
      32         -0.820029        2.000000        0.00070302        0.00020030        0.00000179
      33         -0.819390        2.000000        0.00976984        0.00143699        0.00002735
      34         -0.818664        2.000000        0.00182004        0.00035493        0.00000408
      35         -0.817548        2.000000        0.00342161        0.00160244        0.00001488
      36         -0.816472        2.000000        0.00096738        0.00013684        0.00000289
      37         -0.815444        2.000000        0.00047303        0.00011428        0.00000093
      38         -0.814805        2.000000        0.01128500        0.00233163        0.00002091
      39         -0.814124        2.000000        0.00137791        0.00048589        0.00000306
      40         -0.813968        2.000000        0.00007057        0.00002123        0.00000075
      41         -0.813053        2.000000        0.00296353        0.00095177        0.00000546
      42         -0.812601        2.000000        0.05241174        0.01690136        0.00009730
      43         -0.811948        2.000000        0.00313298        0.00077941        0.00000541
      44         -0.811687        2.000000        0.00052902        0.00014223        0.00000090
      45         -0.810574        2.000000        0.04062805        0.01217185        0.00006692
      46         -0.809310        2.000000        0.00691981        0.00160671        0.00001200
      47         -0.808268        2.000000        0.07184208        0.02008456        0.00011239
      48         -0.807324        2.000000        0.15671769        0.04189268        0.00024520
      49         -0.806602        2.000000        0.00004443        0.00005877        0.00000030
      50         -0.806376        2.000000        0.00174210        0.00084033        0.00000324
      51         -0.806147        2.000000        0.01588929        0.00352198        0.00003206
      52         -0.804835        2.000000        0.00042452        0.00014080        0.00000062
      53         -0.804321        2.000000        0.00011717        0.00001639        0.00000097
      54         -0.803943        2.000000        0.00017775        0.00015168        0.00000087
      55         -0.803401        2.000000        0.00630344        0.00157643        0.00001078
      56         -0.802648        2.000000        0.00102120        0.00021832        0.00000305
      57         -0.801912        2.000000        0.00331540        0.00077875        0.00000766
      58         -0.801342        2.000000        0.00026547        0.00009298        0.00000046
      59         -0.800594        2.000000        0.00010992        0.00005467        0.00000298
      60         -0.799945        2.000000        0.00034445        0.00037815        0.00000272
      61         -0.799254        2.000000        0.00609700        0.00146408        0.00007140
      62         -0.798331        2.000000        0.00157892        0.00058663        0.00000218
      63         -0.797356        2.000000        0.10353670        0.02803175        0.00026330
      64         -0.795713        2.000000        0.00831837        0.00200203        0.00002937
      65         -0.795144        2.000000        0.00121330        0.00024878        0.00000995
      66         -0.794508        2.000000        0.09320328        0.02377468        0.00034208
      67         -0.793501        2.000000        0.00450313        0.00102624        0.00002451
      68         -0.792888        2.000000        0.00144455        0.00045859        0.00000349
      69         -0.792771        2.000000        0.04780335        0.01350140        0.00015915
      70         -0.792166        2.000000        0.00431542        0.00118590        0.00001634
      71         -0.791795        2.000000        0.00443121        0.00122042        0.00001803
      72         -0.790466        2.000000        0.00041115        0.00016530        0.00000073
      73         -0.789691        2.000000        0.00692799        0.00180183        0.00003571
      74         -0.789018        2.000000        0.00006025        0.00003520        0.00000043
      75         -0.788284        2.000000        0.00106827        0.00028879        0.00000584
      76         -0.787044        2.000000        0.00054548        0.00015358        0.00000284
      77         -0.785765        2.000000        0.00057120        0.00017445        0.00000374
      78         -0.783215        2.000000        0.00105154        0.00027736        0.00001062
      79         -0.782853        2.000000        0.00012573        0.00004525        0.00000195
      80         -0.782388        2.000000        0.00762486        0.00232028        0.00006547
      81         -0.781821        2.000000        0.00003032        0.00000973        0.00000027
      82         -0.780108        2.000000        0.00000948        0.00000305        0.00000009
      83         -0.778906        2.000000        0.00007718        0.00003527        0.00000143
      84         -0.778076        2.000000        0.00777655        0.00331339        0.00014039
      85         -0.775317        2.000000        0.00049060        0.00013174        0.00000538
      86         -0.773086        2.000000        0.00643417        0.00183999        0.00007535
      87         -0.772920        2.000000        0.00032595        0.00010791        0.00000437
      88         -0.771409        2.000000        0.00001330        0.00002067        0.00000083
      89         -0.769725        2.000000        0.00000439        0.00000114        0.00000005
      90         -0.769226        2.000000        0.00000134        0.00000101        0.00000003
      91         -0.767566        2.000000        0.00000009        0.00000116        0.00000003
      92         -0.766737        2.000000        0.00000114        0.00000043        0.00000002
      93         -0.755845        2.000000        0.00000082        0.00000916        0.00000017
      94         -0.752538        2.000000        0.00000006        0.00000078        0.00000002
      95         -0.747161        2.000000        0.00000016        0.00000093        0.00000005
      96         -0.736999        2.000000        0.00000000        0.00000001        0.00000000
      97         -0.726419        2.000000        0.00000005        0.00000021        0.00000000
      98         -0.719129        2.000000        0.00000423        0.00000346        0.00000011
      99         -0.696511        2.000000        0.00000647        0.00000360        0.00000015
     100         -0.460315        2.000000        0.00000000        0.00000000        0.00000000
     101         -0.427906        2.000000        0.00000000        0.00000014        0.00000000
     102         -0.424376        2.000000        0.00000000        0.00000001        0.00000000
     103         -0.405781        2.000000        0.00000001        0.00000002        0.00000000
     104         -0.401299        2.000000        0.00000259        0.00001014        0.00000008
     105         -0.398347        2.000000        0.00021230        0.00052446        0.00001312
     106         -0.398267        2.000000        0.00283368        0.00701752        0.00017420
     107         -0.397295        2.000000        0.00004720        0.00011577        0.00000283
     108         -0.395753        2.000000        0.00131626        0.00325517        0.00007961
     109         -0.395158        2.000000        0.00002426        0.00007354        0.00000134
     110         -0.394493        2.000000        0.00000041        0.00000414        0.00000003
     111         -0.394192        2.000000        0.00003200        0.00009696        0.00000182
     112         -0.393919        2.000000        0.00010787        0.00027911        0.00000622
     113         -0.393017        2.000000        0.00233806        0.00579466        0.00013973
     114         -0.391793        2.000000        0.00019427        0.00048260        0.00001106
     115         -0.389280        2.000000        0.00000212        0.00000580        0.00000012
     116         -0.388145        2.000000        0.00013554        0.00033541        0.00000740
     117         -0.387090        2.000000        0.00001250        0.00004037        0.00000068
     118         -0.386138        2.000000        0.00134153        0.00333413        0.00007299
     119         -0.385161        2.000000        0.00229406        0.00572382        0.00012210
     120         -0.384984        2.000000        0.00002808        0.00007722        0.00000177
     121         -0.383823        2.000000        0.00035048        0.00097769        0.00001874
     122         -0.383101        2.000000        0.16745233        0.41965510        0.00856649
     123         -0.383025        2.000000        0.00424703        0.01066102        0.00021511
     124         -0.381208        2.000000        0.01575040        0.04061817        0.00077629
     125         -0.380660        2.000000        0.02253033        0.05666961        0.00111992
     126         -0.380323        2.000000        0.01284010        0.03199686        0.00065211
     127         -0.379623        2.000000        0.00063139        0.00155016        0.00003197
     128         -0.379161        2.000000        0.00071185        0.00185172        0.00003363
     129         -0.378115        2.000000        0.00129494        0.00350038        0.00007362
     130         -0.377757        2.000000        0.00297344        0.00767480        0.00014431
     131         -0.377213        2.000000        0.00007301        0.00027253        0.00000364
     132         -0.376655        2.000000        0.00014212        0.00051763        0.00000827
     133         -0.376089        2.000000        0.00141002        0.00407356        0.00006976
     134         -0.375522        2.000000        0.00075670        0.00279945        0.00003947
     135         -0.373953        2.000000        0.00001283        0.00012016        0.00000123
     136         -0.373564        2.000000        0.00179105        0.00467174        0.00008251
     137         -0.372991        2.000000        0.00041896        0.00107300        0.00002098
     138         -0.372433        2.000000        0.00221662        0.00583497        0.00009908
     139         -0.372037        2.000000        0.00095344        0.00287163        0.00004193
     140         -0.371632        2.000000        0.00085345        0.00253485        0.00003841
     141         -0.371006        2.000000        0.00389212        0.01030712        0.00020517
     142         -0.369840        2.000000        0.00000171        0.00000512        0.00000010
     143         -0.369635        2.000000        0.00067918        0.00184091        0.00003248
     144         -0.369153        2.000000        0.00000629        0.00002574        0.00000028
     145         -0.369131        2.000000        0.00002575        0.00009237        0.00000109
     146         -0.368498        2.000000        0.00003875        0.00022571        0.00000250
     147         -0.367984        2.000000        0.00006531        0.00081344        0.00001160
     148         -0.367257        2.000000        0.00001285        0.00003135        0.00000062
     149         -0.366951        2.000000        0.00000915        0.00002494        0.00000051
     150         -0.366882        2.000000        0.00002560        0.00007653        0.00000095
     151         -0.366558        2.000000        0.00000222        0.00001961        0.00000023
     152         -0.366087        2.000000        0.00000788        0.00002297        0.00000064
     153         -0.365532        2.000000        0.00002396        0.00007528        0.00000213
     154         -0.365292        2.000000        0.00000409        0.00002293        0.00000023
     155         -0.364873        2.000000        0.00002258        0.00044074        0.00000114
     156         -0.364499        2.000000        0.00000927        0.00009062        0.00000054
     157         -0.364385        2.000000        0.00000304        0.00001279        0.00000011
     158         -0.363409        2.000000        0.00003512        0.00017616        0.00000409
     159         -0.362731        2.000000        0.00001007        0.00008248        0.00000039
     160         -0.361690        2.000000        0.00481531        0.02826630        0.00061021
     161         -0.361463        2.000000        0.00002799        0.00039506        0.00000361
     162         -0.360695        2.000000        0.00000419        0.00001214        0.00000015
     163         -0.359909        2.000000        0.00014350        0.00087758        0.00001864
     164         -0.358869        2.000000        0.00001428        0.00004426        0.00000099
     165         -0.358762        2.000000        0.00000430        0.00001064        0.00000023
     166         -0.358424        2.000000        0.00010447        0.00065590        0.00001304
     167         -0.357749        2.000000        0.00003302        0.00011574        0.00000184
     168         -0.357432        2.000000        0.00007497        0.00044483        0.00001151
     169         -0.356226        2.000000        0.00000195        0.00001230        0.00000023
     170         -0.355206        2.000000        0.00012361        0.00045015        0.00000573
     171         -0.354151        2.000000        0.00002016        0.00011219        0.00000095
     172         -0.353675        2.000000        0.00001954        0.00006131        0.00000131
     173         -0.353241        2.000000        0.00000208        0.00001776        0.00000009
     174         -0.352384        2.000000        0.00001113        0.00047995        0.00000107
     175         -0.349281        2.000000        0.00000359        0.00001220        0.00000007
     176         -0.348101        2.000000        0.00001316        0.00007073        0.00000046
     177         -0.347056        2.000000        0.00000305        0.00002306        0.00000043
     178         -0.346421        2.000000        0.00005214        0.00025455        0.00000166
     179         -0.346099        2.000000        0.00000346        0.00002244        0.00000056
     180         -0.344626        2.000000        0.00000203        0.00002982        0.00000059
     181         -0.344227        2.000000        0.00001340        0.00010829        0.00000133
     182         -0.344158        2.000000        0.00000737        0.00009139        0.00000155
     183         -0.343279        2.000000        0.00000016        0.00000065        0.00000001
     184         -0.342186        2.000000        0.00001760        0.00016517        0.00000239
     185         -0.341638        2.000000        0.00000089        0.00000502        0.00000010
     186         -0.341223        2.000000        0.00000342        0.00001332        0.00000024
     187         -0.341051        2.000000        0.00011139        0.00079942        0.00000971
     188         -0.340810        2.000000        0.00000621        0.00004571        0.00000083
     189         -0.340344        2.000000        0.00000057        0.00000575        0.00000008
     190         -0.340103        2.000000        0.00055920        0.00469778        0.00007708
     191         -0.339538        2.000000        0.00004115        0.00031279        0.00000570
     192         -0.338904        2.000000        0.00011234        0.00093382        0.00001592
     193         -0.338737        2.000000        0.00390285        0.03084746        0.00053470
     194         -0.337951        2.000000        0.00089949        0.00712695        0.00012175
     195         -0.337180        2.000000        0.00000260        0.00003118        0.00000063
     196         -0.336960        2.000000        0.00084608        0.00757997        0.00011815
     197         -0.336163        2.000000        0.00029333        0.00645712        0.00008040
     198         -0.335733        2.000000        0.00230062        0.01284452        0.00033375
     199         -0.334956        2.000000        0.00000650        0.00003994        0.00000068
     200         -0.333834        2.000000        0.00000240        0.00003556        0.00000038
     201         -0.331670        2.000000        0.00025767        0.00220723        0.00003523
     202         -0.330715        2.000000        0.00001252        0.00006933        0.00000102
     203         -0.327469        2.000000        0.00000307        0.00003569        0.00000028
     204         -0.326924        2.000000        0.00000069        0.00000140        0.00000004
     205         -0.319799        2.000000        0.00000038        0.00000122        0.00000001
     206         -0.319625        2.000000        0.00000172        0.00001609        0.00000032
     207         -0.318771        2.000000        0.00000014        0.00000200        0.00000003
     208         -0.318487        2.000000        0.00000003        0.00000016        0.00000000
     209         -0.318151        2.000000        0.00000033        0.00000145        0.00000001
     210         -0.317254        2.000000        0.00000001        0.00000002        0.00000000
     211         -0.316615        2.000000        0.00000086        0.00000301        0.00000001
     212         -0.316317        2.000000        0.00000351        0.00002254        0.00000016
     213         -0.315885        2.000000        0.00000123        0.00000402        0.00000002
     214         -0.315512        2.000000        0.00000181        0.00000552        0.00000002
     215         -0.314742        2.000000        0.00000514        0.00001625        0.00000006
     216         -0.314240        2.000000        0.00000003        0.00000006        0.00000000
     217         -0.313093        2.000000        0.00000360        0.00001242        0.00000007
     218         -0.312538        2.000000        0.00000241        0.00000690        0.00000005
     219         -0.312396        2.000000        0.00000256        0.00000983        0.00000006
     220         -0.312037        2.000000        0.00000009        0.00000018        0.00000001
     221         -0.310598        2.000000        0.00000904        0.00003138        0.00000017
     222         -0.310221        2.000000        0.00000372        0.00001119        0.00000006
     223         -0.309408        2.000000        0.00000118        0.00000405        0.00000003
     224         -0.309395        2.000000        0.00000435        0.00001616        0.00000010
     225         -0.309234        2.000000        0.00000023        0.00000080        0.00000001
     226         -0.308381        2.000000        0.00003481        0.00011797        0.00000069
     227         -0.308250        2.000000        0.00000252        0.00001958        0.00000043
     228         -0.308097        2.000000        0.00001328        0.00004347        0.00000023
     229         -0.307179        2.000000        0.00007319        0.00024464        0.00000137
     230         -0.305966        2.000000        0.00007351        0.00023192        0.00000178
     231         -0.305190        2.000000        0.00024030        0.00072868        0.00000532
     232         -0.305170        2.000000        0.00008396        0.00024237        0.00000171
     233         -0.303881        2.000000        0.00008513        0.00025007        0.00000170
     234         -0.303186        2.000000        0.00000129        0.00000485        0.00000003
     235         -0.302644        2.000000        0.00002295        0.00008316        0.00000062
     236         -0.302137        2.000000        0.00009432        0.00033941        0.00000227
     237         -0.301410        2.000000        0.00005372        0.00018857        0.00000116
     238         -0.301270        2.000000        0.00008182        0.00029404        0.00000215
     239         -0.300504        2.000000        0.00080263        0.00264990        0.00001824
     240         -0.300347        2.000000        0.00014203        0.00053225        0.00000487
     241         -0.300010        2.000000        0.00000362        0.00001119        0.00000013
     242         -0.298878        2.000000        0.00000421        0.00002205        0.00000010
     243         -0.298505        2.000000        0.00005249        0.00022996        0.00000180
     244         -0.297847        2.000000        0.00006399        0.00026269        0.00000177
     245         -0.297156        2.000000        0.00016053        0.00064644        0.00000430
     246         -0.297046        2.000000        0.00001187        0.00005336        0.00000039
     247         -0.296671        2.000000        0.00010101        0.00040109        0.00000271
     248         -0.296618        2.000000        0.00002641        0.00009824        0.00000071
     249         -0.295969        2.000000        0.00079844        0.00301924        0.00001994
     250         -0.295348        2.000000        0.00082082        0.00297332        0.00002041
     251         -0.295087        2.000000        0.00000061        0.00000185        0.00000001
     252         -0.294369        2.000000        0.00002635        0.00008997        0.00000069
     253         -0.294183        2.000000        0.00000158        0.00000500        0.00000009
     254         -0.293640        2.000000        0.00000233        0.00001402        0.00000009
     255         -0.293246        2.000000        0.00000518        0.00001555        0.00000015
     256         -0.292577        2.000000        0.00000319        0.00001241        0.00000011
     257         -0.291994        2.000000        0.00002806        0.00009951        0.00000073
     258         -0.291705        2.000000        0.00000002        0.00000014        0.00000000
     259         -0.290928        2.000000        0.00002591        0.00007983        0.00000074
     260         -0.290306        2.000000        0.00000216        0.00002704        0.00000017
     261         -0.289901        2.000000        0.00004339        0.00025224        0.00000141
     262         -0.289451        2.000000        0.00006868        0.00028136        0.00000175
     263         -0.289043        2.000000        0.00010670        0.00043761        0.00000285
     264         -0.288015        2.000000        0.00020003        0.00082056        0.00000546
     265         -0.287861        2.000000        0.00008787        0.00036901        0.00000243
     266         -0.286936        2.000000        0.00000970        0.00003619        0.00000026
     267         -0.286667        2.000000        0.00001768        0.00007265        0.00000047
     268         -0.286302        2.000000        0.00018720        0.00072862        0.00000512
     269         -0.285607        2.000000        0.00000316        0.00002109        0.00000019
     270         -0.285328        2.000000        0.00004518        0.00019869        0.00000139
     271         -0.285085        2.000000        0.00001276        0.00004458        0.00000036
     272         -0.284841        2.000000        0.00000280        0.00002002        0.00000025
     273         -0.284131        2.000000        0.00006466        0.00027861        0.00000189
     274         -0.283572        2.000000        0.00000176        0.00001294        0.00000015
     275         -0.283249        2.000000        0.00004758        0.00023318        0.00000168
     276         -0.283050        2.000000        0.00012527        0.00055128        0.00000383
     277         -0.282957        2.000000        0.00000206        0.00000886        0.00000005
     278         -0.282638        2.000000        0.00006388        0.00030438        0.00000210
     279         -0.282393        2.000000        0.00130761        0.00623163        0.00004280
     280         -0.282190        2.000000        0.00001924        0.00007214        0.00000054
     281         -0.281812        2.000000        0.00000006        0.00000127        0.00000000
     282         -0.281718        2.000000        0.00020896        0.00086960        0.00000527
     283         -0.281529        2.000000        0.00008442        0.00044382        0.00000241
     284         -0.281304        2.000000        0.00009224        0.00053269        0.00000268
     285         -0.281056        2.000000        0.00011351        0.00048916        0.00000039
     286         -0.280948        2.000000        0.00001813        0.00009848        0.00000010
     287         -0.280843        2.000000        0.00009066        0.00090950        0.00001333
     288         -0.280780        2.000000        0.00000598        0.00001468        0.00000033
     289         -0.280282        2.000000        0.00001611        0.00003924        0.00000045
     290         -0.279956        2.000000        0.00000964        0.00002866        0.00000018
     291         -0.279807        2.000000        0.00001801        0.00011893        0.00000104
     292         -0.279686        2.000000        0.00019576        0.00117929        0.00000949
     293         -0.279589        2.000000        0.00004230        0.00020027        0.00000139
     294         -0.279495        2.000000        0.00005293        0.00014596        0.00000112
     295         -0.279217        2.000000        0.00012756        0.00066007        0.00000540
     296         -0.279093        2.000000        0.00023783        0.00181142        0.00001894
     297         -0.278951        2.000000        0.00007423        0.00046086        0.00000408
     298         -0.278592        2.000000        0.00031482        0.00155197        0.00001180
     299         -0.278433        2.000000        0.00005182        0.00017541        0.00000118
     300         -0.278210        2.000000        0.00005129        0.00017641        0.00000135
     301         -0.278135        2.000000        0.00004887        0.00022216        0.00000166
     302         -0.278031        2.000000        0.00003920        0.00018196        0.00000144
     303         -0.277650        2.000000        0.00008886        0.00026633        0.00000232
     304         -0.277312        2.000000        0.00026535        0.00090701        0.00000614
     305         -0.276990        2.000000        0.00039390        0.00125807        0.00000803
     306         -0.276609        2.000000        0.00001155        0.00004286        0.00000021
     307         -0.276405        2.000000        0.00020398        0.00062642        0.00000259