# Projected DOS for atomic kind O at iteration step i = 0, E(Fermi) =    -0.060510 a.u.
#     MO Eigenvalue [a.u.]      Occupation                 s                 p                 d
       1         -0.895259        2.000000        0.58331155        0.02648982        0.00192469
       2         -0.868125        2.000000        0.57353220        0.02623084        0.00219064
       3         -0.864615        2.000000        0.57961616        0.02537106        0.00208217
       4         -0.857993        2.000000        0.56055826        0.02418166        0.00143500
       5         -0.853826        2.000000        0.56806499        0.02357014        0.00155383
       6         -0.850378        2.000000        0.56080359        0.03393815        0.00181794
       7         -0.848222        2.000000        0.58090315        0.02829459        0.00198171
       8         -0.847335        2.000000        0.57654251        0.02072597        0.00175044
       9         -0.842977        2.000000        0.59395265        0.02666854        0.00158526
      10         -0.841504        2.000000        0.58915736        0.02045243        0.00159878
      11         -0.840654        2.000000        0.58465711        0.02126210        0.00158435
      12         -0.839688        2.000000        0.57421163        0.02334562        0.00162077
      13         -0.839172        2.000000        0.56778234        0.02607564        0.00169159
      14         -0.838522        2.000000        0.56004845        0.02752158        0.00154866
      15         -0.837015        2.000000        0.56311059        0.02918178        0.00166367
      16         -0.832753        2.000000        0.56552745        0.03000592        0.00165727
      17         -0.832000        2.000000        0.56630964        0.02755745        0.00146665
      18         -0.831644        2.000000        0.56189170        0.02879317        0.00148698
      19         -0.830027        2.000000        0.59933761        0.02326514        0.00170421
      20         -0.829447        2.000000        0.57387794        0.02499694        0.00173414
      21         -0.828640        2.000000        0.57077712        0.02634847        0.00177022
      22         -0.828147        2.000000        0.58106816        0.02649465        0.00160723
      23         -0.827394        2.000000        0.58150927        0.02554480        0.00147469
      24         -0.826637        2.000000        0.57153662        0.02708673        0.00176389
      25         -0.825864        2.000000        0.57970033        0.02603143        0.00170454
      26         -0.825007        2.000000        0.57179895        0.02903197        0.00165018
      27         -0.824149        2.000000        0.58479573        0.02260374        0.00200388
      28         -0.823003        2.000000        0.56882162        0.02951676        0.00178210
      29         -0.821982        2.000000        0.58244556        0.02269715        0.00220793
      30         -0.820560        2.000000        0.57635006        0.02696552        0.00183124
      31         -0.820223        2.000000        0.57442288        0.02630361        0.00180370
      32         -0.820029        2.000000        0.57671340        0.02684062        0.00188055
      33         -0.819390        2.000000        0.57986727        0.02595093        0.00180461
      34         -0.818664        2.000000        0.57236532        0.02582561        0.00182287
      35         -0.817548        2.000000        0.57719805        0.02648784        0.00194377
      36         -0.816472        2.000000        0.56996402        0.02842800        0.00204507
      37         -0.815444        2.000000        0.56866515        0.02902390        0.00202457
      38         -0.814805        2.000000        0.57496004        0.02936490        0.00212670
      39         -0.814124        2.000000        0.56959617        0.02891393        0.00174043
      40         -0.813968        2.000000        0.56562268        0.02998002        0.00172060
      41         -0.813053        2.000000        0.56999332        0.03143325        0.00180981
      42         -0.812601        2.000000        0.58058005        0.02767610        0.00191675
      43         -0.811948        2.000000        0.58005024        0.02360993        0.00201203
      44         -0.811687        2.000000        0.57506278        0.02431118        0.00193652
      45         -0.810574        2.000000        0.57818413        0.02855494        0.00206196
      46         -0.809310        2.000000        0.55752013        0.03115300        0.00193003
      47         -0.808268        2.000000        0.57851675        0.02595147        0.00217706
      48         -0.807324        2.000000        0.57032250        0.03108257        0.00199959
      49         -0.806602        2.000000        0.56807625        0.02911811        0.00216927
      50         -0.806376        2.000000        0.56928582        0.02806842        0.00214815
      51         -0.806147        2.000000        0.56682423        0.02881397        0.00209106
      52         -0.804835        2.000000        0.56578724        0.03012976        0.00191586
      53         -0.804321        2.000000        0.56838515        0.02896629        0.00236495
      54         -0.803943        2.000000        0.56134696        0.02954185        0.00198730
      55         -0.803401        2.000000        0.55988637        0.03159373        0.00215781
      56         -0.802648        2.000000        0.56126979        0.03018194        0.00213142
      57         -0.801912        2.000000        0.56233588        0.03063122        0.00210367
      58         -0.801342        2.000000        0.56405741        0.03141166        0.00211090
      59         -0.800594        2.000000        0.56476392        0.03165809        0.00214098
      60         -0.799945        2.000000        0.57493326        0.03044673        0.00217001
      61         -0.799254        2.000000        0.56165962        0.03217750        0.00231389
      62         -0.798331        2.000000        0.58419792        0.03160293        0.00160217
      63         -0.797356        2.000000        0.56622320        0.02877017        0.00236248
      64         -0.795713        2.000000        0.57020546        0.03087752        0.00213084
      65         -0.795144        2.000000        0.56923570        0.03254438        0.00223569
      66         -0.794508        2.000000        0.56723951        0.03067608        0.00231814
      67         -0.793501        2.000000        0.56832772        0.03076028        0.00207100
      68         -0.792888        2.000000        0.55274094        0.03130369        0.00225478
      69         -0.792771        2.000000        0.55946162        0.03075488        0.00248255
      70         -0.792166        2.000000        0.56332702        0.03179106        0.00216427
      71         -0.791795        2.000000        0.56612109        0.02702806        0.00247569
      72         -0.790466        2.000000        0.55552622        0.03319853        0.00240057
      73         -0.789691        2.000000        0.56965283        0.03454456        0.00217003
      74         -0.789018        2.000000        0.56367453        0.03142090        0.00201738
      75         -0.788284        2.000000        0.55980350        0.03933397        0.00219071
      76         -0.787044        2.000000        0.55992519        0.03172712        0.00237859
      77         -0.785765        2.000000        0.55834435        0.03440666        0.00220166
      78         -0.783215        2.000000        0.57230837        0.03022987        0.00196973
      79         -0.782853        2.000000        0.56621723        0.03441757        0.00204897
      80         -0.782388        2.000000        0.55812899        0.03725500        0.00224826
      81         -0.781821        2.000000        0.58150270        0.02920336        0.00192919
      82         -0.780108        2.000000        0.55530681        0.03341486        0.00227261
      83         -0.778906        2.000000        0.57538728        0.02887536        0.00215136
      84         -0.778076        2.000000        0.57104900        0.03515504        0.00205640
      85         -0.775317        2.000000        0.55996063        0.03084625        0.00214662
      86         -0.773086        2.000000        0.54923110        0.03637278        0.00241294
      87         -0.772920        2.000000        0.56563396        0.03293546        0.00213957
      88         -0.771409        2.000000        0.56020018        0.03453052        0.00252788
      89         -0.769725        2.000000        0.58607563        0.02796528        0.00228333
      90         -0.769226        2.000000        0.56363980        0.03407724        0.00228966
      91         -0.767566        2.000000        0.56587466        0.03329401        0.00216360
      92         -0.766737        2.000000        0.57024879        0.03266002        0.00226756
      93         -0.755845        2.000000        0.57711905        0.03070717        0.00211898
      94         -0.752538        2.000000        0.56193277        0.03542072        0.00251189
      95         -0.747161        2.000000        0.57687773        0.03142801        0.00225938
      96         -0.736999        2.000000        0.56399566        0.03306802        0.00230633
      97         -0.726419        2.000000        0.58258686        0.03579666        0.00231234
      98         -0.719129        2.000000        0.57749809        0.03410511        0.00240192
      99         -0.696511        2.000000        0.58326684        0.03706154        0.00228433
     100         -0.460315        2.000000        0.00041449        0.68779379        0.01569922
     101         -0.427906        2.000000        0.00351413        0.69339321        0.01438886
     102         -0.424376        2.000000        0.00287295        0.69028966        0.01558364
     103         -0.405781        2.000000        0.00157601        0.69341634        0.01463582
     104         -0.401299        2.000000        0.00205529        0.68030384        0.01340976
     105         -0.398347        2.000000        0.00030892        0.05973205        0.00117100
     106         -0.398267        2.000000        0.00307716        0.64200480        0.01267567
     107         -0.397295        2.000000        0.00281532        0.69441414        0.01425202
     108         -0.395753        2.000000        0.00330652        0.69055382        0.01392570
     109         -0.395158        2.000000        0.00319948        0.68809410        0.01228486
     110         -0.394493        2.000000        0.00238148        0.69186394        0.01371729
     111         -0.394192        2.000000        0.00377792        0.69173767        0.01300626
     112         -0.393919        2.000000        0.00227406        0.69041645        0.01291926
     113         -0.393017        2.000000        0.00329508        0.69435873        0.01460014
     114         -0.391793        2.000000        0.00424025        0.69294837        0.01389857
     115         -0.389280        2.000000        0.00160307        0.68205323        0.01543852
     116         -0.388145        2.000000        0.00192699        0.68971959        0.01579209
     117         -0.387090        2.000000        0.00292616        0.68705144        0.01505702
     118         -0.386138        2.000000        0.00512403        0.69055567        0.01446722
     119         -0.385161        2.000000        0.00347318        0.69373630        0.01441626
     120         -0.384984        2.000000        0.00198606        0.68734020        0.01477628
     121         -0.383823        2.000000        0.00332848        0.68542487        0.01523971
     122         -0.383101        2.000000        0.00232507        0.69282941        0.01457544
     123         -0.383025        2.000000        0.00201567        0.68383289        0.01508917
     124         -0.381208        2.000000        0.00172805        0.68622774        0.01584601
     125         -0.380660        2.000000        0.00212112        0.68763081        0.01553172
     126         -0.380323        2.000000        0.00291969        0.68374668        0.01511901
     127         -0.379623        2.000000        0.00334499        0.69084707        0.01525323
     128         -0.379161        2.000000        0.00191429        0.67033723        0.01420114
     129         -0.378115        2.000000        0.00232383        0.68480522        0.01445408
     130         -0.377757        2.000000        0.00269729        0.68624432        0.01562073
     131         -0.377213        2.000000        0.00307810        0.67729561        0.01605560
     132         -0.376655        2.000000        0.00252907        0.68822267        0.01614495
     133         -0.376089        2.000000        0.00227555        0.67833946        0.01522629
     134         -0.375522        2.000000        0.00237468        0.66236680        0.01474311
     135         -0.373953        2.000000        0.00200812        0.66525456        0.01513818
     136         -0.373564        2.000000        0.00191664        0.64043292        0.01466645
     137         -0.372991        2.000000        0.00279427        0.66703870        0.01451388
     138         -0.372433        2.000000        0.00241800        0.69300314        0.01615926
     139         -0.372037        2.000000        0.00128071        0.35644609        0.00815078
     140         -0.371632        2.000000        0.00163102        0.52341969        0.01206706
     141         -0.371006        2.000000        0.00202586        0.66975175        0.01496241
     142         -0.369840        2.000000        0.00364142        0.69020553        0.01495181
     143         -0.369635        2.000000        0.00157610        0.61408900        0.01424233
     144         -0.369153        2.000000        0.00013345        0.03594401        0.00081955
     145         -0.369131        2.000000        0.00275172        0.67827923        0.01498040
     146         -0.368498        2.000000        0.00059265        0.15683068        0.00360101
     147         -0.367984        2.000000        0.00280038        0.56498575        0.01283790
     148         -0.367257        2.000000        0.00028341        0.10201041        0.00238204
     149         -0.366951        2.000000        0.00045436        0.12037282        0.00282796
     150         -0.366882        2.000000        0.00280948        0.66954501        0.01579525
     151         -0.366558        2.000000        0.00093911        0.22475897        0.00543569
     152         -0.366087        2.000000        0.00159735        0.45302175        0.01078802
     153         -0.365532        2.000000        0.00137908        0.51858237        0.01209040
     154         -0.365292        2.000000        0.00210265        0.59349734        0.01348156
     155         -0.364873        2.000000        0.00235233        0.59589487        0.01383078
     156         -0.364499        2.000000        0.00079292        0.22298532        0.00507891
     157         -0.364385        2.000000        0.00290974        0.69210168        0.01622808
     158         -0.363409        2.000000        0.00260565        0.66569969        0.01544268
     159         -0.362731        2.000000        0.00425082        0.69719639        0.01415960
     160         -0.361690        2.000000        0.00270189        0.69671377        0.01583753
     161         -0.361463        2.000000        0.00406458        0.69374026        0.01534340
     162         -0.360695        2.000000        0.00341159        0.66449576        0.01456850
     163         -0.359909        2.000000        0.00198417        0.69442880        0.01599565
     164         -0.358869        2.000000        0.00270219        0.66835331        0.01544319
     165         -0.358762        2.000000        0.00194046        0.69776516        0.01532432
     166         -0.358424        2.000000        0.00236266        0.65979494        0.01530490
     167         -0.357749        2.000000        0.00303462        0.69907949        0.01704794
     168         -0.357432        2.000000        0.00147049        0.69514952        0.01673039
     169         -0.356226        2.000000        0.00213073        0.67266786        0.01594496
     170         -0.355206        2.000000        0.00386720        0.69104450        0.01636371
     171         -0.354151        2.000000        0.00276918        0.69362731        0.01613855
     172         -0.353675        2.000000        0.00417955        0.69719333        0.01585272
     173         -0.353241        2.000000        0.00302856        0.67814609        0.01592077
     174         -0.352384        2.000000        0.00330041        0.69838637        0.01679681
     175         -0.349281        2.000000        0.00391004        0.69203086        0.01538092
     176         -0.348101        2.000000        0.00409707        0.67065472        0.01558081
     177         -0.347056        2.000000        0.00602620        0.66917771        0.01521623
     178         -0.346421        2.000000        0.00399081        0.69063935        0.01569340
     179         -0.346099        2.000000        0.00553212        0.63996127        0.01450658
     180         -0.344626        2.000000        0.00126795        0.25431803        0.00604175
     181         -0.344227        2.000000        0.00300967        0.68951848        0.01541312
     182         -0.344158        2.000000        0.00167844        0.41299533        0.00976803
     183         -0.343279        2.000000        0.00064711        0.10288998        0.00239020
     184         -0.342186        2.000000        0.00376042        0.69981837        0.01648029
     185         -0.341638        2.000000        0.00021802        0.04807402        0.00105457
     186         -0.341223        2.000000        0.00320355        0.51565954        0.01224098
     187         -0.341051        2.000000        0.00272683        0.69430972        0.01591721
     188         -0.340810        2.000000        0.00107966        0.17867714        0.00421073
     189         -0.340344        2.000000        0.00037651        0.04865537        0.00106582
     190         -0.340103        2.000000        0.00563746        0.67903110        0.01559514
     191         -0.339538        2.000000        0.00052523        0.07485379        0.00166331
     192         -0.338904        2.000000        0.00023495        0.05345347        0.00123866
     193         -0.338737        2.000000        0.00277163        0.65418371        0.01605845
     194         -0.337951        2.000000        0.00346654        0.69303181        0.01670372
     195         -0.337180        2.000000        0.00303698        0.69342987        0.01630376
     196         -0.336960        2.000000        0.00402044        0.70510138        0.01713425
     197         -0.336163        2.000000        0.00715751        0.69969944        0.01676621
     198         -0.335733        2.000000        0.00677556        0.69898776        0.01700311
     199         -0.334956        2.000000        0.00351093        0.68795345        0.01687862
     200         -0.333834        2.000000        0.00297058        0.69468693        0.01685103
     201         -0.331670        2.000000        0.00579987        0.70095535        0.01701620
     202         -0.330715        2.000000        0.00609090        0.70088368        0.01696545
     203         -0.327469        2.000000        0.00609315        0.69443130        0.01709302
     204         -0.326924        2.000000        0.00251277        0.69428876        0.01801707
     205         -0.319799        2.000000        0.00859473        0.21065341        0.00182248
     206         -0.319625        2.000000        0.00404181        0.69802168        0.01555226
     207         -0.318771        2.000000        0.00364316        0.70040268        0.01790096
     208         -0.318487        2.000000        0.00016568        0.00513052        0.00006585
     209         -0.318151        2.000000        0.00343193        0.07645356        0.00073207
     210         -0.317254        2.000000        0.00165985        0.03740323        0.00030846
     211         -0.316615        2.000000        0.00209907        0.04505165        0.00036695
     212         -0.316317        2.000000        0.00395716        0.70005983        0.01645129
     213         -0.315885        2.000000        0.00183790        0.03208637        0.00029790
     214         -0.315512        2.000000        0.00187441        0.03646085        0.00032843
     215         -0.314742        2.000000        0.00381748        0.07390176        0.00067174
     216         -0.314240        2.000000        0.00032476        0.00555343        0.00005960
     217         -0.313093        2.000000        0.00243136        0.04915874        0.00051941
     218         -0.312538        2.000000        0.00377877        0.05770973        0.00049021
     219         -0.312396        2.000000        0.00305539        0.03988006        0.00038499
     220         -0.312037        2.000000        0.00302201        0.06422518        0.00058167
     221         -0.310598        2.000000        0.00802526        0.12464515        0.00101990
     222         -0.310221        2.000000        0.00358838        0.05762865        0.00054896
     223         -0.309408        2.000000        0.00050567        0.00649250        0.00006185
     224         -0.309395        2.000000        0.00339036        0.04267908        0.00034571
     225         -0.309234        2.000000        0.00294435        0.04404351        0.00034843
     226         -0.308381        2.000000        0.01115413        0.17741175        0.00174666
     227         -0.308250        2.000000        0.00606410        0.67195156        0.01591092
     228         -0.308097        2.000000        0.00503264        0.07707918        0.00080916
     229         -0.307179        2.000000        0.01796335        0.22174740        0.00176733
     230         -0.305966        2.000000        0.04694625        0.53899788        0.00459921
     231         -0.305190        2.000000        0.04652946        0.70201759        0.00860633
     232         -0.305170        2.000000        0.01275194        0.69680340        0.01485760
     233         -0.303881        2.000000        0.01727750        0.70374951        0.01448359
     234         -0.303186        2.000000        0.00035999        0.00423781        0.00004051
     235         -0.302644        2.000000        0.00569852        0.07352377        0.00066212
     236         -0.302137        2.000000        0.00874511        0.09571833        0.00074763
     237         -0.301410        2.000000        0.00469096        0.05958242        0.00044811
     238         -0.301270        2.000000        0.00717758        0.08126300        0.00063822
     239         -0.300504        2.000000        0.06305943        0.68193454        0.00396633
     240         -0.300347        2.000000        0.03439698        0.42363219        0.00380452
     241         -0.300010        2.000000        0.00333116        0.69602025        0.01723516
     242         -0.298878        2.000000        0.00583917        0.09666131        0.00080551
     243         -0.298505        2.000000        0.01266574        0.13464050        0.00094175
     244         -0.297847        2.000000        0.00472698        0.05195547        0.00036832
     245         -0.297156        2.000000        0.00875917        0.10581516        0.00081163
     246         -0.297046        2.000000        0.00421195        0.06376428        0.00058142
     247         -0.296671        2.000000        0.00589107        0.07122251        0.00056308
     248         -0.296618        2.000000        0.00326724        0.04029388        0.00028494
     249         -0.295969        2.000000        0.02430292        0.25937068        0.00169025
     250         -0.295348        2.000000        0.02754431        0.31642856        0.00214808
     251         -0.295087        2.000000        0.00079184        0.00979145        0.00008440
     252         -0.294369        2.000000        0.00380142        0.06397233        0.00053459
     253         -0.294183        2.000000        0.00188172        0.01913776        0.00013127
     254         -0.293640        2.000000        0.00605856        0.09046455        0.00077821
     255         -0.293246        2.000000        0.00371579        0.05927773        0.00051073
     256         -0.292577        2.000000        0.00142149        0.01742739        0.00011432
     257         -0.291994        2.000000        0.01250226        0.15087330        0.00104057
     258         -0.291705        2.000000        0.00166735        0.01754206        0.00012746
     259         -0.290928        2.000000        0.01103324        0.14123983        0.00103419
     260         -0.290306        2.000000        0.03107530        0.35583277        0.00247476
     261         -0.289901        2.000000        0.04238825        0.45396741        0.00282661
     262         -0.289451        2.000000        0.01794485        0.19984098        0.00127917
     263         -0.289043        2.000000        0.00815708        0.09040101        0.00058640
     264         -0.288015        2.000000        0.01096460        0.12277346        0.00079222
     265         -0.287861        2.000000        0.04308628        0.49339700        0.00333994
     266         -0.286936        2.000000        0.00071872        0.00729116        0.00006057
     267         -0.286667        2.000000        0.00249878        0.03181144        0.00020504
     268         -0.286302        2.000000        0.00438363        0.05108059        0.00036987
     269         -0.285607        2.000000        0.00153415        0.01767109        0.00011674
     270         -0.285328        2.000000        0.00242883        0.02481773        0.00014629
     271         -0.285085        2.000000        0.00206193        0.02148688        0.00012616
     272         -0.284841        2.000000        0.00136600        0.01439200        0.00010556
     273         -0.284131        2.000000        0.00180562        0.01773486        0.00011083
     274         -0.283572        2.000000        0.00466322        0.05226756        0.00036633
     275         -0.283249        2.000000        0.00239424        0.02536564        0.00018629
     276         -0.283050        2.000000        0.00294423        0.03169607        0.00023068
     277         -0.282957        2.000000        0.00100881        0.00964089        0.00006613
     278         -0.282638        2.000000        0.00185680        0.01968683        0.00014199
     279         -0.282393        2.000000        0.04339910        0.46838090        0.00352288
     280         -0.282190        2.000000        0.00248519        0.02705245        0.00020553
     281         -0.281812        2.000000        0.00070171        0.00820581        0.00004997
     282         -0.281718        2.000000        0.00374561        0.04419538        0.00031228
     283         -0.281529        2.000000        0.00324173        0.03674891        0.00031275
     284         -0.281304        2.000000        0.00478672        0.05631652        0.00051769
     285         -0.281056        2.000000        0.00809102        0.16046106        0.00250572
     286         -0.280948        2.000000        0.00268780        0.05147605        0.00072849
     287         -0.280843        2.000000        0.01776839        0.50002222        0.00928459
     288         -0.280780        2.000000        0.00096551        0.01906354        0.00030475
     289         -0.280282        2.000000        0.00284960        0.03405092        0.00028442
     290         -0.279956        2.000000        0.00196202        0.02284146        0.00015065
     291         -0.279807        2.000000        0.00277304        0.03933515        0.00046288
     292         -0.279686        2.000000        0.02877526        0.41477106        0.00476577
     293         -0.279589        2.000000        0.00412090        0.05918677        0.00060497
     294         -0.279495        2.000000        0.01843807        0.23944430        0.00231939
     295         -0.279217        2.000000        0.00648822        0.07240837        0.00049119
     296         -0.279093        2.000000        0.05278469        0.57310981        0.00452110
     297         -0.278951        2.000000        0.00672295        0.07485763        0.00053478
     298         -0.278592        2.000000        0.01830468        0.20799103        0.00144036
     299         -0.278433        2.000000        0.00439676        0.05321772        0.00030503
     300         -0.278210        2.000000        0.00320808        0.03534363        0.00029363
     301         -0.278135        2.000000        0.00148457        0.01772078        0.00010123
     302         -0.278031        2.000000        0.00219996        0.02230341        0.00016403
     303         -0.277650        2.000000        0.00680663        0.07293217        0.00058888
     304         -0.277312        2.000000        0.00712178        0.08548373        0.00050569
     305         -0.276990        2.000000        0.01946607        0.21602373        0.00175799
     306         -0.276609        2.000000        0.00250268        0.02666390        0.00020879
     307         -0.276405        2.000000        0.01544425        0.18788120        0.00164595