# Projected DOS for list 30 of 3 atoms, at iteration step i = 0, E(Fermi) =    -0.060510 a.u.
#     MO Eigenvalue [a.u.]      Occupation                 s                 p                 d
       1         -0.895259        2.000000        0.00000001        0.00000001        0.00000000
       2         -0.868125        2.000000        0.00000162        0.00000223        0.00000000
       3         -0.864615        2.000000        0.00000229        0.00000702        0.00000003
       4         -0.857993        2.000000        0.00000000        0.00000000        0.00000000
       5         -0.853826        2.000000        0.00000005        0.00000009        0.00000000
       6         -0.850378        2.000000        0.00000224        0.00000614        0.00000002
       7         -0.848222        2.000000        0.00000014        0.00000040        0.00000000
       8         -0.847335        2.000000        0.00000000        0.00000000        0.00000000
       9         -0.842977        2.000000        0.00000067        0.00000057        0.00000000
      10         -0.841504        2.000000        0.00002277        0.00002705        0.00000008
      11         -0.840654        2.000000        0.00000495        0.00000544        0.00000002
      12         -0.839688        2.000000        0.00002640        0.00004028        0.00000008
      13         -0.839172        2.000000        0.00002661        0.00003486        0.00000009
      14         -0.838522        2.000000        0.00000209        0.00000378        0.00000001
      15         -0.837015        2.000000        0.00000123        0.00000152        0.00000001
      16         -0.832753        2.000000        0.00000252        0.00000321        0.00000001
      17         -0.832000        2.000000        0.00000332        0.00000219        0.00000001
      18         -0.831644        2.000000        0.00000321        0.00000144        0.00000001
      19         -0.830027        2.000000        0.00000431        0.00001353        0.00000005
      20         -0.829447        2.000000        0.00000408        0.00000434        0.00000002
      21         -0.828640        2.000000        0.00000125        0.00000319        0.00000005
      22         -0.828147        2.000000        0.00006513        0.00002165        0.00000044
      23         -0.827394        2.000000        0.00001971        0.00001027        0.00000005
      24         -0.826637        2.000000        0.00016901        0.00006693        0.00000146
      25         -0.825864        2.000000        0.00040187        0.00020873        0.00000435
      26         -0.825007        2.000000        0.00000998        0.00003685        0.00000050
      27         -0.824149        2.000000        0.00000873        0.00000642        0.00000002
      28         -0.823003        2.000000        0.00003138        0.00007210        0.00000052
      29         -0.821982        2.000000        0.00000611        0.00002287        0.00000030
      30         -0.820560        2.000000        0.00007524        0.00022886        0.00000160
      31         -0.820223        2.000000        0.00001139        0.00000878        0.00000006
      32         -0.820029        2.000000        0.00008575        0.00011018        0.00000085
      33         -0.819390        2.000000        0.00031895        0.00052508        0.00000371
      34         -0.818664        2.000000        0.00004150        0.00008574        0.00000059
      35         -0.817548        2.000000        0.00003254        0.00001642        0.00000012
      36         -0.816472        2.000000        0.00000481        0.00003473        0.00000034
      37         -0.815444        2.000000        0.00024657        0.00023617        0.00000170
      38         -0.814805        2.000000        0.00423442        0.00317386        0.00002343
      39         -0.814124        2.000000        0.00000838        0.00005779        0.00000053
      40         -0.813968        2.000000        0.00033618        0.00007084        0.00000064
      41         -0.813053        2.000000        0.00002970        0.00001918        0.00000014
      42         -0.812601        2.000000        0.00053011        0.00069670        0.00000627
      43         -0.811948        2.000000        0.00008541        0.00002551        0.00000029
      44         -0.811687        2.000000        0.00001161        0.00002069        0.00000027
      45         -0.810574        2.000000        0.00071488        0.00015033        0.00000119
      46         -0.809310        2.000000        0.00025291        0.00014563        0.00000115
      47         -0.808268        2.000000        0.00011051        0.00019938        0.00000240
      48         -0.807324        2.000000        0.00001327        0.00001343        0.00000006
      49         -0.806602        2.000000        0.00000901        0.00006087        0.00000064
      50         -0.806376        2.000000        0.00176011        0.00047845        0.00000437
      51         -0.806147        2.000000        0.00176168        0.00043111        0.00000355
      52         -0.804835        2.000000        0.00016843        0.00002672        0.00000023
      53         -0.804321        2.000000        0.00030539        0.00040901        0.00000421
      54         -0.803943        2.000000        0.00002005        0.00002769        0.00000022
      55         -0.803401        2.000000        0.00000474        0.00000797        0.00000009
      56         -0.802648        2.000000        0.00059143        0.00017677        0.00000150
      57         -0.801912        2.000000        0.00001920        0.00007245        0.00000051
      58         -0.801342        2.000000        0.00026894        0.00008808        0.00000065
      59         -0.800594        2.000000        0.00010768        0.00022162        0.00000152
      60         -0.799945        2.000000        0.00010065        0.00003382        0.00000016
      61         -0.799254        2.000000        0.00006497        0.00001877        0.00000012
      62         -0.798331        2.000000        0.00000377        0.00000069        0.00000001
      63         -0.797356        2.000000        0.00045191        0.00026553        0.00000173
      64         -0.795713        2.000000        0.00005669        0.00002663        0.00000015
      65         -0.795144        2.000000        0.00120577        0.00035140        0.00000157
      66         -0.794508        2.000000        0.00846290        0.00270126        0.00001182
      67         -0.793501        2.000000        0.03897588        0.01087711        0.00004321
      68         -0.792888        2.000000        0.00031751        0.00041769        0.00000314
      69         -0.792771        2.000000        0.00161184        0.00024649        0.00000183
      70         -0.792166        2.000000        0.00076644        0.00159490        0.00001363
      71         -0.791795        2.000000        0.00033592        0.00022967        0.00000124
      72         -0.790466        2.000000        0.00117426        0.00017156        0.00000291
      73         -0.789691        2.000000        0.00191347        0.00065939        0.00000214
      74         -0.789018        2.000000        0.00003781        0.00002716        0.00000015
      75         -0.788284        2.000000        0.00340172        0.00096325        0.00000260
      76         -0.787044        2.000000        0.00082982        0.00014282        0.00000134
      77         -0.785765        2.000000        0.01516971        0.00498277        0.00001139
      78         -0.783215        2.000000        0.00010749        0.00002101        0.00000014
      79         -0.782853        2.000000        0.00770699        0.00217469        0.00000557
      80         -0.782388        2.000000        0.00022019        0.00006433        0.00000016
      81         -0.781821        2.000000        0.00007455        0.00009708        0.00000114
      82         -0.780108        2.000000        0.00490761        0.00111293        0.00000645
      83         -0.778906        2.000000        0.00022830        0.00007083        0.00000017
      84         -0.778076        2.000000        0.00001304        0.00000277        0.00000002
      85         -0.775317        2.000000        0.00157802        0.00037172        0.00000286
      86         -0.773086        2.000000        0.01643646        0.00390959        0.00003202
      87         -0.772920        2.000000        0.25566280        0.06141229        0.00049584
      88         -0.771409        2.000000        0.00001462        0.00000575        0.00000002
      89         -0.769725        2.000000        0.09235911        0.02221448        0.00023064
      90         -0.769226        2.000000        0.18395862        0.04474426        0.00048272
      91         -0.767566        2.000000        0.11879786        0.02857181        0.00036504
      92         -0.766737        2.000000        0.00075725        0.00014855        0.00000449
      93         -0.755845        2.000000        0.00175343        0.00037935        0.00001863
      94         -0.752538        2.000000        0.00520853        0.00172922        0.00009199
      95         -0.747161        2.000000        0.00000046        0.00000020        0.00000001
      96         -0.736999        2.000000        0.00633878        0.00711846        0.00001840
      97         -0.726419        2.000000        0.00001261        0.00002604        0.00000004
      98         -0.719129        2.000000        0.00001115        0.00000624        0.00000034
      99         -0.696511        2.000000        0.00000037        0.00000042        0.00000003
     100         -0.460315        2.000000        0.00000000        0.00000000        0.00000000
     101         -0.427906        2.000000        0.00000007        0.00000225        0.00000000
     102         -0.424376        2.000000        0.00000006        0.00000059        0.00000000
     103         -0.405781        2.000000        0.00000000        0.00000000        0.00000000
     104         -0.401299        2.000000        0.00000000        0.00000003        0.00000000
     105         -0.398347        2.000000        0.00000001        0.00000011        0.00000000
     106         -0.398267        2.000000        0.00000014        0.00000125        0.00000001
     107         -0.397295        2.000000        0.00000144        0.00000971        0.00000003
     108         -0.395753        2.000000        0.00000121        0.00000516        0.00000007
     109         -0.395158        2.000000        0.00000012        0.00000021        0.00000000
     110         -0.394493        2.000000        0.00000064        0.00000180        0.00000002
     111         -0.394192        2.000000        0.00000019        0.00000087        0.00000001
     112         -0.393919        2.000000        0.00000081        0.00000330        0.00000002
     113         -0.393017        2.000000        0.00000797        0.00004330        0.00000044
     114         -0.391793        2.000000        0.00000712        0.00001525        0.00000027
     115         -0.389280        2.000000        0.00000002        0.00000006        0.00000000
     116         -0.388145        2.000000        0.00000119        0.00000594        0.00000001
     117         -0.387090        2.000000        0.00000041        0.00000308        0.00000003
     118         -0.386138        2.000000        0.00006395        0.00032389        0.00000404
     119         -0.385161        2.000000        0.00003816        0.00018379        0.00000240
     120         -0.384984        2.000000        0.00000037        0.00000128        0.00000002
     121         -0.383823        2.000000        0.00000062        0.00000184        0.00000004
     122         -0.383101        2.000000        0.00000852        0.00002667        0.00000056
     123         -0.383025        2.000000        0.00001664        0.00006585        0.00000107
     124         -0.381208        2.000000        0.00001884        0.00006305        0.00000128
     125         -0.380660        2.000000        0.00000220        0.00000630        0.00000014
     126         -0.380323        2.000000        0.00000015        0.00000170        0.00000001
     127         -0.379623        2.000000        0.00000264        0.00002063        0.00000009
     128         -0.379161        2.000000        0.00000096        0.00000322        0.00000007
     129         -0.378115        2.000000        0.00002705        0.00007643        0.00000177
     130         -0.377757        2.000000        0.00000075        0.00000262        0.00000005
     131         -0.377213        2.000000        0.00003995        0.00014361        0.00000255
     132         -0.376655        2.000000        0.00014693        0.00054112        0.00000936
     133         -0.376089        2.000000        0.00004793        0.00016990        0.00000299
     134         -0.375522        2.000000        0.00000042        0.00000184        0.00000003
     135         -0.373953        2.000000        0.00000051        0.00000332        0.00000004
     136         -0.373564        2.000000        0.00000077        0.00000699        0.00000014
     137         -0.372991        2.000000        0.00000210        0.00001881        0.00000034
     138         -0.372433        2.000000        0.00000844        0.00003891        0.00000059
     139         -0.372037        2.000000        0.00000169        0.00000615        0.00000015
     140         -0.371632        2.000000        0.00000532        0.00001286        0.00000033
     141         -0.371006        2.000000        0.00000440        0.00001048        0.00000028
     142         -0.369840        2.000000        0.00002648        0.00009540        0.00000168
     143         -0.369635        2.000000        0.00000230        0.00000658        0.00000012
     144         -0.369153        2.000000        0.00000005        0.00000055        0.00000002
     145         -0.369131        2.000000        0.00000416        0.00004236        0.00000124
     146         -0.368498        2.000000        0.00000003        0.00000021        0.00000001
     147         -0.367984        2.000000        0.00000019        0.00000138        0.00000000
     148         -0.367257        2.000000        0.00000018        0.00000210        0.00000000
     149         -0.366951        2.000000        0.00000032        0.00000253        0.00000001
     150         -0.366882        2.000000        0.00000633        0.00005189        0.00000010
     151         -0.366558        2.000000        0.00000145        0.00001104        0.00000008
     152         -0.366087        2.000000        0.00000080        0.00000971        0.00000003
     153         -0.365532        2.000000        0.00001821        0.00005109        0.00000128
     154         -0.365292        2.000000        0.00003480        0.00010500        0.00000269
     155         -0.364873        2.000000        0.00007097        0.00020440        0.00000446
     156         -0.364499        2.000000        0.00000240        0.00001703        0.00000027
     157         -0.364385        2.000000        0.00041477        0.00111945        0.00002715
     158         -0.363409        2.000000        0.00000036        0.00000366        0.00000007
     159         -0.362731        2.000000        0.00255407        0.00842625        0.00020773
     160         -0.361690        2.000000        0.00000574        0.00002310        0.00000060
     161         -0.361463        2.000000        0.00010461        0.00092715        0.00001994
     162         -0.360695        2.000000        0.00001790        0.00005592        0.00000127
     163         -0.359909        2.000000        0.00000070        0.00001286        0.00000006
     164         -0.358869        2.000000        0.00020947        0.00060107        0.00001266
     165         -0.358762        2.000000        0.00000029        0.00000181        0.00000002
     166         -0.358424        2.000000        0.00002565        0.00010312        0.00000195
     167         -0.357749        2.000000        0.00222095        0.00598670        0.00013982
     168         -0.357432        2.000000        0.00006574        0.00017554        0.00000424
     169         -0.356226        2.000000        0.00002056        0.00005611        0.00000131
     170         -0.355206        2.000000        0.00000252        0.00000740        0.00000017
     171         -0.354151        2.000000        0.00001434        0.00004239        0.00000096
     172         -0.353675        2.000000        0.00014227        0.00059168        0.00001463
     173         -0.353241        2.000000        0.00000030        0.00000110        0.00000003
     174         -0.352384        2.000000        0.00000100        0.00000334        0.00000011
     175         -0.349281        2.000000        0.00020161        0.00077930        0.00002162
     176         -0.348101        2.000000        0.00074834        0.00248830        0.00006143
     177         -0.347056        2.000000        0.00349455        0.01130043        0.00027283
     178         -0.346421        2.000000        0.00002625        0.00008111        0.00000176
     179         -0.346099        2.000000        0.00044710        0.00140695        0.00003383
     180         -0.344626        2.000000        0.00002750        0.00008286        0.00000198
     181         -0.344227        2.000000        0.00003864        0.00010078        0.00000236
     182         -0.344158        2.000000        0.00001892        0.00005809        0.00000136
     183         -0.343279        2.000000        0.00001213        0.00003296        0.00000075
     184         -0.342186        2.000000        0.00009310        0.00024206        0.00000552
     185         -0.341638        2.000000        0.00000658        0.00001909        0.00000046
     186         -0.341223        2.000000        0.00000042        0.00000139        0.00000002
     187         -0.341051        2.000000        0.00003485        0.00009411        0.00000199
     188         -0.340810        2.000000        0.00000107        0.00000362        0.00000008
     189         -0.340344        2.000000        0.00003147        0.00008381        0.00000197
     190         -0.340103        2.000000        0.00847538        0.02270730        0.00053138
     191         -0.339538        2.000000        0.00030209        0.00079349        0.00001849
     192         -0.338904        2.000000        0.00000011        0.00000036        0.00000001
     193         -0.338737        2.000000        0.00046166        0.00120003        0.00002799
     194         -0.337951        2.000000        0.00712148        0.01843510        0.00043578
     195         -0.337180        2.000000        0.20568365        0.53247750        0.01249382
     196         -0.336960        2.000000        0.00024253        0.00062739        0.00001631
     197         -0.336163        2.000000        0.00007504        0.00022273        0.00000546
     198         -0.335733        2.000000        0.00124955        0.00324424        0.00007660
     199         -0.334956        2.000000        0.00009652        0.00030399        0.00000767
     200         -0.333834        2.000000        0.00704322        0.02071432        0.00049802
     201         -0.331670        2.000000        0.00000968        0.00003895        0.00000082
     202         -0.330715        2.000000        0.00000729        0.00002520        0.00000035
     203         -0.327469        2.000000        0.01173988        0.03771854        0.00101264
     204         -0.326924        2.000000        0.00010421        0.00031330        0.00000812
     205         -0.319799        2.000000        0.00000214        0.00000748        0.00000017
     206         -0.319625        2.000000        0.00000451        0.00003585        0.00000086
     207         -0.318771        2.000000        0.00039128        0.00124554        0.00002770
     208         -0.318487        2.000000        0.00000014        0.00000038        0.00000001
     209         -0.318151        2.000000        0.00000127        0.00000531        0.00000013
     210         -0.317254        2.000000        0.00000010        0.00000028        0.00000001
     211         -0.316615        2.000000        0.00000000        0.00000001        0.00000000
     212         -0.316317        2.000000        0.00015078        0.00037946        0.00000896
     213         -0.315885        2.000000        0.00000042        0.00000164        0.00000004
     214         -0.315512        2.000000        0.00000031        0.00000143        0.00000004
     215         -0.314742        2.000000        0.00000061        0.00000246        0.00000006
     216         -0.314240        2.000000        0.00000009        0.00000048        0.00000001
     217         -0.313093        2.000000        0.00000014        0.00000055        0.00000001
     218         -0.312538        2.000000        0.00000053        0.00000289        0.00000007
     219         -0.312396        2.000000        0.00000054        0.00000275        0.00000007
     220         -0.312037        2.000000        0.00000007        0.00000035        0.00000001
     221         -0.310598        2.000000        0.00000015        0.00000054        0.00000001
     222         -0.310221        2.000000        0.00000026        0.00000195        0.00000005
     223         -0.309408        2.000000        0.00000009        0.00000033        0.00000001
     224         -0.309395        2.000000        0.00000052        0.00000230        0.00000005
     225         -0.309234        2.000000        0.00000026        0.00000141        0.00000003
     226         -0.308381        2.000000        0.00000061        0.00000154        0.00000003
     227         -0.308250        2.000000        0.00000118        0.00000784        0.00000017
     228         -0.308097        2.000000        0.00000069        0.00000219        0.00000005
     229         -0.307179        2.000000        0.00000482        0.00001347        0.00000029
     230         -0.305966        2.000000        0.00004056        0.00011999        0.00000259
     231         -0.305190        2.000000        0.00062151        0.00166318        0.00003715
     232         -0.305170        2.000000        0.00000465        0.00001867        0.00000008
     233         -0.303881        2.000000        0.00024407        0.00066570        0.00002511
     234         -0.303186        2.000000        0.00000008        0.00000026        0.00000000
     235         -0.302644        2.000000        0.00000047        0.00000146        0.00000003
     236         -0.302137        2.000000        0.00000282        0.00000909        0.00000009
     237         -0.301410        2.000000        0.00000322        0.00000986        0.00000018
     238         -0.301270        2.000000        0.00000115        0.00000350        0.00000005
     239         -0.300504        2.000000        0.00002832        0.00009065        0.00000155
     240         -0.300347        2.000000        0.00000123        0.00000279        0.00000010
     241         -0.300010        2.000000        0.00188424        0.00492055        0.00014361
     242         -0.298878        2.000000        0.00000005        0.00000016        0.00000000
     243         -0.298505        2.000000        0.00000016        0.00000062        0.00000002
     244         -0.297847        2.000000        0.00000053        0.00000148        0.00000002
     245         -0.297156        2.000000        0.00000239        0.00000676        0.00000010
     246         -0.297046        2.000000        0.00000020        0.00000126        0.00000003
     247         -0.296671        2.000000        0.00000205        0.00000635        0.00000011
     248         -0.296618        2.000000        0.00000069        0.00000208        0.00000003
     249         -0.295969        2.000000        0.00002394        0.00006861        0.00000099
     250         -0.295348        2.000000        0.00003693        0.00010675        0.00000154
     251         -0.295087        2.000000        0.00000002        0.00000019        0.00000000
     252         -0.294369        2.000000        0.00000181        0.00000529        0.00000008
     253         -0.294183        2.000000        0.00000074        0.00000220        0.00000003
     254         -0.293640        2.000000        0.00000005        0.00000031        0.00000001
     255         -0.293246        2.000000        0.00000077        0.00000230        0.00000003
     256         -0.292577        2.000000        0.00000015        0.00000079        0.00000002
     257         -0.291994        2.000000        0.00001558        0.00004656        0.00000067
     258         -0.291705        2.000000        0.00000035        0.00000278        0.00000006
     259         -0.290928        2.000000        0.00006987        0.00021145        0.00000289
     260         -0.290306        2.000000        0.00014462        0.00043992        0.00000622
     261         -0.289901        2.000000        0.00035571        0.00109228        0.00001581
     262         -0.289451        2.000000        0.00014262        0.00043654        0.00000592
     263         -0.289043        2.000000        0.00005524        0.00017022        0.00000236
     264         -0.288015        2.000000        0.00001387        0.00004375        0.00000063
     265         -0.287861        2.000000        0.00000107        0.00000529        0.00000011
     266         -0.286936        2.000000        0.00000065        0.00000208        0.00000002
     267         -0.286667        2.000000        0.00000047        0.00000153        0.00000002
     268         -0.286302        2.000000        0.00000643        0.00002019        0.00000025
     269         -0.285607        2.000000        0.00000016        0.00000148        0.00000002
     270         -0.285328        2.000000        0.00000010        0.00000091        0.00000002
     271         -0.285085        2.000000        0.00000024        0.00000162        0.00000002
     272         -0.284841        2.000000        0.00000164        0.00000614        0.00000011
     273         -0.284131        2.000000        0.00000021        0.00000072        0.00000001
     274         -0.283572        2.000000        0.00000899        0.00006144        0.00000128
     275         -0.283249        2.000000        0.00000392        0.00002994        0.00000063
     276         -0.283050        2.000000        0.00000369        0.00003539        0.00000073
     277         -0.282957        2.000000        0.00000014        0.00000144        0.00000003
     278         -0.282638        2.000000        0.00000112        0.00000861        0.00000018
     279         -0.282393        2.000000        0.00006950        0.00056888        0.00001188
     280         -0.282190        2.000000        0.00000834        0.00008203        0.00000170
     281         -0.281812        2.000000        0.00000021        0.00000224        0.00000004
     282         -0.281718        2.000000        0.00000060        0.00000711        0.00000013
     283         -0.281529        2.000000        0.00000021        0.00000072        0.00000001
     284         -0.281304        2.000000        0.00000086        0.00000307        0.00000004
     285         -0.281056        2.000000        0.00000535        0.00002846        0.00000051
     286         -0.280948        2.000000        0.00000393        0.00003254        0.00000063
     287         -0.280843        2.000000        0.00004157        0.00027773        0.00000535
     288         -0.280780        2.000000        0.00000097        0.00000384        0.00000004
     289         -0.280282        2.000000        0.00000177        0.00001599        0.00000026
     290         -0.279956        2.000000        0.00000332        0.00003697        0.00000075
     291         -0.279807        2.000000        0.00000096        0.00001174        0.00000026
     292         -0.279686        2.000000        0.00003401        0.00034680        0.00000752
     293         -0.279589        2.000000        0.00000044        0.00000192        0.00000004
     294         -0.279495        2.000000        0.00004948        0.00047996        0.00001012
     295         -0.279217        2.000000        0.00002374        0.00028048        0.00000545
     296         -0.279093        2.000000        0.00027833        0.00346792        0.00006556
     297         -0.278951        2.000000        0.00003285        0.00040157        0.00000771
     298         -0.278592        2.000000        0.00009311        0.00072914        0.00001494
     299         -0.278433        2.000000        0.00000224        0.00001354        0.00000015
     300         -0.278210        2.000000        0.00004577        0.00035597        0.00000721
     301         -0.278135        2.000000        0.00000036        0.00000361        0.00000005
     302         -0.278031        2.000000        0.00000785        0.00009140        0.00000178
     303         -0.277650        2.000000        0.00007593        0.00045747        0.00000894
     304         -0.277312        2.000000        0.00003386        0.00015935        0.00000285
     305         -0.276990        2.000000        0.00029191        0.00182357        0.00003559
     306         -0.276609        2.000000        0.00002869        0.00024234        0.00000484
     307         -0.276405        2.000000        0.00024741        0.00135717        0.00002560