# Projected DOS for list 42 of 3 atoms, at iteration step i = 0, E(Fermi) =    -0.060510 a.u.
#     MO Eigenvalue [a.u.]      Occupation                 s                 p                 d
       1         -0.895259        2.000000        0.00051688        0.00105060        0.00000382
       2         -0.868125        2.000000        0.21155302        0.04264555        0.00040727
       3         -0.864615        2.000000        0.43828213        0.10239949        0.00070276
       4         -0.857993        2.000000        0.00000049        0.00000024        0.00000000
       5         -0.853826        2.000000        0.00005860        0.00001328        0.00000028
       6         -0.850378        2.000000        0.00238317        0.00054986        0.00001387
       7         -0.848222        2.000000        0.07027772        0.01704989        0.00049801
       8         -0.847335        2.000000        0.00014958        0.00003627        0.00000114
       9         -0.842977        2.000000        0.00000860        0.00003386        0.00000034
      10         -0.841504        2.000000        0.00184227        0.00051204        0.00001931
      11         -0.840654        2.000000        0.00203769        0.00056617        0.00001904
      12         -0.839688        2.000000        0.00036802        0.00009770        0.00000342
      13         -0.839172        2.000000        0.00006721        0.00002303        0.00000125
      14         -0.838522        2.000000        0.00012828        0.00003712        0.00000139
      15         -0.837015        2.000000        0.00016644        0.00005390        0.00000196
      16         -0.832753        2.000000        0.00083691        0.00028440        0.00001152
      17         -0.832000        2.000000        0.00001875        0.00000905        0.00000046
      18         -0.831644        2.000000        0.00007955        0.00003344        0.00000191
      19         -0.830027        2.000000        0.00010569        0.00004751        0.00000073
      20         -0.829447        2.000000        0.00003747        0.00004385        0.00000070
      21         -0.828640        2.000000        0.00000540        0.00000737        0.00000001
      22         -0.828147        2.000000        0.00024333        0.00012996        0.00000389
      23         -0.827394        2.000000        0.00073865        0.00039739        0.00000781
      24         -0.826637        2.000000        0.00016357        0.00005372        0.00000176
      25         -0.825864        2.000000        0.00001219        0.00002595        0.00000029
      26         -0.825007        2.000000        0.00019901        0.00018043        0.00000275
      27         -0.824149        2.000000        0.00040119        0.00018901        0.00000490
      28         -0.823003        2.000000        0.00063704        0.00031585        0.00001635
      29         -0.821982        2.000000        0.00012204        0.00006206        0.00000167
      30         -0.820560        2.000000        0.00048164        0.00033613        0.00002042
      31         -0.820223        2.000000        0.00016319        0.00009357        0.00000307
      32         -0.820029        2.000000        0.00028649        0.00030077        0.00001338
      33         -0.819390        2.000000        0.00073714        0.00134984        0.00005377
      34         -0.818664        2.000000        0.00011904        0.00018129        0.00000650
      35         -0.817548        2.000000        0.00000131        0.00001047        0.00000168
      36         -0.816472        2.000000        0.00000029        0.00000120        0.00000003
      37         -0.815444        2.000000        0.00003972        0.00018936        0.00000553
      38         -0.814805        2.000000        0.00201835        0.00115603        0.00008035
      39         -0.814124        2.000000        0.00071039        0.00187728        0.00000835
      40         -0.813968        2.000000        0.00205600        0.00337807        0.00001560
      41         -0.813053        2.000000        0.00000903        0.00000748        0.00000005
      42         -0.812601        2.000000        0.00048560        0.00026836        0.00000838
      43         -0.811948        2.000000        0.00000007        0.00000096        0.00000003
      44         -0.811687        2.000000        0.00000591        0.00001137        0.00000006
      45         -0.810574        2.000000        0.00003264        0.00003271        0.00000114
      46         -0.809310        2.000000        0.01256658        0.02849424        0.00012288
      47         -0.808268        2.000000        0.00020330        0.00038027        0.00000280
      48         -0.807324        2.000000        0.00012283        0.00027758        0.00000132
      49         -0.806602        2.000000        0.00046420        0.00036685        0.00001013
      50         -0.806376        2.000000        0.00112352        0.00071114        0.00002060
      51         -0.806147        2.000000        0.00065719        0.00048813        0.00001019
      52         -0.804835        2.000000        0.00001230        0.00001396        0.00000068
      53         -0.804321        2.000000        0.00156914        0.00091630        0.00003284
      54         -0.803943        2.000000        0.00000978        0.00001391        0.00000138
      55         -0.803401        2.000000        0.00004045        0.00007312        0.00000272
      56         -0.802648        2.000000        0.00003043        0.00002496        0.00000066
      57         -0.801912        2.000000        0.00005297        0.00003778        0.00000282
      58         -0.801342        2.000000        0.00005151        0.00004922        0.00000466
      59         -0.800594        2.000000        0.00042240        0.00024410        0.00001354
      60         -0.799945        2.000000        0.00001886        0.00005390        0.00000033
      61         -0.799254        2.000000        0.00008833        0.00027349        0.00000211
      62         -0.798331        2.000000        0.00000325        0.00001107        0.00000022
      63         -0.797356        2.000000        0.00007283        0.00009594        0.00000332
      64         -0.795713        2.000000        0.00000181        0.00000508        0.00000020
      65         -0.795144        2.000000        0.00019303        0.00123916        0.00000745
      66         -0.794508        2.000000        0.00007381        0.00015977        0.00000094
      67         -0.793501        2.000000        0.00250126        0.00171158        0.00006575
      68         -0.792888        2.000000        0.00064574        0.00050145        0.00003015
      69         -0.792771        2.000000        0.00066452        0.00055518        0.00002820
      70         -0.792166        2.000000        0.00406144        0.00309428        0.00020503
      71         -0.791795        2.000000        0.00020694        0.00018142        0.00001202
      72         -0.790466        2.000000        0.00047818        0.00033468        0.00002176
      73         -0.789691        2.000000        0.00004211        0.00006367        0.00000091
      74         -0.789018        2.000000        0.00002141        0.00001725        0.00000099
      75         -0.788284        2.000000        0.00000902        0.00002084        0.00000046
      76         -0.787044        2.000000        0.00004565        0.00010163        0.00000464
      77         -0.785765        2.000000        0.00136485        0.00222831        0.00002049
      78         -0.783215        2.000000        0.00000606        0.00000488        0.00000015
      79         -0.782853        2.000000        0.00004336        0.00010276        0.00000067
      80         -0.782388        2.000000        0.00000376        0.00001492        0.00000010
      81         -0.781821        2.000000        0.00002077        0.00017223        0.00000059
      82         -0.780108        2.000000        0.00000029        0.00000295        0.00000002
      83         -0.778906        2.000000        0.00000484        0.00001109        0.00000024
      84         -0.778076        2.000000        0.00000003        0.00000027        0.00000000
      85         -0.775317        2.000000        0.00000026        0.00000038        0.00000003
      86         -0.773086        2.000000        0.00000107        0.00000251        0.00000003
      87         -0.772920        2.000000        0.00000652        0.00000665        0.00000037
      88         -0.771409        2.000000        0.00000013        0.00000015        0.00000000
      89         -0.769725        2.000000        0.00000095        0.00000561        0.00000014
      90         -0.769226        2.000000        0.00000085        0.00000749        0.00000014
      91         -0.767566        2.000000        0.00000545        0.00003534        0.00000031
      92         -0.766737        2.000000        0.00014049        0.00108066        0.00000331
      93         -0.755845        2.000000        0.00000017        0.00000277        0.00000001
      94         -0.752538        2.000000        0.00001533        0.00004396        0.00000040
      95         -0.747161        2.000000        0.00000183        0.00000319        0.00000026
      96         -0.736999        2.000000        0.00000076        0.00000294        0.00000003
      97         -0.726419        2.000000        0.00000005        0.00000024        0.00000000
      98         -0.719129        2.000000        0.00000001        0.00000004        0.00000000
      99         -0.696511        2.000000        0.00000002        0.00000008        0.00000000
     100         -0.460315        2.000000        0.00131825        0.00387868        0.00007725
     101         -0.427906        2.000000        0.21963509        0.58543106        0.01142652
     102         -0.424376        2.000000        0.01581888        0.04629730        0.00071687
     103         -0.405781        2.000000        0.00000087        0.00000625        0.00000002
     104         -0.401299        2.000000        0.00000007        0.00000040        0.00000001
     105         -0.398347        2.000000        0.00001806        0.00012066        0.00000209
     106         -0.398267        2.000000        0.00022913        0.00150966        0.00002677
     107         -0.397295        2.000000        0.00001614        0.00010596        0.00000182
     108         -0.395753        2.000000        0.00096128        0.00558399        0.00010540
     109         -0.395158        2.000000        0.00000473        0.00002570        0.00000048
     110         -0.394493        2.000000        0.00005999        0.00031653        0.00000644
     111         -0.394192        2.000000        0.00002824        0.00016567        0.00000322
     112         -0.393919        2.000000        0.00042096        0.00222849        0.00004176
     113         -0.393017        2.000000        0.00783309        0.04116440        0.00079070
     114         -0.391793        2.000000        0.00006348        0.00040121        0.00000812
     115         -0.389280        2.000000        0.00000221        0.00001577        0.00000016
     116         -0.388145        2.000000        0.00012759        0.00087525        0.00001487
     117         -0.387090        2.000000        0.00020333        0.00100155        0.00001907
     118         -0.386138        2.000000        0.01153427        0.06317069        0.00107740
     119         -0.385161        2.000000        0.00570108        0.02688447        0.00057174
     120         -0.384984        2.000000        0.00001084        0.00013893        0.00000143
     121         -0.383823        2.000000        0.00000490        0.00003777        0.00000101
     122         -0.383101        2.000000        0.00000547        0.00023539        0.00000706
     123         -0.383025        2.000000        0.00038751        0.00267973        0.00005825
     124         -0.381208        2.000000        0.00008229        0.00083420        0.00002182
     125         -0.380660        2.000000        0.00008559        0.00046909        0.00000789
     126         -0.380323        2.000000        0.00010899        0.00064349        0.00001207
     127         -0.379623        2.000000        0.00019711        0.00106686        0.00001838
     128         -0.379161        2.000000        0.00000065        0.00002222        0.00000070
     129         -0.378115        2.000000        0.00007125        0.00052440        0.00001129
     130         -0.377757        2.000000        0.00001490        0.00011652        0.00000235
     131         -0.377213        2.000000        0.00003446        0.00202736        0.00006868
     132         -0.376655        2.000000        0.00012974        0.00816680        0.00027671
     133         -0.376089        2.000000        0.00004673        0.00317536        0.00010479
     134         -0.375522        2.000000        0.00001145        0.00014529        0.00000384
     135         -0.373953        2.000000        0.00001526        0.00081804        0.00001880
     136         -0.373564        2.000000        0.00001901        0.00016394        0.00000417
     137         -0.372991        2.000000        0.00016791        0.00260083        0.00004406
     138         -0.372433        2.000000        0.00009082        0.00094848        0.00004816
     139         -0.372037        2.000000        0.00000615        0.00004962        0.00000120
     140         -0.371632        2.000000        0.00003111        0.00038397        0.00000264
     141         -0.371006        2.000000        0.00004195        0.00038626        0.00000152
     142         -0.369840        2.000000        0.00002675        0.00015710        0.00000717
     143         -0.369635        2.000000        0.00002073        0.00016791        0.00000093
     144         -0.369153        2.000000        0.00000584        0.00004376        0.00000109
     145         -0.369131        2.000000        0.00048125        0.00386073        0.00006830
     146         -0.368498        2.000000        0.00000191        0.00001826        0.00000018
     147         -0.367984        2.000000        0.00000671        0.00008357        0.00000101
     148         -0.367257        2.000000        0.00000013        0.00000153        0.00000005
     149         -0.366951        2.000000        0.00000039        0.00000449        0.00000002
     150         -0.366882        2.000000        0.00003278        0.00030387        0.00000730
     151         -0.366558        2.000000        0.00001045        0.00010079        0.00000084
     152         -0.366087        2.000000        0.00000459        0.00004396        0.00000044
     153         -0.365532        2.000000        0.00000561        0.00003307        0.00000029
     154         -0.365292        2.000000        0.00000360        0.00003992        0.00000068
     155         -0.364873        2.000000        0.00002495        0.00019090        0.00000513
     156         -0.364499        2.000000        0.00000305        0.00002680        0.00000064
     157         -0.364385        2.000000        0.00008625        0.00065737        0.00001965
     158         -0.363409        2.000000        0.00000110        0.00001329        0.00000002
     159         -0.362731        2.000000        0.00024209        0.00302302        0.00001458
     160         -0.361690        2.000000        0.00001133        0.00004610        0.00000125
     161         -0.361463        2.000000        0.00072344        0.00759246        0.00002278
     162         -0.360695        2.000000        0.00000045        0.00000270        0.00000011
     163         -0.359909        2.000000        0.00005177        0.00068466        0.00001555
     164         -0.358869        2.000000        0.00001019        0.00008699        0.00000315
     165         -0.358762        2.000000        0.00002127        0.00014277        0.00000146
     166         -0.358424        2.000000        0.00004103        0.00018631        0.00000461
     167         -0.357749        2.000000        0.00465429        0.03347053        0.00051045
     168         -0.357432        2.000000        0.00004877        0.00032902        0.00001322
     169         -0.356226        2.000000        0.00004058        0.00028603        0.00000405
     170         -0.355206        2.000000        0.00000578        0.00001601        0.00000072
     171         -0.354151        2.000000        0.00000651        0.00001371        0.00000062
     172         -0.353675        2.000000        0.00017375        0.00053217        0.00002304
     173         -0.353241        2.000000        0.00000625        0.00002179        0.00000092
     174         -0.352384        2.000000        0.00001108        0.00009031        0.00000114
     175         -0.349281        2.000000        0.00001602        0.00004872        0.00000050
     176         -0.348101        2.000000        0.00025862        0.00080594        0.00001916
     177         -0.347056        2.000000        0.00013216        0.00034699        0.00000502
     178         -0.346421        2.000000        0.00002008        0.00006195        0.00000153
     179         -0.346099        2.000000        0.00007095        0.00043346        0.00001126
     180         -0.344626        2.000000        0.00000051        0.00000323        0.00000003
     181         -0.344227        2.000000        0.00003399        0.00015769        0.00000270
     182         -0.344158        2.000000        0.00000077        0.00000239        0.00000003
     183         -0.343279        2.000000        0.00000228        0.00000794        0.00000026
     184         -0.342186        2.000000        0.00001436        0.00006135        0.00000058
     185         -0.341638        2.000000        0.00000003        0.00000038        0.00000000
     186         -0.341223        2.000000        0.00000132        0.00000303        0.00000007
     187         -0.341051        2.000000        0.00004649        0.00015555        0.00000231
     188         -0.340810        2.000000        0.00000045        0.00000202        0.00000005
     189         -0.340344        2.000000        0.00000529        0.00001633        0.00000025
     190         -0.340103        2.000000        0.00120786        0.00351448        0.00003782
     191         -0.339538        2.000000        0.00006605        0.00019410        0.00000211
     192         -0.338904        2.000000        0.00000035        0.00000135        0.00000003
     193         -0.338737        2.000000        0.00013107        0.00039439        0.00000465
     194         -0.337951        2.000000        0.00002994        0.00014110        0.00000127
     195         -0.337180        2.000000        0.00002729        0.00010851        0.00000135
     196         -0.336960        2.000000        0.00008784        0.00043840        0.00000637
     197         -0.336163        2.000000        0.00000922        0.00006783        0.00000100
     198         -0.335733        2.000000        0.00000037        0.00003095        0.00000049
     199         -0.334956        2.000000        0.00004683        0.00017900        0.00000110
     200         -0.333834        2.000000        0.00004066        0.00016557        0.00000109
     201         -0.331670        2.000000        0.00000806        0.00002993        0.00000018
     202         -0.330715        2.000000        0.00003148        0.00019931        0.00000114
     203         -0.327469        2.000000        0.00000352        0.00001256        0.00000010
     204         -0.326924        2.000000        0.00001231        0.00004878        0.00000028
     205         -0.319799        2.000000        0.00000046        0.00000183        0.00000001
     206         -0.319625        2.000000        0.00008823        0.00053938        0.00000297
     207         -0.318771        2.000000        0.00026040        0.00102155        0.00000646
     208         -0.318487        2.000000        0.00000024        0.00000096        0.00000001
     209         -0.318151        2.000000        0.00000001        0.00000011        0.00000000
     210         -0.317254        2.000000        0.00000011        0.00000044        0.00000000
     211         -0.316615        2.000000        0.00000008        0.00000035        0.00000000
     212         -0.316317        2.000000        0.00052159        0.00309778        0.00002409
     213         -0.315885        2.000000        0.00000001        0.00000008        0.00000000
     214         -0.315512        2.000000        0.00000011        0.00000089        0.00000001
     215         -0.314742        2.000000        0.00000017        0.00000121        0.00000001
     216         -0.314240        2.000000        0.00000001        0.00000002        0.00000000
     217         -0.313093        2.000000        0.00000038        0.00000392        0.00000002
     218         -0.312538        2.000000        0.00000048        0.00000344        0.00000003
     219         -0.312396        2.000000        0.00000043        0.00000434        0.00000003
     220         -0.312037        2.000000        0.00000004        0.00000049        0.00000000
     221         -0.310598        2.000000        0.00000282        0.00002036        0.00000015
     222         -0.310221        2.000000        0.00000175        0.00001118        0.00000009
     223         -0.309408        2.000000        0.00000079        0.00000681        0.00000004
     224         -0.309395        2.000000        0.00000194        0.00001524        0.00000010
     225         -0.309234        2.000000        0.00000049        0.00000364        0.00000003
     226         -0.308381        2.000000        0.00001996        0.00023895        0.00000092
     227         -0.308250        2.000000        0.00013609        0.00056587        0.00000773
     228         -0.308097        2.000000        0.00002673        0.00011735        0.00000129
     229         -0.307179        2.000000        0.00018593        0.00114288        0.00000794
     230         -0.305966        2.000000        0.00102477        0.00639305        0.00003858
     231         -0.305190        2.000000        0.01818433        0.10836917        0.00062431
     232         -0.305170        2.000000        0.00363287        0.02167239        0.00012519
     233         -0.303881        2.000000        0.00496835        0.02931909        0.00016028
     234         -0.303186        2.000000        0.00002203        0.00012003        0.00000060
     235         -0.302644        2.000000        0.00006145        0.00032623        0.00000155
     236         -0.302137        2.000000        0.00029278        0.00146606        0.00000662
     237         -0.301410        2.000000        0.00008791        0.00042350        0.00000199
     238         -0.301270        2.000000        0.00006474        0.00031003        0.00000160
     239         -0.300504        2.000000        0.00061030        0.00666751        0.00007366
     240         -0.300347        2.000000        0.00001071        0.00010966        0.00000149
     241         -0.300010        2.000000        0.00000567        0.00002093        0.00000029
     242         -0.298878        2.000000        0.00014533        0.00106157        0.00000791
     243         -0.298505        2.000000        0.00027578        0.00188670        0.00001313
     244         -0.297847        2.000000        0.00034993        0.00225108        0.00001441
     245         -0.297156        2.000000        0.00075518        0.00455302        0.00002752
     246         -0.297046        2.000000        0.00001773        0.00010614        0.00000066
     247         -0.296671        2.000000        0.00043305        0.00252500        0.00001477
     248         -0.296618        2.000000        0.00013645        0.00080418        0.00000463
     249         -0.295969        2.000000        0.00429554        0.02440388        0.00013367
     250         -0.295348        2.000000        0.00531165        0.02940632        0.00015435
     251         -0.295087        2.000000        0.00000342        0.00001957        0.00000009
     252         -0.294369        2.000000        0.00020049        0.00108350        0.00000533
     253         -0.294183        2.000000        0.00006129        0.00032466        0.00000159
     254         -0.293640        2.000000        0.00000082        0.00000354        0.00000002
     255         -0.293246        2.000000        0.00006002        0.00031537        0.00000149
     256         -0.292577        2.000000        0.00000421        0.00002241        0.00000011
     257         -0.291994        2.000000        0.00098055        0.00508504        0.00002273
     258         -0.291705        2.000000        0.00000055        0.00000252        0.00000002
     259         -0.290928        2.000000        0.00355079        0.01867757        0.00008141
     260         -0.290306        2.000000        0.00600963        0.03212425        0.00013836
     261         -0.289901        2.000000        0.01316013        0.07106775        0.00030664
     262         -0.289451        2.000000        0.00515742        0.02852147        0.00012152
     263         -0.289043        2.000000        0.00164208        0.00931343        0.00003958
     264         -0.288015        2.000000        0.00025103        0.00164862        0.00000699
     265         -0.287861        2.000000        0.00000221        0.00005027        0.00000018
     266         -0.286936        2.000000        0.00001174        0.00008444        0.00000035
     267         -0.286667        2.000000        0.00000311        0.00003259        0.00000014
     268         -0.286302        2.000000        0.00007562        0.00065647        0.00000272
     269         -0.285607        2.000000        0.00000437        0.00002793        0.00000013
     270         -0.285328        2.000000        0.00000150        0.00001092        0.00000004
     271         -0.285085        2.000000        0.00000254        0.00003410        0.00000013
     272         -0.284841        2.000000        0.00001646        0.00011622        0.00000055
     273         -0.284131        2.000000        0.00000071        0.00001456        0.00000004
     274         -0.283572        2.000000        0.00001329        0.00009054        0.00000047
     275         -0.283249        2.000000        0.00001107        0.00005738        0.00000029
     276         -0.283050        2.000000        0.00000666        0.00004301        0.00000019
     277         -0.282957        2.000000        0.00000013        0.00000098        0.00000001
     278         -0.282638        2.000000        0.00000718        0.00003438        0.00000018
     279         -0.282393        2.000000        0.00019519        0.00095458        0.00000492
     280         -0.282190        2.000000        0.00000063        0.00001034        0.00000005
     281         -0.281812        2.000000        0.00000031        0.00000157        0.00000001
     282         -0.281718        2.000000        0.00000813        0.00006167        0.00000028
     283         -0.281529        2.000000        0.00003061        0.00013973        0.00000071
     284         -0.281304        2.000000        0.00005682        0.00026271        0.00000137
     285         -0.281056        2.000000        0.00006445        0.00022394        0.00000191
     286         -0.280948        2.000000        0.00001859        0.00006276        0.00000041
     287         -0.280843        2.000000        0.00008234        0.00015697        0.00000300
     288         -0.280780        2.000000        0.00000087        0.00004685        0.00000032
     289         -0.280282        2.000000        0.00001591        0.00015624        0.00000075
     290         -0.279956        2.000000        0.00000170        0.00001166        0.00000005
     291         -0.279807        2.000000        0.00002613        0.00010731        0.00000060
     292         -0.279686        2.000000        0.00027719        0.00100843        0.00000634
     293         -0.279589        2.000000        0.00002832        0.00012471        0.00000096
     294         -0.279495        2.000000        0.00013139        0.00037201        0.00000310
     295         -0.279217        2.000000        0.00000326        0.00005872        0.00000104
     296         -0.279093        2.000000        0.00001542        0.00206390        0.00002062
     297         -0.278951        2.000000        0.00000348        0.00018478        0.00000190
     298         -0.278592        2.000000        0.00002614        0.00019922        0.00000245
     299         -0.278433        2.000000        0.00000021        0.00012587        0.00000076
     300         -0.278210        2.000000        0.00000288        0.00015958        0.00000085
     301         -0.278135        2.000000        0.00000192        0.00001326        0.00000014
     302         -0.278031        2.000000        0.00000313        0.00002054        0.00000019
     303         -0.277650        2.000000        0.00000917        0.00063974        0.00000407
     304         -0.277312        2.000000        0.00000224        0.00054293        0.00000294
     305         -0.276990        2.000000        0.00005054        0.00183522        0.00001228
     306         -0.276609        2.000000        0.00000560        0.00003707        0.00000028
     307         -0.276405        2.000000        0.00010364        0.00178803        0.00001441