# Projected DOS for list 39 of 3 atoms, at iteration step i = 0, E(Fermi) =    -0.060510 a.u.
#     MO Eigenvalue [a.u.]      Occupation                 s                 p                 d
       1         -0.895259        2.000000        0.00000760        0.00001181        0.00000009
       2         -0.868125        2.000000        0.02436918        0.00475204        0.00007851
       3         -0.864615        2.000000        0.07242681        0.01239622        0.00020944
       4         -0.857993        2.000000        0.00000008        0.00000003        0.00000000
       5         -0.853826        2.000000        0.00017309        0.00005701        0.00000022
       6         -0.850378        2.000000        0.01307991        0.00371908        0.00001875
       7         -0.848222        2.000000        0.53755197        0.14454684        0.00082419
       8         -0.847335        2.000000        0.00130383        0.00034624        0.00000211
       9         -0.842977        2.000000        0.00021635        0.00005547        0.00000079
      10         -0.841504        2.000000        0.03148063        0.00784633        0.00010773
      11         -0.840654        2.000000        0.03154812        0.00785809        0.00011373
      12         -0.839688        2.000000        0.00571288        0.00141188        0.00002022
      13         -0.839172        2.000000        0.00212114        0.00052845        0.00000643
      14         -0.838522        2.000000        0.00249487        0.00062470        0.00000979
      15         -0.837015        2.000000        0.00379719        0.00104588        0.00003277
      16         -0.832753        2.000000        0.02554045        0.00693633        0.00018260
      17         -0.832000        2.000000        0.00098666        0.00033665        0.00001689
      18         -0.831644        2.000000        0.00422705        0.00111128        0.00002003
      19         -0.830027        2.000000        0.00012885        0.00003208        0.00000084
      20         -0.829447        2.000000        0.00029934        0.00008988        0.00000205
      21         -0.828640        2.000000        0.00002122        0.00000791        0.00000041
      22         -0.828147        2.000000        0.00012106        0.00005597        0.00000094
      23         -0.827394        2.000000        0.00000545        0.00002419        0.00000025
      24         -0.826637        2.000000        0.00107724        0.00030411        0.00001107
      25         -0.825864        2.000000        0.00020280        0.00007031        0.00000288
      26         -0.825007        2.000000        0.00011305        0.00007032        0.00000298
      27         -0.824149        2.000000        0.01020402        0.00355515        0.00009752
      28         -0.823003        2.000000        0.00020057        0.00014786        0.00000896
      29         -0.821982        2.000000        0.00220142        0.00079119        0.00002168
      30         -0.820560        2.000000        0.00011262        0.00009732        0.00000285
      31         -0.820223        2.000000        0.00028351        0.00013896        0.00000515
      32         -0.820029        2.000000        0.00009477        0.00004580        0.00000108
      33         -0.819390        2.000000        0.00009487        0.00020455        0.00000059
      34         -0.818664        2.000000        0.00010574        0.00007776        0.00000199
      35         -0.817548        2.000000        0.00106801        0.00039050        0.00000875
      36         -0.816472        2.000000        0.00001833        0.00000642        0.00000011
      37         -0.815444        2.000000        0.00001875        0.00003476        0.00000016
      38         -0.814805        2.000000        0.00004258        0.00027976        0.00000009
      39         -0.814124        2.000000        0.00001873        0.00003984        0.00000029
      40         -0.813968        2.000000        0.00004816        0.00004620        0.00000019
      41         -0.813053        2.000000        0.00002695        0.00001119        0.00000026
      42         -0.812601        2.000000        0.00015106        0.00011347        0.00000220
      43         -0.811948        2.000000        0.00002314        0.00001005        0.00000025
      44         -0.811687        2.000000        0.00001743        0.00000960        0.00000045
      45         -0.810574        2.000000        0.00009304        0.00004055        0.00000169
      46         -0.809310        2.000000        0.00044434        0.00043820        0.00000179
      47         -0.808268        2.000000        0.00010966        0.00007822        0.00000380
      48         -0.807324        2.000000        0.00017035        0.00010296        0.00000504
      49         -0.806602        2.000000        0.00028190        0.00016415        0.00000525
      50         -0.806376        2.000000        0.00002309        0.00001355        0.00000028
      51         -0.806147        2.000000        0.00004261        0.00002244        0.00000080
      52         -0.804835        2.000000        0.00031140        0.00018357        0.00000753
      53         -0.804321        2.000000        0.00068366        0.00038049        0.00001211
      54         -0.803943        2.000000        0.00027395        0.00015198        0.00000543
      55         -0.803401        2.000000        0.00475928        0.00285647        0.00012244
      56         -0.802648        2.000000        0.00000853        0.00000735        0.00000042
      57         -0.801912        2.000000        0.00003568        0.00003107        0.00000149
      58         -0.801342        2.000000        0.00038755        0.00024130        0.00001022
      59         -0.800594        2.000000        0.00004946        0.00005555        0.00000166
      60         -0.799945        2.000000        0.00000027        0.00000095        0.00000003
      61         -0.799254        2.000000        0.00000695        0.00001111        0.00000017
      62         -0.798331        2.000000        0.00000557        0.00004395        0.00000210
      63         -0.797356        2.000000        0.00008146        0.00005310        0.00000191
      64         -0.795713        2.000000        0.00000015        0.00000058        0.00000003
      65         -0.795144        2.000000        0.00000384        0.00000555        0.00000014
      66         -0.794508        2.000000        0.00005074        0.00002554        0.00000055
      67         -0.793501        2.000000        0.00001133        0.00006993        0.00000001
      68         -0.792888        2.000000        0.00000483        0.00003737        0.00000002
      69         -0.792771        2.000000        0.00000622        0.00003083        0.00000004
      70         -0.792166        2.000000        0.00003205        0.00027285        0.00000007
      71         -0.791795        2.000000        0.00000232        0.00001813        0.00000000
      72         -0.790466        2.000000        0.00000325        0.00002651        0.00000000
      73         -0.789691        2.000000        0.00000045        0.00000291        0.00000003
      74         -0.789018        2.000000        0.00000050        0.00000187        0.00000000
      75         -0.788284        2.000000        0.00000865        0.00000830        0.00000016
      76         -0.787044        2.000000        0.00000114        0.00000735        0.00000001
      77         -0.785765        2.000000        0.00002728        0.00001376        0.00000010
      78         -0.783215        2.000000        0.00001991        0.00002004        0.00000096
      79         -0.782853        2.000000        0.00001146        0.00000876        0.00000032
      80         -0.782388        2.000000        0.00000936        0.00000904        0.00000037
      81         -0.781821        2.000000        0.00003751        0.00006642        0.00000185
      82         -0.780108        2.000000        0.00000005        0.00000035        0.00000000
      83         -0.778906        2.000000        0.00000007        0.00000175        0.00000001
      84         -0.778076        2.000000        0.00000090        0.00000627        0.00000018
      85         -0.775317        2.000000        0.00000039        0.00000045        0.00000002
      86         -0.773086        2.000000        0.00000389        0.00000473        0.00000024
      87         -0.772920        2.000000        0.00000108        0.00000186        0.00000006
      88         -0.771409        2.000000        0.00000027        0.00000021        0.00000001
      89         -0.769725        2.000000        0.00000004        0.00000022        0.00000000
      90         -0.769226        2.000000        0.00000003        0.00000039        0.00000000
      91         -0.767566        2.000000        0.00000108        0.00000396        0.00000010
      92         -0.766737        2.000000        0.00007701        0.00027728        0.00000524
      93         -0.755845        2.000000        0.00000001        0.00000007        0.00000000
      94         -0.752538        2.000000        0.00000022        0.00000030        0.00000000
      95         -0.747161        2.000000        0.00000009        0.00000052        0.00000000
      96         -0.736999        2.000000        0.00000002        0.00000010        0.00000000
      97         -0.726419        2.000000        0.00000103        0.00000272        0.00000021
      98         -0.719129        2.000000        0.00000001        0.00000010        0.00000000
      99         -0.696511        2.000000        0.00000004        0.00000018        0.00000001
     100         -0.460315        2.000000        0.00000189        0.00002160        0.00000003
     101         -0.427906        2.000000        0.00356978        0.01032997        0.00024735
     102         -0.424376        2.000000        0.00054294        0.00136044        0.00004229
     103         -0.405781        2.000000        0.00000087        0.00000243        0.00000006
     104         -0.401299        2.000000        0.00000223        0.00000869        0.00000012
     105         -0.398347        2.000000        0.00083019        0.00289678        0.00004327
     106         -0.398267        2.000000        0.01047350        0.03652786        0.00054611
     107         -0.397295        2.000000        0.00001215        0.00007648        0.00000073
     108         -0.395753        2.000000        0.02281052        0.07395977        0.00124329
     109         -0.395158        2.000000        0.00004209        0.00012805        0.00000257
     110         -0.394493        2.000000        0.00123636        0.00395348        0.00006849
     111         -0.394192        2.000000        0.00064885        0.00206205        0.00003678
     112         -0.393919        2.000000        0.00390913        0.01182914        0.00023656
     113         -0.393017        2.000000        0.08336459        0.25182878        0.00508111
     114         -0.391793        2.000000        0.00180620        0.00557154        0.00010809
     115         -0.389280        2.000000        0.00000582        0.00001724        0.00000048
     116         -0.388145        2.000000        0.00020948        0.00105700        0.00000846
     117         -0.387090        2.000000        0.00029372        0.00089697        0.00002374
     118         -0.386138        2.000000        0.00477291        0.02444075        0.00042848
     119         -0.385161        2.000000        0.00262721        0.01104910        0.00023978
     120         -0.384984        2.000000        0.00011707        0.00040096        0.00000601
     121         -0.383823        2.000000        0.00013296        0.00065377        0.00001622
     122         -0.383101        2.000000        0.00111535        0.00427412        0.00009933
     123         -0.383025        2.000000        0.00098770        0.00358129        0.00005288
     124         -0.381208        2.000000        0.00353005        0.01063427        0.00025601
     125         -0.380660        2.000000        0.00011777        0.00051655        0.00001195
     126         -0.380323        2.000000        0.00002542        0.00015855        0.00000073
     127         -0.379623        2.000000        0.00034525        0.00113043        0.00003164
     128         -0.379161        2.000000        0.00006888        0.00023088        0.00000490
     129         -0.378115        2.000000        0.00169400        0.00487488        0.00012872
     130         -0.377757        2.000000        0.00002578        0.00028331        0.00000663
     131         -0.377213        2.000000        0.01136368        0.03347751        0.00081059
     132         -0.376655        2.000000        0.04899066        0.14136711        0.00353793
     133         -0.376089        2.000000        0.02024004        0.05785508        0.00149997
     134         -0.375522        2.000000        0.00118469        0.00392814        0.00011776
     135         -0.373953        2.000000        0.00440441        0.01295443        0.00035170
     136         -0.373564        2.000000        0.00026603        0.00293008        0.00007734
     137         -0.372991        2.000000        0.00459810        0.01349723        0.00031294
     138         -0.372433        2.000000        0.00421460        0.01527841        0.00043749
     139         -0.372037        2.000000        0.00025213        0.00135424        0.00004001
     140         -0.371632        2.000000        0.00089407        0.00301214        0.00008268
     141         -0.371006        2.000000        0.00061469        0.00270598        0.00006605
     142         -0.369840        2.000000        0.00079012        0.00228373        0.00005208
     143         -0.369635        2.000000        0.00003318        0.00021404        0.00000510
     144         -0.369153        2.000000        0.00002310        0.00006979        0.00000147
     145         -0.369131        2.000000        0.00223820        0.00663521        0.00014793
     146         -0.368498        2.000000        0.00003304        0.00012448        0.00000357
     147         -0.367984        2.000000        0.00013231        0.00043397        0.00001232
     148         -0.367257        2.000000        0.00000217        0.00000754        0.00000021
     149         -0.366951        2.000000        0.00000303        0.00000876        0.00000021
     150         -0.366882        2.000000        0.00019415        0.00057650        0.00001248
     151         -0.366558        2.000000        0.00005109        0.00015077        0.00000341
     152         -0.366087        2.000000        0.00002372        0.00007022        0.00000149
     153         -0.365532        2.000000        0.00000019        0.00000099        0.00000001
     154         -0.365292        2.000000        0.00003018        0.00008931        0.00000181
     155         -0.364873        2.000000        0.00009757        0.00029728        0.00000555
     156         -0.364499        2.000000        0.00001242        0.00003962        0.00000072
     157         -0.364385        2.000000        0.00046546        0.00137117        0.00002790
     158         -0.363409        2.000000        0.00000065        0.00000485        0.00000004
     159         -0.362731        2.000000        0.00088380        0.00270802        0.00005087
     160         -0.361690        2.000000        0.00003326        0.00015298        0.00000211
     161         -0.361463        2.000000        0.00173859        0.00537319        0.00009944
     162         -0.360695        2.000000        0.00000074        0.00000250        0.00000004
     163         -0.359909        2.000000        0.00000076        0.00000505        0.00000005
     164         -0.358869        2.000000        0.00005195        0.00016493        0.00000272
     165         -0.358762        2.000000        0.00008650        0.00040847        0.00000348
     166         -0.358424        2.000000        0.00001789        0.00005760        0.00000124
     167         -0.357749        2.000000        0.00676354        0.02133554        0.00037331
     168         -0.357432        2.000000        0.00004726        0.00014936        0.00000273
     169         -0.356226        2.000000        0.00005390        0.00017187        0.00000291
     170         -0.355206        2.000000        0.00000662        0.00005634        0.00000116
     171         -0.354151        2.000000        0.00001578        0.00004937        0.00000122
     172         -0.353675        2.000000        0.00003397        0.00011347        0.00000198
     173         -0.353241        2.000000        0.00000004        0.00000258        0.00000009
     174         -0.352384        2.000000        0.00000566        0.00001761        0.00000034
     175         -0.349281        2.000000        0.00000749        0.00002507        0.00000033
     176         -0.348101        2.000000        0.00001167        0.00005958        0.00000024
     177         -0.347056        2.000000        0.00001376        0.00004147        0.00000051
     178         -0.346421        2.000000        0.00000410        0.00001005        0.00000031
     179         -0.346099        2.000000        0.00002272        0.00012086        0.00000078
     180         -0.344626        2.000000        0.00000034        0.00000170        0.00000002
     181         -0.344227        2.000000        0.00000630        0.00003215        0.00000014
     182         -0.344158        2.000000        0.00000029        0.00000153        0.00000001
     183         -0.343279        2.000000        0.00000028        0.00000164        0.00000001
     184         -0.342186        2.000000        0.00000261        0.00001265        0.00000009
     185         -0.341638        2.000000        0.00000007        0.00000038        0.00000000
     186         -0.341223        2.000000        0.00000059        0.00000240        0.00000003
     187         -0.341051        2.000000        0.00005079        0.00027030        0.00000185
     188         -0.340810        2.000000        0.00000020        0.00000062        0.00000001
     189         -0.340344        2.000000        0.00000196        0.00000999        0.00000007
     190         -0.340103        2.000000        0.00019433        0.00105513        0.00000604
     191         -0.339538        2.000000        0.00001356        0.00006890        0.00000034
     192         -0.338904        2.000000        0.00000041        0.00000190        0.00000002
     193         -0.338737        2.000000        0.00003302        0.00015376        0.00000079
     194         -0.337951        2.000000        0.00005229        0.00022610        0.00000220
     195         -0.337180        2.000000        0.00003271        0.00008808        0.00000170
     196         -0.336960        2.000000        0.00001579        0.00006105        0.00000097
     197         -0.336163        2.000000        0.00005014        0.00012008        0.00000603
     198         -0.335733        2.000000        0.00003454        0.00015727        0.00000449
     199         -0.334956        2.000000        0.00000283        0.00001016        0.00000014
     200         -0.333834        2.000000        0.00002257        0.00009775        0.00000043
     201         -0.331670        2.000000        0.00000034        0.00001355        0.00000024
     202         -0.330715        2.000000        0.00000453        0.00002369        0.00000025
     203         -0.327469        2.000000        0.00000277        0.00000980        0.00000004
     204         -0.326924        2.000000        0.00000064        0.00000280        0.00000004
     205         -0.319799        2.000000        0.00000016        0.00000095        0.00000001
     206         -0.319625        2.000000        0.00001142        0.00004479        0.00000062
     207         -0.318771        2.000000        0.00000929        0.00006798        0.00000046
     208         -0.318487        2.000000        0.00000002        0.00000007        0.00000000
     209         -0.318151        2.000000        0.00000019        0.00000098        0.00000001
     210         -0.317254        2.000000        0.00000004        0.00000016        0.00000000
     211         -0.316615        2.000000        0.00000011        0.00000064        0.00000001
     212         -0.316317        2.000000        0.00179777        0.00843656        0.00003176
     213         -0.315885        2.000000        0.00000004        0.00000031        0.00000001
     214         -0.315512        2.000000        0.00000071        0.00000368        0.00000002
     215         -0.314742        2.000000        0.00000104        0.00000582        0.00000005
     216         -0.314240        2.000000        0.00000000        0.00000001        0.00000000
     217         -0.313093        2.000000        0.00000350        0.00001747        0.00000010
     218         -0.312538        2.000000        0.00000223        0.00001143        0.00000007
     219         -0.312396        2.000000        0.00000426        0.00002105        0.00000011
     220         -0.312037        2.000000        0.00000048        0.00000248        0.00000002
     221         -0.310598        2.000000        0.00001280        0.00006231        0.00000033
     222         -0.310221        2.000000        0.00000576        0.00002790        0.00000015
     223         -0.309408        2.000000        0.00000488        0.00002320        0.00000011
     224         -0.309395        2.000000        0.00001074        0.00005132        0.00000025
     225         -0.309234        2.000000        0.00000257        0.00001215        0.00000006
     226         -0.308381        2.000000        0.00017204        0.00080855        0.00000396
     227         -0.308250        2.000000        0.00015761        0.00082211        0.00000380
     228         -0.308097        2.000000        0.00003073        0.00014444        0.00000076
     229         -0.307179        2.000000        0.00046965        0.00213664        0.00001053
     230         -0.305966        2.000000        0.00222470        0.00977911        0.00004811
     231         -0.305190        2.000000        0.02871866        0.12190547        0.00060276
     232         -0.305170        2.000000        0.00545831        0.02318172        0.00011759
     233         -0.303881        2.000000        0.00585430        0.02424919        0.00013589
     234         -0.303186        2.000000        0.00001039        0.00003772        0.00000024
     235         -0.302644        2.000000        0.00001761        0.00006310        0.00000050
     236         -0.302137        2.000000        0.00003413        0.00022588        0.00000172
     237         -0.301410        2.000000        0.00014663        0.00083517        0.00000355
     238         -0.301270        2.000000        0.00012877        0.00074608        0.00000348
     239         -0.300504        2.000000        0.01928800        0.09452184        0.00039044
     240         -0.300347        2.000000        0.00032839        0.00170518        0.00000823
     241         -0.300010        2.000000        0.00002210        0.00010374        0.00000087
     242         -0.298878        2.000000        0.00092591        0.00408137        0.00001766
     243         -0.298505        2.000000        0.00133799        0.00579179        0.00002487
     244         -0.297847        2.000000        0.00117203        0.00493827        0.00002197
     245         -0.297156        2.000000        0.00167371        0.00683779        0.00003160
     246         -0.297046        2.000000        0.00004262        0.00017861        0.00000080
     247         -0.296671        2.000000        0.00073256        0.00292736        0.00001398
     248         -0.296618        2.000000        0.00023339        0.00093198        0.00000447
     249         -0.295969        2.000000        0.00485675        0.01859394        0.00009563
     250         -0.295348        2.000000        0.00389950        0.01423232        0.00008021
     251         -0.295087        2.000000        0.00000237        0.00000833        0.00000005
     252         -0.294369        2.000000        0.00006792        0.00022683        0.00000159
     253         -0.294183        2.000000        0.00001077        0.00003427        0.00000028
     254         -0.293640        2.000000        0.00000010        0.00000145        0.00000001
     255         -0.293246        2.000000        0.00000557        0.00002123        0.00000020
     256         -0.292577        2.000000        0.00000140        0.00000670        0.00000005
     257         -0.291994        2.000000        0.00012627        0.00095005        0.00000289
     258         -0.291705        2.000000        0.00000001        0.00000023        0.00000000
     259         -0.290928        2.000000        0.00127648        0.00812720        0.00002242
     260         -0.290306        2.000000        0.00387392        0.02265445        0.00006321
     261         -0.289901        2.000000        0.01054587        0.05994437        0.00016983
     262         -0.289451        2.000000        0.00593819        0.03240326        0.00009419
     263         -0.289043        2.000000        0.00248358        0.01316977        0.00003872
     264         -0.288015        2.000000        0.00096016        0.00477298        0.00001499
     265         -0.287861        2.000000        0.00009900        0.00050832        0.00000203
     266         -0.286936        2.000000        0.00006146        0.00029756        0.00000096
     267         -0.286667        2.000000        0.00004081        0.00019372        0.00000067
     268         -0.286302        2.000000        0.00064576        0.00306873        0.00001022
     269         -0.285607        2.000000        0.00001491        0.00007431        0.00000026
     270         -0.285328        2.000000        0.00000857        0.00005964        0.00000035
     271         -0.285085        2.000000        0.00004855        0.00022731        0.00000080
     272         -0.284841        2.000000        0.00006842        0.00033106        0.00000116
     273         -0.284131        2.000000        0.00002443        0.00013233        0.00000062
     274         -0.283572        2.000000        0.00004254        0.00021008        0.00000079
     275         -0.283249        2.000000        0.00000452        0.00007333        0.00000052
     276         -0.283050        2.000000        0.00002856        0.00020330        0.00000117
     277         -0.282957        2.000000        0.00000078        0.00000501        0.00000003
     278         -0.282638        2.000000        0.00000203        0.00005359        0.00000042
     279         -0.282393        2.000000        0.00003828        0.00131901        0.00001053
     280         -0.282190        2.000000        0.00002076        0.00010222        0.00000045
     281         -0.281812        2.000000        0.00000074        0.00000384        0.00000001
     282         -0.281718        2.000000        0.00004972        0.00029974        0.00000161
     283         -0.281529        2.000000        0.00002511        0.00020163        0.00000103
     284         -0.281304        2.000000        0.00006016        0.00040562        0.00000187
     285         -0.281056        2.000000        0.00000680        0.00009292        0.00000074
     286         -0.280948        2.000000        0.00001147        0.00007960        0.00000034
     287         -0.280843        2.000000        0.00002360        0.00017421        0.00000051
     288         -0.280780        2.000000        0.00005171        0.00022235        0.00000085
     289         -0.280282        2.000000        0.00015567        0.00069050        0.00000245
     290         -0.279956        2.000000        0.00001582        0.00007127        0.00000025
     291         -0.279807        2.000000        0.00001715        0.00010754        0.00000037
     292         -0.279686        2.000000        0.00004559        0.00040064        0.00000142
     293         -0.279589        2.000000        0.00002036        0.00007498        0.00000050
     294         -0.279495        2.000000        0.00005609        0.00035388        0.00000082
     295         -0.279217        2.000000        0.00003251        0.00030955        0.00000192
     296         -0.279093        2.000000        0.00208049        0.00949061        0.00004413
     297         -0.278951        2.000000        0.00016436        0.00084327        0.00000408
     298         -0.278592        2.000000        0.00003998        0.00044032        0.00000326
     299         -0.278433        2.000000        0.00015029        0.00060977        0.00000250
     300         -0.278210        2.000000        0.00013979        0.00054499        0.00000230
     301         -0.278135        2.000000        0.00000098        0.00004822        0.00000034
     302         -0.278031        2.000000        0.00000144        0.00006343        0.00000042
     303         -0.277650        2.000000        0.00051642        0.00203041        0.00000870
     304         -0.277312        2.000000        0.00054420        0.00216919        0.00000890
     305         -0.276990        2.000000        0.00116701        0.00451092        0.00001941
     306         -0.276609        2.000000        0.00000774        0.00002985        0.00000015
     307         -0.276405        2.000000        0.00071628        0.00274578        0.00001228