# Projected DOS for list 24 of 3 atoms, at iteration step i = 0, E(Fermi) =    -0.060510 a.u.
#     MO Eigenvalue [a.u.]      Occupation                 s                 p                 d
       1         -0.895259        2.000000        0.00000000        0.00000000        0.00000000
       2         -0.868125        2.000000        0.00000019        0.00000022        0.00000001
       3         -0.864615        2.000000        0.00000013        0.00000009        0.00000000
       4         -0.857993        2.000000        0.00000126        0.00000036        0.00000000
       5         -0.853826        2.000000        0.00000458        0.00000052        0.00000001
       6         -0.850378        2.000000        0.00000041        0.00000010        0.00000000
       7         -0.848222        2.000000        0.00000150        0.00000028        0.00000001
       8         -0.847335        2.000000        0.00006166        0.00001486        0.00000012
       9         -0.842977        2.000000        0.00022706        0.00003668        0.00000030
      10         -0.841504        2.000000        0.08743364        0.01664816        0.00012685
      11         -0.840654        2.000000        0.18805074        0.03984645        0.00026146
      12         -0.839688        2.000000        0.14908162        0.03402445        0.00020518
      13         -0.839172        2.000000        0.00803365        0.00235018        0.00001076
      14         -0.838522        2.000000        0.00403940        0.00074645        0.00000628
      15         -0.837015        2.000000        0.00003461        0.00001239        0.00000004
      16         -0.832753        2.000000        0.00257230        0.00102833        0.00002712
      17         -0.832000        2.000000        0.04045725        0.00743183        0.00012859
      18         -0.831644        2.000000        0.02474450        0.00465618        0.00007538
      19         -0.830027        2.000000        0.00254826        0.00089106        0.00000312
      20         -0.829447        2.000000        0.00513638        0.00365066        0.00000907
      21         -0.828640        2.000000        0.01668334        0.00399566        0.00004634
      22         -0.828147        2.000000        0.00247901        0.00078310        0.00000406
      23         -0.827394        2.000000        0.00053792        0.00012064        0.00000185
      24         -0.826637        2.000000        0.04733209        0.01850804        0.00005885
      25         -0.825864        2.000000        0.01104448        0.00518779        0.00000862
      26         -0.825007        2.000000        0.02792035        0.01349828        0.00002684
      27         -0.824149        2.000000        0.00074119        0.00042285        0.00000065
      28         -0.823003        2.000000        0.00848247        0.00535375        0.00001102
      29         -0.821982        2.000000        0.00072336        0.00024679        0.00000132
      30         -0.820560        2.000000        0.00018553        0.00015836        0.00000041
      31         -0.820223        2.000000        0.00009238        0.00005958        0.00000083
      32         -0.820029        2.000000        0.00063785        0.00021905        0.00000995
      33         -0.819390        2.000000        0.00007542        0.00004087        0.00000121
      34         -0.818664        2.000000        0.00038092        0.00021652        0.00000047
      35         -0.817548        2.000000        0.00201217        0.00052287        0.00000777
      36         -0.816472        2.000000        0.03138747        0.00893708        0.00011848
      37         -0.815444        2.000000        0.02677916        0.00734229        0.00013461
      38         -0.814805        2.000000        0.00420101        0.00120284        0.00002114
      39         -0.814124        2.000000        0.00721657        0.00211554        0.00002629
      40         -0.813968        2.000000        0.00007279        0.00018513        0.00000535
      41         -0.813053        2.000000        0.00002755        0.00002718        0.00000014
      42         -0.812601        2.000000        0.00146702        0.00039354        0.00000649
      43         -0.811948        2.000000        0.00553899        0.00221160        0.00003831
      44         -0.811687        2.000000        0.00124696        0.00051820        0.00001850
      45         -0.810574        2.000000        0.00003400        0.00004236        0.00000076
      46         -0.809310        2.000000        0.00001501        0.00001040        0.00000037
      47         -0.808268        2.000000        0.00005002        0.00008097        0.00000360
      48         -0.807324        2.000000        0.00038591        0.00012732        0.00000279
      49         -0.806602        2.000000        0.00344489        0.00102662        0.00003331
      50         -0.806376        2.000000        0.00247655        0.00065113        0.00003327
      51         -0.806147        2.000000        0.00376505        0.00108838        0.00003454
      52         -0.804835        2.000000        0.00053625        0.00022831        0.00000189
      53         -0.804321        2.000000        0.00199943        0.00068984        0.00004709
      54         -0.803943        2.000000        0.00005072        0.00007407        0.00000070
      55         -0.803401        2.000000        0.00312999        0.00088016        0.00004199
      56         -0.802648        2.000000        0.00790522        0.00219241        0.00009071
      57         -0.801912        2.000000        0.00548355        0.00169797        0.00005368
      58         -0.801342        2.000000        0.00101886        0.00040964        0.00001639
      59         -0.800594        2.000000        0.00026476        0.00031621        0.00000347
      60         -0.799945        2.000000        0.00008029        0.00007650        0.00000571
      61         -0.799254        2.000000        0.00010035        0.00002879        0.00000061
      62         -0.798331        2.000000        0.00000275        0.00000194        0.00000010
      63         -0.797356        2.000000        0.00005469        0.00002768        0.00000028
      64         -0.795713        2.000000        0.00001898        0.00009566        0.00000101
      65         -0.795144        2.000000        0.00000157        0.00000306        0.00000012
      66         -0.794508        2.000000        0.00001798        0.00007461        0.00000090
      67         -0.793501        2.000000        0.00002597        0.00017242        0.00000132
      68         -0.792888        2.000000        0.00000249        0.00001402        0.00000101
      69         -0.792771        2.000000        0.00003743        0.00004119        0.00000034
      70         -0.792166        2.000000        0.00000948        0.00004998        0.00000169
      71         -0.791795        2.000000        0.00004020        0.00005430        0.00000020
      72         -0.790466        2.000000        0.00005628        0.00001806        0.00000106
      73         -0.789691        2.000000        0.00013042        0.00003219        0.00000182
      74         -0.789018        2.000000        0.00014552        0.00027864        0.00000171
      75         -0.788284        2.000000        0.00055705        0.00025490        0.00001431
      76         -0.787044        2.000000        0.00008723        0.00028085        0.00000247
      77         -0.785765        2.000000        0.00214402        0.00101030        0.00005418
      78         -0.783215        2.000000        0.00072341        0.00035324        0.00002421
      79         -0.782853        2.000000        0.00121380        0.00068676        0.00004922
      80         -0.782388        2.000000        0.00001733        0.00002088        0.00000118
      81         -0.781821        2.000000        0.00000380        0.00000158        0.00000011
      82         -0.780108        2.000000        0.00002263        0.00003368        0.00000005
      83         -0.778906        2.000000        0.00000086        0.00000076        0.00000002
      84         -0.778076        2.000000        0.00000004        0.00000001        0.00000000
      85         -0.775317        2.000000        0.00001640        0.00002291        0.00000007
      86         -0.773086        2.000000        0.00000862        0.00000378        0.00000034
      87         -0.772920        2.000000        0.00001361        0.00002303        0.00000012
      88         -0.771409        2.000000        0.00001921        0.00010283        0.00000244
      89         -0.769725        2.000000        0.00221128        0.01042864        0.00005108
      90         -0.769226        2.000000        0.00376047        0.00300605        0.00021710
      91         -0.767566        2.000000        0.00737566        0.00635273        0.00016282
      92         -0.766737        2.000000        0.00013251        0.00010297        0.00000352
      93         -0.755845        2.000000        0.00000428        0.00000639        0.00000009
      94         -0.752538        2.000000        0.00001493        0.00003675        0.00000172
      95         -0.747161        2.000000        0.00000000        0.00000000        0.00000000
      96         -0.736999        2.000000        0.00000033        0.00000073        0.00000002
      97         -0.726419        2.000000        0.00000000        0.00000000        0.00000000
      98         -0.719129        2.000000        0.00000000        0.00000001        0.00000000
      99         -0.696511        2.000000        0.00000000        0.00000000        0.00000000
     100         -0.460315        2.000000        0.00000000        0.00000000        0.00000000
     101         -0.427906        2.000000        0.00000080        0.00000436        0.00000011
     102         -0.424376        2.000000        0.00000000        0.00000001        0.00000000
     103         -0.405781        2.000000        0.00000003        0.00000013        0.00000000
     104         -0.401299        2.000000        0.00004197        0.00011938        0.00000218
     105         -0.398347        2.000000        0.00005249        0.00017598        0.00000296
     106         -0.398267        2.000000        0.00035004        0.00099218        0.00001805
     107         -0.397295        2.000000        0.00004903        0.00013609        0.00000255
     108         -0.395753        2.000000        0.00622748        0.01740104        0.00032197
     109         -0.395158        2.000000        0.00130240        0.00350259        0.00007145
     110         -0.394493        2.000000        0.15976511        0.44546609        0.00826928
     111         -0.394192        2.000000        0.01173267        0.03225819        0.00061800
     112         -0.393919        2.000000        0.00000049        0.00000167        0.00000008
     113         -0.393017        2.000000        0.00046080        0.00130919        0.00002371
     114         -0.391793        2.000000        0.02755765        0.07954138        0.00139650
     115         -0.389280        2.000000        0.00005981        0.00016153        0.00000344
     116         -0.388145        2.000000        0.00002347        0.00007170        0.00000117
     117         -0.387090        2.000000        0.00146990        0.00396420        0.00008068
     118         -0.386138        2.000000        0.00003025        0.00008238        0.00000169
     119         -0.385161        2.000000        0.00018443        0.00047978        0.00001078
     120         -0.384984        2.000000        0.00245563        0.00650817        0.00014180
     121         -0.383823        2.000000        0.00006048        0.00016986        0.00000311
     122         -0.383101        2.000000        0.00006623        0.00019755        0.00000367
     123         -0.383025        2.000000        0.00042626        0.00117206        0.00002574
     124         -0.381208        2.000000        0.00001047        0.00004040        0.00000101
     125         -0.380660        2.000000        0.00110998        0.00364908        0.00008613
     126         -0.380323        2.000000        0.00437098        0.01448603        0.00033832
     127         -0.379623        2.000000        0.00085998        0.00268669        0.00005945
     128         -0.379161        2.000000        0.00043889        0.00124549        0.00002904
     129         -0.378115        2.000000        0.00182419        0.00665113        0.00014450
     130         -0.377757        2.000000        0.00050311        0.00256668        0.00005029
     131         -0.377213        2.000000        0.00007332        0.00059068        0.00001006
     132         -0.376655        2.000000        0.00007280        0.00046371        0.00000703
     133         -0.376089        2.000000        0.00318511        0.01634704        0.00031450
     134         -0.375522        2.000000        0.01235739        0.04024570        0.00091490
     135         -0.373953        2.000000        0.00191799        0.00842098        0.00017167
     136         -0.373564        2.000000        0.00524272        0.01508665        0.00034937
     137         -0.372991        2.000000        0.00119088        0.00386665        0.00009482
     138         -0.372433        2.000000        0.00011730        0.00034449        0.00000772
     139         -0.372037        2.000000        0.00099284        0.00303151        0.00006942
     140         -0.371632        2.000000        0.00030461        0.00121691        0.00002547
     141         -0.371006        2.000000        0.00013726        0.00048008        0.00001125
     142         -0.369840        2.000000        0.00018438        0.00050794        0.00001245
     143         -0.369635        2.000000        0.00114419        0.00307551        0.00007669
     144         -0.369153        2.000000        0.00013636        0.00044279        0.00001140
     145         -0.369131        2.000000        0.00038842        0.00118723        0.00002404
     146         -0.368498        2.000000        0.00013918        0.00042327        0.00000847
     147         -0.367984        2.000000        0.00008360        0.00089072        0.00001190
     148         -0.367257        2.000000        0.00001680        0.00004058        0.00000099
     149         -0.366951        2.000000        0.00040957        0.00168754        0.00004372
     150         -0.366882        2.000000        0.00102556        0.00312291        0.00007082
     151         -0.366558        2.000000        0.00016185        0.00142217        0.00001735
     152         -0.366087        2.000000        0.00040560        0.00145542        0.00003772
     153         -0.365532        2.000000        0.00056482        0.00559746        0.00008910
     154         -0.365292        2.000000        0.00327714        0.02742568        0.00051170
     155         -0.364873        2.000000        0.00011404        0.00072392        0.00001006
     156         -0.364499        2.000000        0.00088239        0.00892670        0.00013738
     157         -0.364385        2.000000        0.00008534        0.00066154        0.00001369
     158         -0.363409        2.000000        0.00000141        0.00001183        0.00000026
     159         -0.362731        2.000000        0.00007444        0.00049298        0.00001106
     160         -0.361690        2.000000        0.00001752        0.00008522        0.00000138
     161         -0.361463        2.000000        0.00006059        0.00051018        0.00000907
     162         -0.360695        2.000000        0.00380131        0.02706597        0.00050049
     163         -0.359909        2.000000        0.00001144        0.00008648        0.00000066
     164         -0.358869        2.000000        0.00018515        0.00156711        0.00002051
     165         -0.358762        2.000000        0.00000758        0.00006226        0.00000084
     166         -0.358424        2.000000        0.00030394        0.00132267        0.00001593
     167         -0.357749        2.000000        0.00003836        0.00018733        0.00000258
     168         -0.357432        2.000000        0.00000407        0.00002104        0.00000042
     169         -0.356226        2.000000        0.00048548        0.00480861        0.00005960
     170         -0.355206        2.000000        0.00000579        0.00002734        0.00000109
     171         -0.354151        2.000000        0.00003070        0.00014361        0.00000486
     172         -0.353675        2.000000        0.00030137        0.00307003        0.00008216
     173         -0.353241        2.000000        0.00010996        0.00028030        0.00000692
     174         -0.352384        2.000000        0.00004706        0.00040245        0.00000896
     175         -0.349281        2.000000        0.00056343        0.00214885        0.00002767
     176         -0.348101        2.000000        0.00008734        0.00301351        0.00005879
     177         -0.347056        2.000000        0.00016817        0.00085054        0.00001322
     178         -0.346421        2.000000        0.00013197        0.00104850        0.00001471
     179         -0.346099        2.000000        0.00103159        0.00630515        0.00015149
     180         -0.344626        2.000000        0.00005819        0.00054845        0.00000309
     181         -0.344227        2.000000        0.00003043        0.00024591        0.00000563
     182         -0.344158        2.000000        0.00024046        0.00093944        0.00001602
     183         -0.343279        2.000000        0.00008589        0.00037732        0.00000649
     184         -0.342186        2.000000        0.00011010        0.00045483        0.00000635
     185         -0.341638        2.000000        0.00000352        0.00009113        0.00000079
     186         -0.341223        2.000000        0.00002065        0.00013086        0.00000174
     187         -0.341051        2.000000        0.00000102        0.00000333        0.00000006
     188         -0.340810        2.000000        0.00002254        0.00020009        0.00000279
     189         -0.340344        2.000000        0.00001308        0.00012181        0.00000177
     190         -0.340103        2.000000        0.00005401        0.00046299        0.00001021
     191         -0.339538        2.000000        0.00000334        0.00011110        0.00000169
     192         -0.338904        2.000000        0.00000709        0.00002153        0.00000004
     193         -0.338737        2.000000        0.00000751        0.00003032        0.00000071
     194         -0.337951        2.000000        0.00000145        0.00001988        0.00000037
     195         -0.337180        2.000000        0.00000413        0.00001175        0.00000029
     196         -0.336960        2.000000        0.00001162        0.00007021        0.00000073
     197         -0.336163        2.000000        0.00000159        0.00000837        0.00000014
     198         -0.335733        2.000000        0.00000106        0.00000348        0.00000007
     199         -0.334956        2.000000        0.00070161        0.00860885        0.00014592
     200         -0.333834        2.000000        0.00003604        0.00009810        0.00000196
     201         -0.331670        2.000000        0.00000608        0.00008694        0.00000159
     202         -0.330715        2.000000        0.00218189        0.02076943        0.00038433
     203         -0.327469        2.000000        0.00004452        0.00049946        0.00000860
     204         -0.326924        2.000000        0.00001731        0.00009158        0.00000190
     205         -0.319799        2.000000        0.00000640        0.00004047        0.00000050
     206         -0.319625        2.000000        0.00000441        0.00005813        0.00000094
     207         -0.318771        2.000000        0.00062379        0.00808870        0.00013128
     208         -0.318487        2.000000        0.00000724        0.00004886        0.00000064
     209         -0.318151        2.000000        0.00000971        0.00005537        0.00000060
     210         -0.317254        2.000000        0.00000113        0.00000811        0.00000013
     211         -0.316615        2.000000        0.00000255        0.00003366        0.00000023
     212         -0.316317        2.000000        0.00000102        0.00001185        0.00000022
     213         -0.315885        2.000000        0.00002874        0.00024429        0.00000216
     214         -0.315512        2.000000        0.00001103        0.00007577        0.00000076
     215         -0.314742        2.000000        0.00002830        0.00021539        0.00000198
     216         -0.314240        2.000000        0.00000195        0.00000653        0.00000013
     217         -0.313093        2.000000        0.00006216        0.00054779        0.00000468
     218         -0.312538        2.000000        0.00001512        0.00005145        0.00000077
     219         -0.312396        2.000000        0.00009607        0.00078524        0.00000673
     220         -0.312037        2.000000        0.00000538        0.00003164        0.00000033
     221         -0.310598        2.000000        0.00000382        0.00001930        0.00000027
     222         -0.310221        2.000000        0.00005158        0.00036211        0.00000317
     223         -0.309408        2.000000        0.00001172        0.00009337        0.00000077
     224         -0.309395        2.000000        0.00002922        0.00020536        0.00000170
     225         -0.309234        2.000000        0.00004191        0.00031191        0.00000251
     226         -0.308381        2.000000        0.00000121        0.00000691        0.00000006
     227         -0.308250        2.000000        0.00000204        0.00009305        0.00000065
     228         -0.308097        2.000000        0.00000023        0.00000374        0.00000002
     229         -0.307179        2.000000        0.00001193        0.00007675        0.00000067
     230         -0.305966        2.000000        0.00109484        0.00773381        0.00006216
     231         -0.305190        2.000000        0.00010160        0.00067095        0.00000617
     232         -0.305170        2.000000        0.00002548        0.00018337        0.00000119
     233         -0.303881        2.000000        0.00000127        0.00001965        0.00000009
     234         -0.303186        2.000000        0.00001798        0.00014974        0.00000110
     235         -0.302644        2.000000        0.00000463        0.00001951        0.00000023
     236         -0.302137        2.000000        0.00017069        0.00134639        0.00001017
     237         -0.301410        2.000000        0.00000307        0.00001066        0.00000019
     238         -0.301270        2.000000        0.00000522        0.00003787        0.00000038
     239         -0.300504        2.000000        0.00007866        0.00062908        0.00000450
     240         -0.300347        2.000000        0.00011070        0.00088707        0.00000570
     241         -0.300010        2.000000        0.00000021        0.00000797        0.00000003
     242         -0.298878        2.000000        0.00000417        0.00003000        0.00000022
     243         -0.298505        2.000000        0.00003944        0.00029597        0.00000192
     244         -0.297847        2.000000        0.00001166        0.00009425        0.00000052
     245         -0.297156        2.000000        0.00004363        0.00036567        0.00000231
     246         -0.297046        2.000000        0.00001127        0.00006838        0.00000049
     247         -0.296671        2.000000        0.00012906        0.00105636        0.00000689
     248         -0.296618        2.000000        0.00000077        0.00000713        0.00000005
     249         -0.295969        2.000000        0.00009034        0.00072378        0.00000423
     250         -0.295348        2.000000        0.00002467        0.00019598        0.00000119
     251         -0.295087        2.000000        0.00000917        0.00007579        0.00000051
     252         -0.294369        2.000000        0.00000897        0.00007788        0.00000047
     253         -0.294183        2.000000        0.00001432        0.00010470        0.00000065
     254         -0.293640        2.000000        0.00012303        0.00101697        0.00000607
     255         -0.293246        2.000000        0.00000801        0.00006444        0.00000035
     256         -0.292577        2.000000        0.00001004        0.00006901        0.00000047
     257         -0.291994        2.000000        0.00062763        0.00514611        0.00003093
     258         -0.291705        2.000000        0.00016410        0.00127814        0.00000804
     259         -0.290928        2.000000        0.00000250        0.00003574        0.00000018
     260         -0.290306        2.000000        0.00010304        0.00087373        0.00000471
     261         -0.289901        2.000000        0.00039716        0.00310770        0.00001804
     262         -0.289451        2.000000        0.00012556        0.00102978        0.00000616
     263         -0.289043        2.000000        0.00015572        0.00118126        0.00000716
     264         -0.288015        2.000000        0.00104136        0.00837340        0.00004974
     265         -0.287861        2.000000        0.01031694        0.08276401        0.00047558
     266         -0.286936        2.000000        0.00005759        0.00043193        0.00000235
     267         -0.286667        2.000000        0.00011652        0.00098045        0.00000593
     268         -0.286302        2.000000        0.00001731        0.00014376        0.00000065
     269         -0.285607        2.000000        0.00007588        0.00064234        0.00000345
     270         -0.285328        2.000000        0.00025298        0.00205111        0.00001164
     271         -0.285085        2.000000        0.00018565        0.00142374        0.00000767
     272         -0.284841        2.000000        0.00000356        0.00002900        0.00000013
     273         -0.284131        2.000000        0.00013555        0.00101933        0.00000553
     274         -0.283572        2.000000        0.00011267        0.00080327        0.00000421
     275         -0.283249        2.000000        0.00009362        0.00073046        0.00000388
     276         -0.283050        2.000000        0.00003903        0.00027323        0.00000162
     277         -0.282957        2.000000        0.00022427        0.00169087        0.00000893
     278         -0.282638        2.000000        0.00000232        0.00002637        0.00000011
     279         -0.282393        2.000000        0.00003520        0.00039567        0.00000132
     280         -0.282190        2.000000        0.00000113        0.00000426        0.00000002
     281         -0.281812        2.000000        0.00000408        0.00002842        0.00000015
     282         -0.281718        2.000000        0.00002317        0.00014687        0.00000088
     283         -0.281529        2.000000        0.00008014        0.00057539        0.00000337
     284         -0.281304        2.000000        0.00000432        0.00005478        0.00000020
     285         -0.281056        2.000000        0.00009123        0.00062592        0.00000409
     286         -0.280948        2.000000        0.00004106        0.00029762        0.00000140
     287         -0.280843        2.000000        0.00001047        0.00014562        0.00000061
     288         -0.280780        2.000000        0.00001078        0.00008184        0.00000039
     289         -0.280282        2.000000        0.00001563        0.00013018        0.00000057
     290         -0.279956        2.000000        0.00000674        0.00004709        0.00000023
     291         -0.279807        2.000000        0.00000146        0.00000644        0.00000007
     292         -0.279686        2.000000        0.00008236        0.00050727        0.00000287
     293         -0.279589        2.000000        0.00000233        0.00001767        0.00000011
     294         -0.279495        2.000000        0.00000518        0.00004749        0.00000014
     295         -0.279217        2.000000        0.00000015        0.00000196        0.00000001
     296         -0.279093        2.000000        0.00000899        0.00004787        0.00000074
     297         -0.278951        2.000000        0.00003716        0.00021460        0.00000135
     298         -0.278592        2.000000        0.00004830        0.00039051        0.00000200
     299         -0.278433        2.000000        0.00016811        0.00133497        0.00000583
     300         -0.278210        2.000000        0.00001763        0.00011463        0.00000057
     301         -0.278135        2.000000        0.00008474        0.00061440        0.00000315
     302         -0.278031        2.000000        0.00018534        0.00137289        0.00000693
     303         -0.277650        2.000000        0.00000062        0.00002663        0.00000004
     304         -0.277312        2.000000        0.00002350        0.00014533        0.00000087
     305         -0.276990        2.000000        0.00043407        0.00283512        0.00001608
     306         -0.276609        2.000000        0.00000477        0.00004743        0.00000018
     307         -0.276405        2.000000        0.00019665        0.00133018        0.00000812