# Projected DOS for list 8 of 3 atoms, at iteration step i = 0, E(Fermi) =    -0.060510 a.u.
#     MO Eigenvalue [a.u.]      Occupation                 s                 p                 d
       1         -0.895259        2.000000        0.00009267        0.00020462        0.00000032
       2         -0.868125        2.000000        0.00018195        0.00023810        0.00000110
       3         -0.864615        2.000000        0.00000509        0.00007220        0.00000016
       4         -0.857993        2.000000        0.00000027        0.00000029        0.00000000
       5         -0.853826        2.000000        0.00000029        0.00000019        0.00000000
       6         -0.850378        2.000000        0.00000683        0.00000686        0.00000011
       7         -0.848222        2.000000        0.00000925        0.00001653        0.00000006
       8         -0.847335        2.000000        0.00000006        0.00000007        0.00000000
       9         -0.842977        2.000000        0.02246487        0.00842110        0.00006045
      10         -0.841504        2.000000        0.00002196        0.00005947        0.00000234
      11         -0.840654        2.000000        0.00005268        0.00004288        0.00000097
      12         -0.839688        2.000000        0.00013308        0.00002416        0.00000025
      13         -0.839172        2.000000        0.00000010        0.00000061        0.00000004
      14         -0.838522        2.000000        0.00001110        0.00000368        0.00000002
      15         -0.837015        2.000000        0.00003819        0.00001305        0.00000013
      16         -0.832753        2.000000        0.00450235        0.00122687        0.00000755
      17         -0.832000        2.000000        0.00008769        0.00001256        0.00000008
      18         -0.831644        2.000000        0.00000725        0.00002107        0.00000023
      19         -0.830027        2.000000        0.01585569        0.00384681        0.00000699
      20         -0.829447        2.000000        0.01737755        0.00408471        0.00001534
      21         -0.828640        2.000000        0.01552237        0.00421156        0.00001383
      22         -0.828147        2.000000        0.00700035        0.00150943        0.00000224
      23         -0.827394        2.000000        0.00928659        0.00176923        0.00000533
      24         -0.826637        2.000000        0.00201497        0.00046379        0.00000285
      25         -0.825864        2.000000        0.00043072        0.00022293        0.00000059
      26         -0.825007        2.000000        0.17520964        0.04353978        0.00009499
      27         -0.824149        2.000000        0.00392624        0.00100285        0.00000173
      28         -0.823003        2.000000        0.03725435        0.01028259        0.00002321
      29         -0.821982        2.000000        0.00049052        0.00012527        0.00000096
      30         -0.820560        2.000000        0.05434427        0.01266588        0.00006772
      31         -0.820223        2.000000        0.04245084        0.01049203        0.00004333
      32         -0.820029        2.000000        0.02040916        0.00436902        0.00003865
      33         -0.819390        2.000000        0.10204368        0.02003750        0.00019109
      34         -0.818664        2.000000        0.00944590        0.00206509        0.00001562
      35         -0.817548        2.000000        0.00143338        0.00041912        0.00000181
      36         -0.816472        2.000000        0.00506239        0.00113319        0.00001074
      37         -0.815444        2.000000        0.00142355        0.00045467        0.00000474
      38         -0.814805        2.000000        0.03497191        0.00821478        0.00011121
      39         -0.814124        2.000000        0.00252832        0.00087032        0.00000433
      40         -0.813968        2.000000        0.00214366        0.00073942        0.00000353
      41         -0.813053        2.000000        0.00012172        0.00002382        0.00000042
      42         -0.812601        2.000000        0.00549106        0.00094582        0.00001973
      43         -0.811948        2.000000        0.00025982        0.00009850        0.00000041
      44         -0.811687        2.000000        0.00039969        0.00018531        0.00000046
      45         -0.810574        2.000000        0.00400577        0.00092973        0.00001237
      46         -0.809310        2.000000        0.00236329        0.00220841        0.00000315
      47         -0.808268        2.000000        0.00366940        0.00069493        0.00001709
      48         -0.807324        2.000000        0.00587936        0.00140147        0.00002608
      49         -0.806602        2.000000        0.00075755        0.00025573        0.00000447
      50         -0.806376        2.000000        0.00797047        0.00209786        0.00005346
      51         -0.806147        2.000000        0.00013186        0.00091040        0.00000993
      52         -0.804835        2.000000        0.00035451        0.00009638        0.00000563
      53         -0.804321        2.000000        0.00034822        0.00009797        0.00000309
      54         -0.803943        2.000000        0.00154042        0.00047299        0.00000630
      55         -0.803401        2.000000        0.00025379        0.00006028        0.00000143
      56         -0.802648        2.000000        0.00025356        0.00006424        0.00000120
      57         -0.801912        2.000000        0.00288430        0.00062073        0.00001876
      58         -0.801342        2.000000        0.00018564        0.00003557        0.00000198
      59         -0.800594        2.000000        0.00066717        0.00017267        0.00001388
      60         -0.799945        2.000000        0.00170026        0.00160892        0.00005377
      61         -0.799254        2.000000        0.04717570        0.00986353        0.00048625
      62         -0.798331        2.000000        0.00031010        0.00010386        0.00000405
      63         -0.797356        2.000000        0.00091625        0.00067986        0.00001968
      64         -0.795713        2.000000        0.00002016        0.00002897        0.00000024
      65         -0.795144        2.000000        0.04147667        0.03062743        0.00012430
      66         -0.794508        2.000000        0.00038089        0.00025539        0.00000101
      67         -0.793501        2.000000        0.00754699        0.00320129        0.00003687
      68         -0.792888        2.000000        0.00284188        0.00127479        0.00001452
      69         -0.792771        2.000000        0.01651675        0.00593819        0.00011024
      70         -0.792166        2.000000        0.00237514        0.00068900        0.00001601
      71         -0.791795        2.000000        0.00149724        0.00045513        0.00001061
      72         -0.790466        2.000000        0.00316212        0.00097364        0.00002557
      73         -0.789691        2.000000        0.00001223        0.00001118        0.00000002
      74         -0.789018        2.000000        0.00000315        0.00000256        0.00000006
      75         -0.788284        2.000000        0.00100114        0.00107262        0.00000189
      76         -0.787044        2.000000        0.00001953        0.00002744        0.00000074
      77         -0.785765        2.000000        0.00021891        0.00072932        0.00000225
      78         -0.783215        2.000000        0.00182434        0.00249207        0.00000228
      79         -0.782853        2.000000        0.00476920        0.00668521        0.00000519
      80         -0.782388        2.000000        0.00001408        0.00005688        0.00000024
      81         -0.781821        2.000000        0.00001895        0.00002748        0.00000001
      82         -0.780108        2.000000        0.00002931        0.00001128        0.00000023
      83         -0.778906        2.000000        0.00003703        0.00001489        0.00000007
      84         -0.778076        2.000000        0.00000150        0.00000129        0.00000001
      85         -0.775317        2.000000        0.00000606        0.00000130        0.00000012
      86         -0.773086        2.000000        0.00002196        0.00001137        0.00000058
      87         -0.772920        2.000000        0.00000733        0.00000496        0.00000005
      88         -0.771409        2.000000        0.00070767        0.00027643        0.00001644
      89         -0.769725        2.000000        0.00013130        0.00016953        0.00000033
      90         -0.769226        2.000000        0.00085531        0.00129384        0.00000188
      91         -0.767566        2.000000        0.00040807        0.00067838        0.00000129
      92         -0.766737        2.000000        0.00000756        0.00001688        0.00000009
      93         -0.755845        2.000000        0.00013950        0.00068179        0.00000178
      94         -0.752538        2.000000        0.00001728        0.00005153        0.00000028
      95         -0.747161        2.000000        0.00000317        0.00000119        0.00000005
      96         -0.736999        2.000000        0.00000022        0.00000101        0.00000001
      97         -0.726419        2.000000        0.00000005        0.00000004        0.00000000
      98         -0.719129        2.000000        0.00000037        0.00000275        0.00000001
      99         -0.696511        2.000000        0.00000119        0.00000647        0.00000002
     100         -0.460315        2.000000        0.00000687        0.00003399        0.00000051
     101         -0.427906        2.000000        0.00000758        0.00007878        0.00000017
     102         -0.424376        2.000000        0.00000774        0.00002699        0.00000064
     103         -0.405781        2.000000        0.00000066        0.00000368        0.00000004
     104         -0.401299        2.000000        0.00000006        0.00000030        0.00000000
     105         -0.398347        2.000000        0.00000422        0.00002009        0.00000017
     106         -0.398267        2.000000        0.00004719        0.00021824        0.00000191
     107         -0.397295        2.000000        0.00327337        0.01468242        0.00013573
     108         -0.395753        2.000000        0.00001043        0.00003995        0.00000058
     109         -0.395158        2.000000        0.00000121        0.00001428        0.00000032
     110         -0.394493        2.000000        0.00000034        0.00001253        0.00000006
     111         -0.394192        2.000000        0.00001504        0.00010728        0.00000271
     112         -0.393919        2.000000        0.00011032        0.00082093        0.00001775
     113         -0.393017        2.000000        0.00000327        0.00002371        0.00000014
     114         -0.391793        2.000000        0.00000553        0.00002114        0.00000027
     115         -0.389280        2.000000        0.00000638        0.00002924        0.00000032
     116         -0.388145        2.000000        0.00596384        0.02447644        0.00025498
     117         -0.387090        2.000000        0.00000063        0.00000470        0.00000005
     118         -0.386138        2.000000        0.00005424        0.00026016        0.00000212
     119         -0.385161        2.000000        0.00001422        0.00004705        0.00000135
     120         -0.384984        2.000000        0.00000330        0.00001216        0.00000014
     121         -0.383823        2.000000        0.00000865        0.00007819        0.00000146
     122         -0.383101        2.000000        0.00012513        0.00095328        0.00001795
     123         -0.383025        2.000000        0.00000809        0.00008580        0.00000156
     124         -0.381208        2.000000        0.00001780        0.00010912        0.00000128
     125         -0.380660        2.000000        0.00000775        0.00003405        0.00000086
     126         -0.380323        2.000000        0.00002598        0.00008501        0.00000191
     127         -0.379623        2.000000        0.00015427        0.00058469        0.00000797
     128         -0.379161        2.000000        0.00000089        0.00004256        0.00000018
     129         -0.378115        2.000000        0.00036875        0.00184749        0.00002506
     130         -0.377757        2.000000        0.00013979        0.00071024        0.00001064
     131         -0.377213        2.000000        0.00028697        0.00117991        0.00002269
     132         -0.376655        2.000000        0.00062724        0.00278662        0.00005674
     133         -0.376089        2.000000        0.00196639        0.00810240        0.00014505
     134         -0.375522        2.000000        0.00569700        0.02296055        0.00040438
     135         -0.373953        2.000000        0.00490677        0.01449627        0.00030959
     136         -0.373564        2.000000        0.00319910        0.00980536        0.00020094
     137         -0.372991        2.000000        0.00833777        0.02438546        0.00051941
     138         -0.372433        2.000000        0.04876733        0.13956273        0.00306599
     139         -0.372037        2.000000        0.00424795        0.01192275        0.00028173
     140         -0.371632        2.000000        0.00992566        0.02786492        0.00064456
     141         -0.371006        2.000000        0.00536931        0.01590399        0.00036354
     142         -0.369840        2.000000        0.00269450        0.00774102        0.00017245
     143         -0.369635        2.000000        0.00267476        0.00805319        0.00018108
     144         -0.369153        2.000000        0.00006948        0.00020839        0.00000578
     145         -0.369131        2.000000        0.00002454        0.00013446        0.00000836
     146         -0.368498        2.000000        0.00002406        0.00024803        0.00000418
     147         -0.367984        2.000000        0.00003745        0.00042519        0.00000849
     148         -0.367257        2.000000        0.00000915        0.00002797        0.00000074
     149         -0.366951        2.000000        0.00001908        0.00008509        0.00000219
     150         -0.366882        2.000000        0.00054105        0.00271208        0.00004277
     151         -0.366558        2.000000        0.00002490        0.00018036        0.00000211
     152         -0.366087        2.000000        0.00002821        0.00010813        0.00000228
     153         -0.365532        2.000000        0.00000875        0.00061556        0.00000477
     154         -0.365292        2.000000        0.00002168        0.00008716        0.00000396
     155         -0.364873        2.000000        0.00042330        0.00283714        0.00005734
     156         -0.364499        2.000000        0.00008186        0.00040367        0.00000915
     157         -0.364385        2.000000        0.00051552        0.00655272        0.00013193
     158         -0.363409        2.000000        0.00011391        0.00034611        0.00000798
     159         -0.362731        2.000000        0.00898108        0.02847695        0.00054055
     160         -0.361690        2.000000        0.00014206        0.00039285        0.00001107
     161         -0.361463        2.000000        0.02597184        0.07822216        0.00152308
     162         -0.360695        2.000000        0.00007526        0.00020538        0.00000675
     163         -0.359909        2.000000        0.02754436        0.08005819        0.00168783
     164         -0.358869        2.000000        0.00109800        0.00340600        0.00007238
     165         -0.358762        2.000000        0.00018226        0.00052133        0.00001121
     166         -0.358424        2.000000        0.00020185        0.00060525        0.00001121
     167         -0.357749        2.000000        0.00476734        0.01395720        0.00027695
     168         -0.357432        2.000000        0.01057519        0.03614588        0.00070038
     169         -0.356226        2.000000        0.00004654        0.00014334        0.00000259
     170         -0.355206        2.000000        0.00067434        0.00316244        0.00013226
     171         -0.354151        2.000000        0.00058769        0.00172633        0.00003249
     172         -0.353675        2.000000        0.00935269        0.02815672        0.00048952
     173         -0.353241        2.000000        0.00020150        0.00073419        0.00002487
     174         -0.352384        2.000000        0.00879507        0.04251972        0.00140199
     175         -0.349281        2.000000        0.00018404        0.00056109        0.00000981
     176         -0.348101        2.000000        0.01200804        0.03617033        0.00069922
     177         -0.347056        2.000000        0.00036912        0.00104468        0.00002091
     178         -0.346421        2.000000        0.00083118        0.00247717        0.00004873
     179         -0.346099        2.000000        0.01321135        0.03921792        0.00076087
     180         -0.344626        2.000000        0.00000158        0.00000966        0.00000012
     181         -0.344227        2.000000        0.00305298        0.00806854        0.00023016
     182         -0.344158        2.000000        0.00001891        0.00006086        0.00000083
     183         -0.343279        2.000000        0.00027468        0.00078274        0.00001694
     184         -0.342186        2.000000        0.00002914        0.00007899        0.00000201
     185         -0.341638        2.000000        0.00000855        0.00002415        0.00000055
     186         -0.341223        2.000000        0.00000783        0.00003132        0.00000053
     187         -0.341051        2.000000        0.00029068        0.00073397        0.00002464
     188         -0.340810        2.000000        0.00000298        0.00000946        0.00000024
     189         -0.340344        2.000000        0.00003584        0.00009784        0.00000230
     190         -0.340103        2.000000        0.00038237        0.00118079        0.00002128
     191         -0.339538        2.000000        0.00002750        0.00008836        0.00000171
     192         -0.338904        2.000000        0.00001387        0.00003938        0.00000082
     193         -0.338737        2.000000        0.00000588        0.00002548        0.00000058
     194         -0.337951        2.000000        0.00000294        0.00000966        0.00000005
     195         -0.337180        2.000000        0.00000557        0.00001637        0.00000035
     196         -0.336960        2.000000        0.00000992        0.00003769        0.00000063
     197         -0.336163        2.000000        0.00000297        0.00002225        0.00000014
     198         -0.335733        2.000000        0.00000986        0.00004118        0.00000096
     199         -0.334956        2.000000        0.00001821        0.00026851        0.00000251
     200         -0.333834        2.000000        0.00021022        0.00057048        0.00001185
     201         -0.331670        2.000000        0.00004555        0.00012690        0.00000226
     202         -0.330715        2.000000        0.00573542        0.01706916        0.00028950
     203         -0.327469        2.000000        0.00003979        0.00013882        0.00000184
     204         -0.326924        2.000000        0.00000305        0.00001175        0.00000014
     205         -0.319799        2.000000        0.00000265        0.00000700        0.00000015
     206         -0.319625        2.000000        0.00014176        0.00042077        0.00001375
     207         -0.318771        2.000000        0.00006718        0.00042194        0.00000345
     208         -0.318487        2.000000        0.00000007        0.00000035        0.00000000
     209         -0.318151        2.000000        0.00000083        0.00000255        0.00000005
     210         -0.317254        2.000000        0.00000072        0.00000232        0.00000004
     211         -0.316615        2.000000        0.00000086        0.00000259        0.00000005
     212         -0.316317        2.000000        0.00000093        0.00000914        0.00000030
     213         -0.315885        2.000000        0.00000033        0.00000101        0.00000002
     214         -0.315512        2.000000        0.00000003        0.00000016        0.00000000
     215         -0.314742        2.000000        0.00000027        0.00000087        0.00000002
     216         -0.314240        2.000000        0.00000000        0.00000000        0.00000000
     217         -0.313093        2.000000        0.00000025        0.00000089        0.00000002
     218         -0.312538        2.000000        0.00000033        0.00000106        0.00000002
     219         -0.312396        2.000000        0.00000004        0.00000021        0.00000000
     220         -0.312037        2.000000        0.00000012        0.00000038        0.00000001
     221         -0.310598        2.000000        0.00000044        0.00000164        0.00000003
     222         -0.310221        2.000000        0.00000013        0.00000064        0.00000001
     223         -0.309408        2.000000        0.00000002        0.00000012        0.00000000
     224         -0.309395        2.000000        0.00000017        0.00000069        0.00000001
     225         -0.309234        2.000000        0.00000038        0.00000115        0.00000002
     226         -0.308381        2.000000        0.00000150        0.00000909        0.00000012
     227         -0.308250        2.000000        0.00000915        0.00003568        0.00000053
     228         -0.308097        2.000000        0.00000013        0.00000084        0.00000000
     229         -0.307179        2.000000        0.00000060        0.00000739        0.00000008
     230         -0.305966        2.000000        0.00000058        0.00001524        0.00000010
     231         -0.305190        2.000000        0.00021743        0.00127133        0.00001373
     232         -0.305170        2.000000        0.00087083        0.00744930        0.00009686
     233         -0.303881        2.000000        0.00005935        0.00031753        0.00000371
     234         -0.303186        2.000000        0.00000030        0.00000113        0.00000001
     235         -0.302644        2.000000        0.00000083        0.00000445        0.00000003
     236         -0.302137        2.000000        0.00000921        0.00004261        0.00000037
     237         -0.301410        2.000000        0.00000754        0.00003516        0.00000033
     238         -0.301270        2.000000        0.00000660        0.00003295        0.00000024
     239         -0.300504        2.000000        0.00028495        0.00145396        0.00001151
     240         -0.300347        2.000000        0.00000840        0.00004125        0.00000031
     241         -0.300010        2.000000        0.00000461        0.00005351        0.00000049
     242         -0.298878        2.000000        0.00000437        0.00002782        0.00000019
     243         -0.298505        2.000000        0.00000367        0.00002740        0.00000020
     244         -0.297847        2.000000        0.00000284        0.00002354        0.00000019
     245         -0.297156        2.000000        0.00000338        0.00003337        0.00000029
     246         -0.297046        2.000000        0.00000002        0.00000073        0.00000000
     247         -0.296671        2.000000        0.00000148        0.00001578        0.00000015
     248         -0.296618        2.000000        0.00000038        0.00000486        0.00000005
     249         -0.295969        2.000000        0.00001100        0.00013621        0.00000130
     250         -0.295348        2.000000        0.00001129        0.00014692        0.00000152
     251         -0.295087        2.000000        0.00000000        0.00000012        0.00000000
     252         -0.294369        2.000000        0.00000018        0.00000482        0.00000004
     253         -0.294183        2.000000        0.00000023        0.00000153        0.00000003
     254         -0.293640        2.000000        0.00000004        0.00000014        0.00000000
     255         -0.293246        2.000000        0.00000007        0.00000112        0.00000001
     256         -0.292577        2.000000        0.00000005        0.00000025        0.00000000
     257         -0.291994        2.000000        0.00000353        0.00002475        0.00000025
     258         -0.291705        2.000000        0.00000006        0.00000021        0.00000000
     259         -0.290928        2.000000        0.00001681        0.00009897        0.00000120
     260         -0.290306        2.000000        0.00004418        0.00023646        0.00000261
     261         -0.289901        2.000000        0.00010244        0.00054271        0.00000616
     262         -0.289451        2.000000        0.00005650        0.00028461        0.00000322
     263         -0.289043        2.000000        0.00002464        0.00012534        0.00000131
     264         -0.288015        2.000000        0.00001716        0.00008767        0.00000077
     265         -0.287861        2.000000        0.00000719        0.00003940        0.00000024
     266         -0.286936        2.000000        0.00000032        0.00000208        0.00000002
     267         -0.286667        2.000000        0.00000138        0.00000670        0.00000006
     268         -0.286302        2.000000        0.00000961        0.00005483        0.00000044
     269         -0.285607        2.000000        0.00000018        0.00000048        0.00000002
     270         -0.285328        2.000000        0.00000156        0.00000905        0.00000004
     271         -0.285085        2.000000        0.00000113        0.00000701        0.00000005
     272         -0.284841        2.000000        0.00000016        0.00000057        0.00000002
     273         -0.284131        2.000000        0.00000411        0.00002241        0.00000012
     274         -0.283572        2.000000        0.00000007        0.00000022        0.00000002
     275         -0.283249        2.000000        0.00000308        0.00001750        0.00000009
     276         -0.283050        2.000000        0.00001004        0.00005989        0.00000028
     277         -0.282957        2.000000        0.00000251        0.00001154        0.00000006
     278         -0.282638        2.000000        0.00000708        0.00004029        0.00000022
     279         -0.282393        2.000000        0.00022483        0.00122792        0.00000701
     280         -0.282190        2.000000        0.00000266        0.00001643        0.00000008
     281         -0.281812        2.000000        0.00000051        0.00000316        0.00000003
     282         -0.281718        2.000000        0.00006747        0.00036841        0.00000177
     283         -0.281529        2.000000        0.00011621        0.00060176        0.00000327
     284         -0.281304        2.000000        0.00016531        0.00091601        0.00000519
     285         -0.281056        2.000000        0.00105269        0.00573006        0.00002669
     286         -0.280948        2.000000        0.00019818        0.00110908        0.00000488
     287         -0.280843        2.000000        0.00259207        0.01409354        0.00006225
     288         -0.280780        2.000000        0.00005992        0.00032064        0.00000161
     289         -0.280282        2.000000        0.00000956        0.00003428        0.00000164
     290         -0.279956        2.000000        0.00000162        0.00000717        0.00000030
     291         -0.279807        2.000000        0.00007826        0.00035275        0.00000603
     292         -0.279686        2.000000        0.00104540        0.00494321        0.00007500
     293         -0.279589        2.000000        0.00017790        0.00088471        0.00001101
     294         -0.279495        2.000000        0.00071195        0.00353731        0.00004524
     295         -0.279217        2.000000        0.00011483        0.00062153        0.00000433
     296         -0.279093        2.000000        0.00188654        0.00992340        0.00006260
     297         -0.278951        2.000000        0.00015036        0.00079288        0.00000468
     298         -0.278592        2.000000        0.00027393        0.00145874        0.00001097
     299         -0.278433        2.000000        0.00003139        0.00016251        0.00000094
     300         -0.278210        2.000000        0.00004090        0.00021226        0.00000127
     301         -0.278135        2.000000        0.00001062        0.00004655        0.00000027
     302         -0.278031        2.000000        0.00000772        0.00003231        0.00000023
     303         -0.277650        2.000000        0.00017972        0.00091615        0.00000544
     304         -0.277312        2.000000        0.00009875        0.00049591        0.00000351
     305         -0.276990        2.000000        0.00070663        0.00326264        0.00002425
     306         -0.276609        2.000000        0.00003571        0.00015568        0.00000119
     307         -0.276405        2.000000        0.00090920        0.00402281        0.00003435