# Projected DOS for list 4 of 3 atoms, at iteration step i = 0, E(Fermi) =    -0.060510 a.u.
#     MO Eigenvalue [a.u.]      Occupation                 s                 p                 d
       1         -0.895259        2.000000        0.00730376        0.01349706        0.00008337
       2         -0.868125        2.000000        0.01240870        0.01160499        0.00012429
       3         -0.864615        2.000000        0.00256210        0.00496083        0.00003673
       4         -0.857993        2.000000        0.00000000        0.00000000        0.00000000
       5         -0.853826        2.000000        0.00000001        0.00000011        0.00000000
       6         -0.850378        2.000000        0.00000050        0.00000497        0.00000000
       7         -0.848222        2.000000        0.00003200        0.00013860        0.00000004
       8         -0.847335        2.000000        0.00000009        0.00000032        0.00000000
       9         -0.842977        2.000000        0.00054123        0.00077786        0.00000622
      10         -0.841504        2.000000        0.00000221        0.00000969        0.00000001
      11         -0.840654        2.000000        0.00000335        0.00000524        0.00000002
      12         -0.839688        2.000000        0.00000410        0.00000298        0.00000003
      13         -0.839172        2.000000        0.00000004        0.00000030        0.00000000
      14         -0.838522        2.000000        0.00000054        0.00000046        0.00000000
      15         -0.837015        2.000000        0.00000152        0.00000088        0.00000001
      16         -0.832753        2.000000        0.00007092        0.00004927        0.00000105
      17         -0.832000        2.000000        0.00000299        0.00000141        0.00000002
      18         -0.831644        2.000000        0.00000015        0.00000062        0.00000000
      19         -0.830027        2.000000        0.00039580        0.00022529        0.00000357
      20         -0.829447        2.000000        0.00041637        0.00022313        0.00000385
      21         -0.828640        2.000000        0.00038173        0.00020092        0.00000341
      22         -0.828147        2.000000        0.00017445        0.00009741        0.00000169
      23         -0.827394        2.000000        0.00025627        0.00013541        0.00000207
      24         -0.826637        2.000000        0.00006501        0.00002869        0.00000038
      25         -0.825864        2.000000        0.00000967        0.00000560        0.00000010
      26         -0.825007        2.000000        0.00544110        0.00259262        0.00003702
      27         -0.824149        2.000000        0.00011032        0.00006283        0.00000087
      28         -0.823003        2.000000        0.00113644        0.00057079        0.00000870
      29         -0.821982        2.000000        0.00002651        0.00001137        0.00000008
      30         -0.820560        2.000000        0.00271074        0.00106010        0.00001003
      31         -0.820223        2.000000        0.00189563        0.00077007        0.00000811
      32         -0.820029        2.000000        0.00123985        0.00045930        0.00000354
      33         -0.819390        2.000000        0.00640939        0.00236005        0.00001814
      34         -0.818664        2.000000        0.00064711        0.00023667        0.00000175
      35         -0.817548        2.000000        0.00009711        0.00003712        0.00000031
      36         -0.816472        2.000000        0.00032725        0.00011656        0.00000088
      37         -0.815444        2.000000        0.00003127        0.00002491        0.00000022
      38         -0.814805        2.000000        0.00215438        0.00076832        0.00000528
      39         -0.814124        2.000000        0.00002036        0.00011641        0.00000081
      40         -0.813968        2.000000        0.00005651        0.00019301        0.00000109
      41         -0.813053        2.000000        0.00001413        0.00000471        0.00000003
      42         -0.812601        2.000000        0.00055893        0.00017945        0.00000103
      43         -0.811948        2.000000        0.00002897        0.00000958        0.00000005
      44         -0.811687        2.000000        0.00002495        0.00000964        0.00000007
      45         -0.810574        2.000000        0.00095675        0.00029962        0.00000120
      46         -0.809310        2.000000        0.00465768        0.00230464        0.00001557
      47         -0.808268        2.000000        0.00006498        0.00004770        0.00000053
      48         -0.807324        2.000000        0.00060508        0.00021740        0.00000103
      49         -0.806602        2.000000        0.00003073        0.00002458        0.00000014
      50         -0.806376        2.000000        0.00159729        0.00043930        0.00000195
      51         -0.806147        2.000000        0.00001500        0.00002248        0.00000009
      52         -0.804835        2.000000        0.00006608        0.00001726        0.00000009
      53         -0.804321        2.000000        0.00079355        0.00022636        0.00000131
      54         -0.803943        2.000000        0.00036534        0.00010514        0.00000039
      55         -0.803401        2.000000        0.00004252        0.00001305        0.00000025
      56         -0.802648        2.000000        0.00002885        0.00001060        0.00000004
      57         -0.801912        2.000000        0.00155409        0.00042959        0.00000169
      58         -0.801342        2.000000        0.00036081        0.00009423        0.00000048
      59         -0.800594        2.000000        0.00133881        0.00036027        0.00000192
      60         -0.799945        2.000000        0.00082657        0.00022572        0.00000100
      61         -0.799254        2.000000        0.11817320        0.03126922        0.00015305
      62         -0.798331        2.000000        0.00232408        0.00060508        0.00000336
      63         -0.797356        2.000000        0.01350565        0.00351409        0.00001951
      64         -0.795713        2.000000        0.00043695        0.00011198        0.00000076
      65         -0.795144        2.000000        0.51849409        0.13306453        0.00096998
      66         -0.794508        2.000000        0.00076725        0.00021264        0.00000196
      67         -0.793501        2.000000        0.02760775        0.00694214        0.00005604
      68         -0.792888        2.000000        0.00759714        0.00192269        0.00001602
      69         -0.792771        2.000000        0.02241286        0.00571525        0.00005491
      70         -0.792166        2.000000        0.00062626        0.00020922        0.00000286
      71         -0.791795        2.000000        0.00083783        0.00022616        0.00000267
      72         -0.790466        2.000000        0.00157108        0.00040946        0.00000501
      73         -0.789691        2.000000        0.00006476        0.00001843        0.00000012
      74         -0.789018        2.000000        0.00002291        0.00000615        0.00000004
      75         -0.788284        2.000000        0.00005565        0.00003737        0.00000020
      76         -0.787044        2.000000        0.00008013        0.00002198        0.00000011
      77         -0.785765        2.000000        0.00130018        0.00042171        0.00000132
      78         -0.783215        2.000000        0.00066583        0.00017674        0.00000213
      79         -0.782853        2.000000        0.00236271        0.00062512        0.00000666
      80         -0.782388        2.000000        0.00000079        0.00000096        0.00000001
      81         -0.781821        2.000000        0.00015728        0.00003273        0.00000022
      82         -0.780108        2.000000        0.00000551        0.00000166        0.00000002
      83         -0.778906        2.000000        0.00000221        0.00000057        0.00000004
      84         -0.778076        2.000000        0.00000254        0.00000072        0.00000002
      85         -0.775317        2.000000        0.00000057        0.00000015        0.00000000
      86         -0.773086        2.000000        0.00000146        0.00000042        0.00000001
      87         -0.772920        2.000000        0.00000443        0.00000157        0.00000002
      88         -0.771409        2.000000        0.00001580        0.00000594        0.00000028
      89         -0.769725        2.000000        0.00000448        0.00000495        0.00000004
      90         -0.769226        2.000000        0.00003067        0.00000918        0.00000037
      91         -0.767566        2.000000        0.00002388        0.00002887        0.00000013
      92         -0.766737        2.000000        0.00022556        0.00003668        0.00000017
      93         -0.755845        2.000000        0.00083988        0.00037101        0.00000700
      94         -0.752538        2.000000        0.00000568        0.00002377        0.00000067
      95         -0.747161        2.000000        0.00000053        0.00000012        0.00000000
      96         -0.736999        2.000000        0.00000249        0.00000319        0.00000001
      97         -0.726419        2.000000        0.00000001        0.00000001        0.00000000
      98         -0.719129        2.000000        0.00000318        0.00000176        0.00000003
      99         -0.696511        2.000000        0.00000637        0.00000425        0.00000010
     100         -0.460315        2.000000        0.00004957        0.00278606        0.00000412
     101         -0.427906        2.000000        0.00009062        0.00100722        0.00001080
     102         -0.424376        2.000000        0.00021560        0.00313891        0.00001863
     103         -0.405781        2.000000        0.00000050        0.00000145        0.00000003
     104         -0.401299        2.000000        0.00000001        0.00000002        0.00000000
     105         -0.398347        2.000000        0.00000054        0.00000168        0.00000004
     106         -0.398267        2.000000        0.00000597        0.00001858        0.00000046
     107         -0.397295        2.000000        0.00011927        0.00046595        0.00001023
     108         -0.395753        2.000000        0.00000502        0.00001386        0.00000018
     109         -0.395158        2.000000        0.00000006        0.00000027        0.00000000
     110         -0.394493        2.000000        0.00000126        0.00000302        0.00000006
     111         -0.394192        2.000000        0.00000051        0.00000188        0.00000002
     112         -0.393919        2.000000        0.00000981        0.00003488        0.00000076
     113         -0.393017        2.000000        0.00005766        0.00014687        0.00000275
     114         -0.391793        2.000000        0.00000019        0.00000087        0.00000000
     115         -0.389280        2.000000        0.00000119        0.00000336        0.00000008
     116         -0.388145        2.000000        0.00025812        0.00097183        0.00002273
     117         -0.387090        2.000000        0.00000079        0.00000220        0.00000003
     118         -0.386138        2.000000        0.00036116        0.00097396        0.00002221
     119         -0.385161        2.000000        0.00001182        0.00005865        0.00000099
     120         -0.384984        2.000000        0.00001462        0.00004006        0.00000100
     121         -0.383823        2.000000        0.00000386        0.00001137        0.00000026
     122         -0.383101        2.000000        0.00001709        0.00005818        0.00000122
     123         -0.383025        2.000000        0.00000041        0.00000333        0.00000005
     124         -0.381208        2.000000        0.00000387        0.00001097        0.00000025
     125         -0.380660        2.000000        0.00000438        0.00001307        0.00000022
     126         -0.380323        2.000000        0.00000334        0.00001083        0.00000022
     127         -0.379623        2.000000        0.00001196        0.00004083        0.00000080
     128         -0.379161        2.000000        0.00000018        0.00000056        0.00000001
     129         -0.378115        2.000000        0.00017770        0.00053115        0.00001130
     130         -0.377757        2.000000        0.00003540        0.00011227        0.00000224
     131         -0.377213        2.000000        0.00010579        0.00031855        0.00000684
     132         -0.376655        2.000000        0.00016290        0.00050991        0.00001087
     133         -0.376089        2.000000        0.00089162        0.00265091        0.00005541
     134         -0.375522        2.000000        0.00253619        0.00753250        0.00015754
     135         -0.373953        2.000000        0.00440271        0.01232264        0.00027188
     136         -0.373564        2.000000        0.00225404        0.00640662        0.00013786
     137         -0.372991        2.000000        0.00778382        0.02164370        0.00047989
     138         -0.372433        2.000000        0.04511290        0.12556913        0.00276069
     139         -0.372037        2.000000        0.00445788        0.01230220        0.00027284
     140         -0.371632        2.000000        0.01155955        0.03167082        0.00070906
     141         -0.371006        2.000000        0.00820216        0.02213597        0.00050517
     142         -0.369840        2.000000        0.00015462        0.00113493        0.00001419
     143         -0.369635        2.000000        0.00303828        0.00865011        0.00018567
     144         -0.369153        2.000000        0.00011734        0.00031718        0.00000717
     145         -0.369131        2.000000        0.00002029        0.00004793        0.00000104
     146         -0.368498        2.000000        0.00009843        0.00025716        0.00000624
     147         -0.367984        2.000000        0.00017827        0.00046309        0.00001167
     148         -0.367257        2.000000        0.00005915        0.00015367        0.00000369
     149         -0.366951        2.000000        0.00006124        0.00016293        0.00000384
     150         -0.366882        2.000000        0.00266038        0.00694451        0.00016467
     151         -0.366558        2.000000        0.00029360        0.00076500        0.00001868
     152         -0.366087        2.000000        0.00005715        0.00015495        0.00000353
     153         -0.365532        2.000000        0.00125890        0.00320270        0.00008055
     154         -0.365292        2.000000        0.00000342        0.00001189        0.00000019
     155         -0.364873        2.000000        0.00102331        0.00253819        0.00006723
     156         -0.364499        2.000000        0.00007564        0.00018755        0.00000505
     157         -0.364385        2.000000        0.00634602        0.01581157        0.00041123
     158         -0.363409        2.000000        0.00000858        0.00003330        0.00000040
     159         -0.362731        2.000000        0.00520195        0.01341580        0.00038129
     160         -0.361690        2.000000        0.00001169        0.00004314        0.00000060
     161         -0.361463        2.000000        0.00846384        0.02240038        0.00067442
     162         -0.360695        2.000000        0.00001015        0.00003400        0.00000047
     163         -0.359909        2.000000        0.00308706        0.01005468        0.00030182
     164         -0.358869        2.000000        0.00002431        0.00019677        0.00000308
     165         -0.358762        2.000000        0.00002060        0.00006374        0.00000201
     166         -0.358424        2.000000        0.00025675        0.00064816        0.00001817
     167         -0.357749        2.000000        0.00448454        0.01146688        0.00033041
     168         -0.357432        2.000000        0.00020969        0.00177834        0.00002914
     169         -0.356226        2.000000        0.00018813        0.00046493        0.00001271
     170         -0.355206        2.000000        0.00031704        0.00082585        0.00001901
     171         -0.354151        2.000000        0.00255325        0.00627823        0.00017277
     172         -0.353675        2.000000        0.06386229        0.15716430        0.00424828
     173         -0.353241        2.000000        0.00034671        0.00089709        0.00002036
     174         -0.352384        2.000000        0.00050478        0.00114750        0.00004268
     175         -0.349281        2.000000        0.00089014        0.00215143        0.00006045
     176         -0.348101        2.000000        0.02314075        0.05576383        0.00161054
     177         -0.347056        2.000000        0.00176222        0.00422005        0.00012028
     178         -0.346421        2.000000        0.00119687        0.00287398        0.00008434
     179         -0.346099        2.000000        0.01196748        0.02902054        0.00086931
     180         -0.344626        2.000000        0.00000034        0.00000111        0.00000001
     181         -0.344227        2.000000        0.00018164        0.00066224        0.00002573
     182         -0.344158        2.000000        0.00005518        0.00013143        0.00000378
     183         -0.343279        2.000000        0.00012184        0.00030041        0.00000960
     184         -0.342186        2.000000        0.00000145        0.00000895        0.00000013
     185         -0.341638        2.000000        0.00000182        0.00000494        0.00000016
     186         -0.341223        2.000000        0.00000783        0.00001821        0.00000055
     187         -0.341051        2.000000        0.00002862        0.00012632        0.00000248
     188         -0.340810        2.000000        0.00000049        0.00000143        0.00000005
     189         -0.340344        2.000000        0.00000367        0.00001530        0.00000036
     190         -0.340103        2.000000        0.00048421        0.00122993        0.00004076
     191         -0.339538        2.000000        0.00002097        0.00005448        0.00000185
     192         -0.338904        2.000000        0.00000466        0.00001245        0.00000038
     193         -0.338737        2.000000        0.00000573        0.00004064        0.00000071
     194         -0.337951        2.000000        0.00001417        0.00003746        0.00000099
     195         -0.337180        2.000000        0.00000521        0.00002601        0.00000014
     196         -0.336960        2.000000        0.00000101        0.00000273        0.00000003
     197         -0.336163        2.000000        0.00004504        0.00010756        0.00000271
     198         -0.335733        2.000000        0.00002999        0.00007184        0.00000189
     199         -0.334956        2.000000        0.00014551        0.00033009        0.00000851
     200         -0.333834        2.000000        0.00022666        0.00058746        0.00001447
     201         -0.331670        2.000000        0.00000176        0.00001451        0.00000021
     202         -0.330715        2.000000        0.00257363        0.00623780        0.00021301
     203         -0.327469        2.000000        0.00000179        0.00000410        0.00000022
     204         -0.326924        2.000000        0.00003830        0.00008292        0.00000236
     205         -0.319799        2.000000        0.00000386        0.00000879        0.00000026
     206         -0.319625        2.000000        0.00002001        0.00008635        0.00000195
     207         -0.318771        2.000000        0.00040647        0.00082860        0.00001801
     208         -0.318487        2.000000        0.00000017        0.00000036        0.00000001
     209         -0.318151        2.000000        0.00000006        0.00000021        0.00000001
     210         -0.317254        2.000000        0.00000003        0.00000010        0.00000000
     211         -0.316615        2.000000        0.00000010        0.00000029        0.00000001
     212         -0.316317        2.000000        0.00001984        0.00016300        0.00000105
     213         -0.315885        2.000000        0.00000001        0.00000008        0.00000000
     214         -0.315512        2.000000        0.00000001        0.00000002        0.00000000
     215         -0.314742        2.000000        0.00000007        0.00000020        0.00000001
     216         -0.314240        2.000000        0.00000003        0.00000007        0.00000000
     217         -0.313093        2.000000        0.00000005        0.00000014        0.00000000
     218         -0.312538        2.000000        0.00000003        0.00000010        0.00000000
     219         -0.312396        2.000000        0.00000004        0.00000009        0.00000000
     220         -0.312037        2.000000        0.00000002        0.00000005        0.00000000
     221         -0.310598        2.000000        0.00000013        0.00000037        0.00000001
     222         -0.310221        2.000000        0.00000008        0.00000025        0.00000001
     223         -0.309408        2.000000        0.00000007        0.00000018        0.00000000
     224         -0.309395        2.000000        0.00000009        0.00000026        0.00000000
     225         -0.309234        2.000000        0.00000004        0.00000014        0.00000000
     226         -0.308381        2.000000        0.00001307        0.00002836        0.00000042
     227         -0.308250        2.000000        0.00023561        0.00047422        0.00001130
     228         -0.308097        2.000000        0.00000394        0.00000937        0.00000027
     229         -0.307179        2.000000        0.00000972        0.00003586        0.00000038
     230         -0.305966        2.000000        0.00009094        0.00031509        0.00000261
     231         -0.305190        2.000000        0.00169014        0.00521960        0.00004780
     232         -0.305170        2.000000        0.00142283        0.00563952        0.00012718
     233         -0.303881        2.000000        0.00067515        0.00226597        0.00001776
     234         -0.303186        2.000000        0.00000639        0.00002242        0.00000021
     235         -0.302644        2.000000        0.00002798        0.00009792        0.00000097
     236         -0.302137        2.000000        0.00021822        0.00076362        0.00000756
     237         -0.301410        2.000000        0.00016896        0.00059009        0.00000599
     238         -0.301270        2.000000        0.00014747        0.00051616        0.00000535
     239         -0.300504        2.000000        0.00635539        0.02217781        0.00023152
     240         -0.300347        2.000000        0.00015600        0.00054917        0.00000595
     241         -0.300010        2.000000        0.00004693        0.00015987        0.00000201
     242         -0.298878        2.000000        0.00012406        0.00043700        0.00000466
     243         -0.298505        2.000000        0.00012953        0.00045687        0.00000480
     244         -0.297847        2.000000        0.00011588        0.00041423        0.00000436
     245         -0.297156        2.000000        0.00016392        0.00059557        0.00000612
     246         -0.297046        2.000000        0.00000237        0.00000854        0.00000009
     247         -0.296671        2.000000        0.00007242        0.00026673        0.00000269
     248         -0.296618        2.000000        0.00002369        0.00008679        0.00000089
     249         -0.295969        2.000000        0.00067003        0.00249829        0.00002506
     250         -0.295348        2.000000        0.00073422        0.00277568        0.00002728
     251         -0.295087        2.000000        0.00000066        0.00000241        0.00000003
     252         -0.294369        2.000000        0.00002543        0.00009705        0.00000095
     253         -0.294183        2.000000        0.00000765        0.00002985        0.00000028
     254         -0.293640        2.000000        0.00000003        0.00000006        0.00000000
     255         -0.293246        2.000000        0.00000636        0.00002501        0.00000023
     256         -0.292577        2.000000        0.00000017        0.00000071        0.00000001
     257         -0.291994        2.000000        0.00010824        0.00044065        0.00000368
     258         -0.291705        2.000000        0.00000002        0.00000006        0.00000000
     259         -0.290928        2.000000        0.00039169        0.00160553        0.00001298
     260         -0.290306        2.000000        0.00068832        0.00285042        0.00002238
     261         -0.289901        2.000000        0.00148025        0.00613648        0.00004765
     262         -0.289451        2.000000        0.00061393        0.00256287        0.00001947
     263         -0.289043        2.000000        0.00020606        0.00086129        0.00000649
     264         -0.288015        2.000000        0.00003623        0.00016012        0.00000105
     265         -0.287861        2.000000        0.00000040        0.00000456        0.00000002
     266         -0.286936        2.000000        0.00000235        0.00000970        0.00000008
     267         -0.286667        2.000000        0.00000047        0.00000272        0.00000001
     268         -0.286302        2.000000        0.00001673        0.00007249        0.00000049
     269         -0.285607        2.000000        0.00000042        0.00000202        0.00000001
     270         -0.285328        2.000000        0.00000003        0.00000064        0.00000000
     271         -0.285085        2.000000        0.00000089        0.00000404        0.00000003
     272         -0.284841        2.000000        0.00000135        0.00000609        0.00000004
     273         -0.284131        2.000000        0.00000028        0.00000274        0.00000001
     274         -0.283572        2.000000        0.00000076        0.00000339        0.00000002
     275         -0.283249        2.000000        0.00000018        0.00000199        0.00000001
     276         -0.283050        2.000000        0.00000033        0.00000466        0.00000002
     277         -0.282957        2.000000        0.00000036        0.00000256        0.00000002
     278         -0.282638        2.000000        0.00000021        0.00000421        0.00000002
     279         -0.282393        2.000000        0.00000759        0.00013761        0.00000061
     280         -0.282190        2.000000        0.00000023        0.00000141        0.00000001
     281         -0.281812        2.000000        0.00000014        0.00000100        0.00000001
     282         -0.281718        2.000000        0.00000738        0.00006413        0.00000039
     283         -0.281529        2.000000        0.00002524        0.00017033        0.00000129
     284         -0.281304        2.000000        0.00003687        0.00025478        0.00000183
     285         -0.281056        2.000000        0.00033854        0.00195987        0.00001456
     286         -0.280948        2.000000        0.00006921        0.00039901        0.00000281
     287         -0.280843        2.000000        0.00115700        0.00609306        0.00004508
     288         -0.280780        2.000000        0.00002419        0.00012506        0.00000086
     289         -0.280282        2.000000        0.00000219        0.00001111        0.00000007
     290         -0.279956        2.000000        0.00000054        0.00000245        0.00000003
     291         -0.279807        2.000000        0.00000725        0.00005683        0.00000081
     292         -0.279686        2.000000        0.00014140        0.00094455        0.00001298
     293         -0.279589        2.000000        0.00002647        0.00017184        0.00000224
     294         -0.279495        2.000000        0.00021048        0.00110144        0.00001388
     295         -0.279217        2.000000        0.00007992        0.00033958        0.00000382
     296         -0.279093        2.000000        0.00095019        0.00422926        0.00004765
     297         -0.278951        2.000000        0.00009478        0.00040313        0.00000446
     298         -0.278592        2.000000        0.00029612        0.00115501        0.00001294
     299         -0.278433        2.000000        0.00001616        0.00006934        0.00000073
     300         -0.278210        2.000000        0.00003016        0.00012252        0.00000126
     301         -0.278135        2.000000        0.00002116        0.00007601        0.00000080
     302         -0.278031        2.000000        0.00001726        0.00006049        0.00000062
     303         -0.277650        2.000000        0.00021046        0.00079564        0.00000777
     304         -0.277312        2.000000        0.00009949        0.00038380        0.00000340
     305         -0.276990        2.000000        0.00104316        0.00387528        0.00003461
     306         -0.276609        2.000000        0.00005275        0.00020150        0.00000170
     307         -0.276405        2.000000        0.00185283        0.00669299        0.00005706