# Projected DOS for list 3 of 3 atoms, at iteration step i = 0, E(Fermi) =    -0.060510 a.u.
#     MO Eigenvalue [a.u.]      Occupation                 s                 p                 d
       1         -0.895259        2.000000        0.00000000        0.00000000        0.00000000
       2         -0.868125        2.000000        0.00001252        0.00000720        0.00000009
       3         -0.864615        2.000000        0.00005673        0.00002681        0.00000035
       4         -0.857993        2.000000        0.00000075        0.00000018        0.00000000
       5         -0.853826        2.000000        0.00248592        0.00064074        0.00000060
       6         -0.850378        2.000000        0.00253112        0.00063629        0.00000555
       7         -0.848222        2.000000        0.01445274        0.00201891        0.00004190
       8         -0.847335        2.000000        0.00016037        0.00002697        0.00000041
       9         -0.842977        2.000000        0.00175153        0.00024182        0.00000258
      10         -0.841504        2.000000        0.16187443        0.02668388        0.00023714
      11         -0.840654        2.000000        0.14916764        0.02474702        0.00021902
      12         -0.839688        2.000000        0.01867595        0.00265728        0.00003349
      13         -0.839172        2.000000        0.00200706        0.00034962        0.00000670
      14         -0.838522        2.000000        0.00485301        0.00068594        0.00001226
      15         -0.837015        2.000000        0.01076125        0.00139022        0.00004338
      16         -0.832753        2.000000        0.05168880        0.02801679        0.00007110
      17         -0.832000        2.000000        0.00965169        0.00501000        0.00000496
      18         -0.831644        2.000000        0.01488228        0.00600942        0.00001759
      19         -0.830027        2.000000        0.00042724        0.00054736        0.00000763
      20         -0.829447        2.000000        0.01108170        0.00995078        0.00002661
      21         -0.828640        2.000000        0.00059770        0.00271641        0.00003463
      22         -0.828147        2.000000        0.00469814        0.00128760        0.00000801
      23         -0.827394        2.000000        0.00085650        0.00025859        0.00000675
      24         -0.826637        2.000000        0.06521167        0.02223681        0.00006243
      25         -0.825864        2.000000        0.02043666        0.00702950        0.00002094
      26         -0.825007        2.000000        0.03014730        0.01044820        0.00003088
      27         -0.824149        2.000000        0.00111260        0.00073536        0.00000058
      28         -0.823003        2.000000        0.02659044        0.01462522        0.00002092
      29         -0.821982        2.000000        0.00061065        0.00038090        0.00001061
      30         -0.820560        2.000000        0.00157911        0.00077077        0.00002997
      31         -0.820223        2.000000        0.01183649        0.00456949        0.00002555
      32         -0.820029        2.000000        0.02129021        0.00646095        0.00009354
      33         -0.819390        2.000000        0.01621897        0.00682213        0.00002296
      34         -0.818664        2.000000        0.00230448        0.00152180        0.00005673
      35         -0.817548        2.000000        0.00465990        0.00178286        0.00001135
      36         -0.816472        2.000000        0.00161424        0.00066384        0.00000300
      37         -0.815444        2.000000        0.00412401        0.00126500        0.00002074
      38         -0.814805        2.000000        0.00154127        0.00073650        0.00000251
      39         -0.814124        2.000000        0.00007502        0.00001788        0.00000065
      40         -0.813968        2.000000        0.00062823        0.00023629        0.00000148
      41         -0.813053        2.000000        0.00038797        0.00017060        0.00000172
      42         -0.812601        2.000000        0.00004067        0.00024806        0.00000376
      43         -0.811948        2.000000        0.00580394        0.00146510        0.00002579
      44         -0.811687        2.000000        0.00041833        0.00013711        0.00000266
      45         -0.810574        2.000000        0.00010597        0.00014128        0.00000205
      46         -0.809310        2.000000        0.00001772        0.00002738        0.00000009
      47         -0.808268        2.000000        0.00337189        0.00093230        0.00003152
      48         -0.807324        2.000000        0.00082620        0.00066652        0.00000403
      49         -0.806602        2.000000        0.02835431        0.00728978        0.00026313
      50         -0.806376        2.000000        0.00929325        0.00277005        0.00006363
      51         -0.806147        2.000000        0.00222759        0.00053435        0.00002789
      52         -0.804835        2.000000        0.00003131        0.00005623        0.00000287
      53         -0.804321        2.000000        0.00675538        0.00189006        0.00005622
      54         -0.803943        2.000000        0.00662488        0.00229174        0.00008364
      55         -0.803401        2.000000        0.00144127        0.00045546        0.00002189
      56         -0.802648        2.000000        0.00198615        0.00058570        0.00001513
      57         -0.801912        2.000000        0.00196929        0.00060920        0.00005055
      58         -0.801342        2.000000        0.00004516        0.00007807        0.00001031
      59         -0.800594        2.000000        0.00387971        0.00126143        0.00002856
      60         -0.799945        2.000000        0.00001541        0.00008557        0.00000172
      61         -0.799254        2.000000        0.00366475        0.00192676        0.00001156
      62         -0.798331        2.000000        0.00047522        0.00024596        0.00000066
      63         -0.797356        2.000000        0.00008799        0.00038503        0.00000257
      64         -0.795713        2.000000        0.00323561        0.00107977        0.00006245
      65         -0.795144        2.000000        0.00093620        0.00041349        0.00000900
      66         -0.794508        2.000000        0.00194102        0.00084231        0.00001844
      67         -0.793501        2.000000        0.00002919        0.00002635        0.00000126
      68         -0.792888        2.000000        0.00027067        0.00009510        0.00000473
      69         -0.792771        2.000000        0.00007615        0.00030957        0.00001784
      70         -0.792166        2.000000        0.00024651        0.00011038        0.00000241
      71         -0.791795        2.000000        0.00028558        0.00009209        0.00000451
      72         -0.790466        2.000000        0.00181721        0.00065965        0.00002688
      73         -0.789691        2.000000        0.00000799        0.00001687        0.00000051
      74         -0.789018        2.000000        0.00094409        0.00033512        0.00002100
      75         -0.788284        2.000000        0.00000643        0.00000428        0.00000003
      76         -0.787044        2.000000        0.00032762        0.00011872        0.00000422
      77         -0.785765        2.000000        0.00000561        0.00000338        0.00000003
      78         -0.783215        2.000000        0.00000032        0.00000047        0.00000000
      79         -0.782853        2.000000        0.00000009        0.00000130        0.00000002
      80         -0.782388        2.000000        0.00000626        0.00001188        0.00000011
      81         -0.781821        2.000000        0.00000032        0.00000012        0.00000001
      82         -0.780108        2.000000        0.00000536        0.00001675        0.00000015
      83         -0.778906        2.000000        0.00000002        0.00000013        0.00000000
      84         -0.778076        2.000000        0.00000478        0.00000980        0.00000048
      85         -0.775317        2.000000        0.00000293        0.00000601        0.00000006
      86         -0.773086        2.000000        0.00001262        0.00002424        0.00000016
      87         -0.772920        2.000000        0.00000079        0.00000188        0.00000001
      88         -0.771409        2.000000        0.00054971        0.00036844        0.00000872
      89         -0.769725        2.000000        0.00000421        0.00000288        0.00000006
      90         -0.769226        2.000000        0.00000242        0.00000174        0.00000003
      91         -0.767566        2.000000        0.00000006        0.00000025        0.00000000
      92         -0.766737        2.000000        0.00000005        0.00000008        0.00000000
      93         -0.755845        2.000000        0.00000139        0.00000269        0.00000002
      94         -0.752538        2.000000        0.00000009        0.00000019        0.00000000
      95         -0.747161        2.000000        0.00000000        0.00000000        0.00000000
      96         -0.736999        2.000000        0.00000000        0.00000000        0.00000000
      97         -0.726419        2.000000        0.00000000        0.00000000        0.00000000
      98         -0.719129        2.000000        0.00000000        0.00000002        0.00000000
      99         -0.696511        2.000000        0.00000002        0.00000003        0.00000000
     100         -0.460315        2.000000        0.00000000        0.00000000        0.00000000
     101         -0.427906        2.000000        0.00000515        0.00001339        0.00000034
     102         -0.424376        2.000000        0.00000029        0.00000080        0.00000002
     103         -0.405781        2.000000        0.00000014        0.00000052        0.00000002
     104         -0.401299        2.000000        0.00005998        0.00115911        0.00002888
     105         -0.398347        2.000000        0.00730121        0.01996083        0.00040234
     106         -0.398267        2.000000        0.09077094        0.24667685        0.00504379
     107         -0.397295        2.000000        0.00086636        0.00243517        0.00004760
     108         -0.395753        2.000000        0.03439505        0.08976785        0.00198382
     109         -0.395158        2.000000        0.00004003        0.00013106        0.00000285
     110         -0.394493        2.000000        0.00023404        0.00061316        0.00001359
     111         -0.394192        2.000000        0.00002043        0.00009521        0.00000182
     112         -0.393919        2.000000        0.00114760        0.00314476        0.00006320
     113         -0.393017        2.000000        0.04592139        0.12440430        0.00252016
     114         -0.391793        2.000000        0.00201273        0.00549257        0.00011451
     115         -0.389280        2.000000        0.00000057        0.00000784        0.00000011
     116         -0.388145        2.000000        0.00033806        0.00091676        0.00001860
     117         -0.387090        2.000000        0.00040148        0.00191015        0.00004434
     118         -0.386138        2.000000        0.00144913        0.00408862        0.00007267
     119         -0.385161        2.000000        0.00087552        0.00239552        0.00004648
     120         -0.384984        2.000000        0.00013356        0.00052564        0.00001088
     121         -0.383823        2.000000        0.00367269        0.01334923        0.00027909
     122         -0.383101        2.000000        0.00021019        0.00168193        0.00001084
     123         -0.383025        2.000000        0.00041763        0.00144686        0.00002503
     124         -0.381208        2.000000        0.00655208        0.01898322        0.00032634
     125         -0.380660        2.000000        0.00220393        0.00765996        0.00009970
     126         -0.380323        2.000000        0.00025743        0.00117288        0.00001263
     127         -0.379623        2.000000        0.00000543        0.00003852        0.00000018
     128         -0.379161        2.000000        0.00083462        0.00275997        0.00005681
     129         -0.378115        2.000000        0.00062790        0.00243524        0.00004563
     130         -0.377757        2.000000        0.00357570        0.02874691        0.00049435
     131         -0.377213        2.000000        0.00191124        0.00877707        0.00016600
     132         -0.376655        2.000000        0.00095262        0.00292696        0.00005976
     133         -0.376089        2.000000        0.00031279        0.00262910        0.00003415
     134         -0.375522        2.000000        0.00130223        0.00484469        0.00010291
     135         -0.373953        2.000000        0.00069604        0.00236366        0.00003311
     136         -0.373564        2.000000        0.00421666        0.01277608        0.00019396
     137         -0.372991        2.000000        0.00048678        0.00162606        0.00002637
     138         -0.372433        2.000000        0.01111022        0.03234099        0.00054096
     139         -0.372037        2.000000        0.00158974        0.00605857        0.00008330
     140         -0.371632        2.000000        0.00110077        0.00497482        0.00005156
     141         -0.371006        2.000000        0.00796031        0.02325613        0.00040447
     142         -0.369840        2.000000        0.00001268        0.00020456        0.00000313
     143         -0.369635        2.000000        0.00155201        0.00661301        0.00010859
     144         -0.369153        2.000000        0.00001375        0.00013570        0.00000228
     145         -0.369131        2.000000        0.00014672        0.00040684        0.00000944
     146         -0.368498        2.000000        0.00076014        0.00226067        0.00004940
     147         -0.367984        2.000000        0.00247768        0.00771243        0.00018424
     148         -0.367257        2.000000        0.00001159        0.00004024        0.00000069
     149         -0.366951        2.000000        0.00001965        0.00015852        0.00000176
     150         -0.366882        2.000000        0.00012116        0.00111441        0.00001548
     151         -0.366558        2.000000        0.00010765        0.00084187        0.00001173
     152         -0.366087        2.000000        0.00042147        0.00218139        0.00003749
     153         -0.365532        2.000000        0.00003883        0.00020172        0.00000580
     154         -0.365292        2.000000        0.00002610        0.00014271        0.00000414
     155         -0.364873        2.000000        0.00045582        0.00119401        0.00002717
     156         -0.364499        2.000000        0.00035558        0.00085345        0.00002355
     157         -0.364385        2.000000        0.00018153        0.00067540        0.00000879
     158         -0.363409        2.000000        0.00103491        0.00403378        0.00010651
     159         -0.362731        2.000000        0.00005139        0.00021333        0.00000213
     160         -0.361690        2.000000        0.00010462        0.00036414        0.00000534
     161         -0.361463        2.000000        0.00005359        0.00034295        0.00000354
     162         -0.360695        2.000000        0.00008046        0.00027903        0.00000715
     163         -0.359909        2.000000        0.00000543        0.00003050        0.00000069
     164         -0.358869        2.000000        0.00002061        0.00005815        0.00000134
     165         -0.358762        2.000000        0.00000152        0.00000662        0.00000011
     166         -0.358424        2.000000        0.00003409        0.00022602        0.00000205
     167         -0.357749        2.000000        0.00008683        0.00023519        0.00000322
     168         -0.357432        2.000000        0.00001785        0.00017254        0.00000217
     169         -0.356226        2.000000        0.00012933        0.00085685        0.00001382
     170         -0.355206        2.000000        0.01060275        0.05387782        0.00125273
     171         -0.354151        2.000000        0.00127848        0.00649963        0.00007792
     172         -0.353675        2.000000        0.00015452        0.00117745        0.00001650
     173         -0.353241        2.000000        0.00016029        0.00135697        0.00002600
     174         -0.352384        2.000000        0.00094207        0.00400230        0.00009510
     175         -0.349281        2.000000        0.00010474        0.00134377        0.00001765
     176         -0.348101        2.000000        0.00029610        0.00267584        0.00002655
     177         -0.347056        2.000000        0.00000407        0.00002496        0.00000078
     178         -0.346421        2.000000        0.00248134        0.02185427        0.00021513
     179         -0.346099        2.000000        0.00000919        0.00009211        0.00000093
     180         -0.344626        2.000000        0.00002701        0.00034937        0.00000885
     181         -0.344227        2.000000        0.00000110        0.00000542        0.00000004
     182         -0.344158        2.000000        0.00005076        0.00052437        0.00001095
     183         -0.343279        2.000000        0.00000997        0.00007981        0.00000131
     184         -0.342186        2.000000        0.00012406        0.00072364        0.00001577
     185         -0.341638        2.000000        0.00000118        0.00001011        0.00000014
     186         -0.341223        2.000000        0.00000456        0.00003152        0.00000050
     187         -0.341051        2.000000        0.00000321        0.00001021        0.00000022
     188         -0.340810        2.000000        0.00000060        0.00000374        0.00000007
     189         -0.340344        2.000000        0.00001012        0.00008350        0.00000098
     190         -0.340103        2.000000        0.00001080        0.00005138        0.00000041
     191         -0.339538        2.000000        0.00000323        0.00002389        0.00000026
     192         -0.338904        2.000000        0.00000257        0.00000901        0.00000012
     193         -0.338737        2.000000        0.00009804        0.00036682        0.00000080
     194         -0.337951        2.000000        0.00007464        0.00021211        0.00000355
     195         -0.337180        2.000000        0.00000159        0.00000537        0.00000004
     196         -0.336960        2.000000        0.00001367        0.00007644        0.00000102
     197         -0.336163        2.000000        0.00005490        0.00026829        0.00000328
     198         -0.335733        2.000000        0.00005120        0.00024674        0.00000730
     199         -0.334956        2.000000        0.00004820        0.00035859        0.00000302
     200         -0.333834        2.000000        0.00000289        0.00002171        0.00000015
     201         -0.331670        2.000000        0.00007356        0.00050735        0.00000475
     202         -0.330715        2.000000        0.00000241        0.00003102        0.00000044
     203         -0.327469        2.000000        0.00000066        0.00000434        0.00000002
     204         -0.326924        2.000000        0.00000621        0.00004075        0.00000030
     205         -0.319799        2.000000        0.00000750        0.00005311        0.00000026
     206         -0.319625        2.000000        0.00000019        0.00000064        0.00000001
     207         -0.318771        2.000000        0.00000031        0.00000217        0.00000001
     208         -0.318487        2.000000        0.00000010        0.00000051        0.00000001
     209         -0.318151        2.000000        0.00000686        0.00005921        0.00000031
     210         -0.317254        2.000000        0.00000012        0.00000083        0.00000001
     211         -0.316615        2.000000        0.00000989        0.00010853        0.00000057
     212         -0.316317        2.000000        0.00002752        0.00011473        0.00000077
     213         -0.315885        2.000000        0.00001700        0.00015865        0.00000069
     214         -0.315512        2.000000        0.00002326        0.00023359        0.00000107
     215         -0.314742        2.000000        0.00006335        0.00064393        0.00000297
     216         -0.314240        2.000000        0.00000053        0.00000466        0.00000006
     217         -0.313093        2.000000        0.00005984        0.00043871        0.00000184
     218         -0.312538        2.000000        0.00004372        0.00030553        0.00000103
     219         -0.312396        2.000000        0.00004152        0.00028829        0.00000103
     220         -0.312037        2.000000        0.00002172        0.00016888        0.00000234
     221         -0.310598        2.000000        0.00011863        0.00094366        0.00000363
     222         -0.310221        2.000000        0.00006001        0.00041218        0.00000179
     223         -0.309408        2.000000        0.00001979        0.00012296        0.00000047
     224         -0.309395        2.000000        0.00005376        0.00037865        0.00000130
     225         -0.309234        2.000000        0.00001041        0.00007178        0.00000071
     226         -0.308381        2.000000        0.00044876        0.00304310        0.00000969
     227         -0.308250        2.000000        0.00000787        0.00004230        0.00000049
     228         -0.308097        2.000000        0.00017269        0.00126969        0.00000421
     229         -0.307179        2.000000        0.00086361        0.00590603        0.00001809
     230         -0.305966        2.000000        0.00126705        0.00698975        0.00004146
     231         -0.305190        2.000000        0.00205857        0.00909327        0.00005059
     232         -0.305170        2.000000        0.00070501        0.00303603        0.00001755
     233         -0.303881        2.000000        0.00074758        0.00348450        0.00001833
     234         -0.303186        2.000000        0.00001753        0.00011522        0.00000033
     235         -0.302644        2.000000        0.00028222        0.00163388        0.00000744
     236         -0.302137        2.000000        0.00131783        0.00749835        0.00003333
     237         -0.301410        2.000000        0.00058214        0.00328991        0.00000998
     238         -0.301270        2.000000        0.00090852        0.00494210        0.00002425
     239         -0.300504        2.000000        0.00829924        0.03988263        0.00019085
     240         -0.300347        2.000000        0.00120518        0.00640185        0.00004428
     241         -0.300010        2.000000        0.00004115        0.00021848        0.00000108
     242         -0.298878        2.000000        0.00007080        0.00074823        0.00000249
     243         -0.298505        2.000000        0.00072543        0.00456398        0.00002305
     244         -0.297847        2.000000        0.00083952        0.00513372        0.00001970
     245         -0.297156        2.000000        0.00196133        0.01158417        0.00004520
     246         -0.297046        2.000000        0.00009350        0.00053309        0.00000188
     247         -0.296671        2.000000        0.00117812        0.00680907        0.00002807
     248         -0.296618        2.000000        0.00039913        0.00235553        0.00001410
     249         -0.295969        2.000000        0.00952673        0.05423902        0.00020121
     250         -0.295348        2.000000        0.01019833        0.05666662        0.00023235
     251         -0.295087        2.000000        0.00000579        0.00004007        0.00000014
     252         -0.294369        2.000000        0.00035130        0.00186583        0.00001102
     253         -0.294183        2.000000        0.00004293        0.00025777        0.00000173
     254         -0.293640        2.000000        0.00000615        0.00007660        0.00000087
     255         -0.293246        2.000000        0.00008904        0.00052151        0.00000534
     256         -0.292577        2.000000        0.00003025        0.00019570        0.00000205
     257         -0.291994        2.000000        0.00018245        0.00092357        0.00000128
     258         -0.291705        2.000000        0.00000309        0.00008515        0.00000104
     259         -0.290928        2.000000        0.00018544        0.00056824        0.00000332
     260         -0.290306        2.000000        0.00013206        0.00116008        0.00000350
     261         -0.289901        2.000000        0.00047555        0.00467295        0.00000862
     262         -0.289451        2.000000        0.00106512        0.00702987        0.00003293
     263         -0.289043        2.000000        0.00077621        0.00455063        0.00001513
     264         -0.288015        2.000000        0.00093485        0.00471820        0.00001373
     265         -0.287861        2.000000        0.00039959        0.00178798        0.00000781
     266         -0.286936        2.000000        0.00006070        0.00029824        0.00000155
     267         -0.286667        2.000000        0.00006720        0.00033061        0.00000061
     268         -0.286302        2.000000        0.00087555        0.00399767        0.00002022
     269         -0.285607        2.000000        0.00000857        0.00009770        0.00000075
     270         -0.285328        2.000000        0.00007457        0.00028884        0.00000067
     271         -0.285085        2.000000        0.00010044        0.00054222        0.00000518
     272         -0.284841        2.000000        0.00001775        0.00012626        0.00000035
     273         -0.284131        2.000000        0.00010347        0.00039817        0.00000085
     274         -0.283572        2.000000        0.00000322        0.00023864        0.00000229
     275         -0.283249        2.000000        0.00003541        0.00008526        0.00000212
     276         -0.283050        2.000000        0.00020807        0.00070342        0.00000976
     277         -0.282957        2.000000        0.00000423        0.00001492        0.00000023
     278         -0.282638        2.000000        0.00005006        0.00011456        0.00000215
     279         -0.282393        2.000000        0.00114812        0.00391312        0.00009346
     280         -0.282190        2.000000        0.00006411        0.00032263        0.00000469
     281         -0.281812        2.000000        0.00000044        0.00004021        0.00000034
     282         -0.281718        2.000000        0.00021398        0.00058736        0.00000301
     283         -0.281529        2.000000        0.00002420        0.00011298        0.00000046
     284         -0.281304        2.000000        0.00002179        0.00012959        0.00000123
     285         -0.281056        2.000000        0.00006075        0.00008478        0.00000229
     286         -0.280948        2.000000        0.00000902        0.00007310        0.00000023
     287         -0.280843        2.000000        0.00010809        0.00046888        0.00000399
     288         -0.280780        2.000000        0.00003253        0.00016224        0.00000104
     289         -0.280282        2.000000        0.00009327        0.00051833        0.00000064
     290         -0.279956        2.000000        0.00001497        0.00011672        0.00000004
     291         -0.279807        2.000000        0.00000600        0.00005740        0.00000023
     292         -0.279686        2.000000        0.00005943        0.00044868        0.00000110
     293         -0.279589        2.000000        0.00003304        0.00010893        0.00000015
     294         -0.279495        2.000000        0.00008109        0.00057122        0.00000012
     295         -0.279217        2.000000        0.00004225        0.00012346        0.00000157
     296         -0.279093        2.000000        0.00055769        0.00474826        0.00000824
     297         -0.278951        2.000000        0.00006060        0.00051666        0.00000156
     298         -0.278592        2.000000        0.00010632        0.00102292        0.00000242
     299         -0.278433        2.000000        0.00007816        0.00077045        0.00000052
     300         -0.278210        2.000000        0.00011874        0.00041257        0.00000125
     301         -0.278135        2.000000        0.00002050        0.00005841        0.00000033
     302         -0.278031        2.000000        0.00002631        0.00013110        0.00000325
     303         -0.277650        2.000000        0.00030940        0.00116619        0.00000538
     304         -0.277312        2.000000        0.00037496        0.00130687        0.00000261
     305         -0.276990        2.000000        0.00063330        0.00184875        0.00001271
     306         -0.276609        2.000000        0.00000900        0.00008006        0.00000176
     307         -0.276405        2.000000        0.00025935        0.00080946        0.00001424