# Projected DOS for list 91 of 3 atoms, at iteration step i = 0, E(Fermi) =    -0.060510 a.u.
#     MO Eigenvalue [a.u.]      Occupation                 s                 p                 d
       1         -0.895259        2.000000        0.00001753        0.00002332        0.00000081
       2         -0.868125        2.000000        0.00000055        0.00000055        0.00000004
       3         -0.864615        2.000000        0.00000144        0.00000153        0.00000011
       4         -0.857993        2.000000        0.00000000        0.00000000        0.00000000
       5         -0.853826        2.000000        0.00000000        0.00000001        0.00000000
       6         -0.850378        2.000000        0.00000008        0.00000015        0.00000000
       7         -0.848222        2.000000        0.00000021        0.00000204        0.00000003
       8         -0.847335        2.000000        0.00000001        0.00000001        0.00000000
       9         -0.842977        2.000000        0.00018153        0.00022117        0.00000110
      10         -0.841504        2.000000        0.00000111        0.00000217        0.00000001
      11         -0.840654        2.000000        0.00000016        0.00000016        0.00000000
      12         -0.839688        2.000000        0.00000002        0.00000002        0.00000000
      13         -0.839172        2.000000        0.00000009        0.00000013        0.00000000
      14         -0.838522        2.000000        0.00000000        0.00000001        0.00000000
      15         -0.837015        2.000000        0.00000012        0.00000059        0.00000000
      16         -0.832753        2.000000        0.00000023        0.00000093        0.00000000
      17         -0.832000        2.000000        0.00000014        0.00000100        0.00000001
      18         -0.831644        2.000000        0.00000122        0.00000042        0.00000001
      19         -0.830027        2.000000        0.00002186        0.00001734        0.00000067
      20         -0.829447        2.000000        0.00000224        0.00000690        0.00000020
      21         -0.828640        2.000000        0.00000104        0.00000362        0.00000008
      22         -0.828147        2.000000        0.00004681        0.00005668        0.00000183
      23         -0.827394        2.000000        0.00004264        0.00004201        0.00000176
      24         -0.826637        2.000000        0.00000849        0.00000524        0.00000018
      25         -0.825864        2.000000        0.00000048        0.00000104        0.00000003
      26         -0.825007        2.000000        0.00014187        0.00019613        0.00000680
      27         -0.824149        2.000000        0.00003029        0.00025054        0.00000246
      28         -0.823003        2.000000        0.00065970        0.00041512        0.00001761
      29         -0.821982        2.000000        0.00001486        0.00009177        0.00000078
      30         -0.820560        2.000000        0.00017026        0.00005122        0.00000286
      31         -0.820223        2.000000        0.00001023        0.00003235        0.00000013
      32         -0.820029        2.000000        0.00030382        0.00019267        0.00000772
      33         -0.819390        2.000000        0.00095192        0.00058240        0.00002330
      34         -0.818664        2.000000        0.00003102        0.00010605        0.00000214
      35         -0.817548        2.000000        0.00015501        0.00038213        0.00000214
      36         -0.816472        2.000000        0.00008958        0.00002351        0.00000101
      37         -0.815444        2.000000        0.00005098        0.00001404        0.00000045
      38         -0.814805        2.000000        0.00041513        0.00021024        0.00000685
      39         -0.814124        2.000000        0.00000276        0.00002205        0.00000021
      40         -0.813968        2.000000        0.00005346        0.00005483        0.00000152
      41         -0.813053        2.000000        0.00003074        0.00000812        0.00000020
      42         -0.812601        2.000000        0.00019410        0.00004722        0.00000144
      43         -0.811948        2.000000        0.00002024        0.00000525        0.00000015
      44         -0.811687        2.000000        0.00001022        0.00000590        0.00000004
      45         -0.810574        2.000000        0.00435455        0.00272756        0.00008102
      46         -0.809310        2.000000        0.00001256        0.00001045        0.00000029
      47         -0.808268        2.000000        0.00371129        0.00140315        0.00004718
      48         -0.807324        2.000000        0.00029971        0.00006933        0.00000250
      49         -0.806602        2.000000        0.00008746        0.00002222        0.00000047
      50         -0.806376        2.000000        0.00403460        0.00181456        0.00005473
      51         -0.806147        2.000000        0.00209152        0.00083096        0.00002590
      52         -0.804835        2.000000        0.00001633        0.00007226        0.00000103
      53         -0.804321        2.000000        0.00011335        0.00021919        0.00000368
      54         -0.803943        2.000000        0.00000421        0.00003576        0.00000041
      55         -0.803401        2.000000        0.00021664        0.00040870        0.00000286
      56         -0.802648        2.000000        0.00002735        0.00000767        0.00000024
      57         -0.801912        2.000000        0.00000642        0.00000312        0.00000003
      58         -0.801342        2.000000        0.00015293        0.00002952        0.00000065
      59         -0.800594        2.000000        0.00009458        0.00007042        0.00000140
      60         -0.799945        2.000000        0.00000510        0.00000238        0.00000006
      61         -0.799254        2.000000        0.00006723        0.00003116        0.00000073
      62         -0.798331        2.000000        0.00000067        0.00000098        0.00000001
      63         -0.797356        2.000000        0.00002959        0.00000936        0.00000007
      64         -0.795713        2.000000        0.00000241        0.00000191        0.00000002
      65         -0.795144        2.000000        0.00002650        0.00000734        0.00000020
      66         -0.794508        2.000000        0.00001559        0.00000465        0.00000004
      67         -0.793501        2.000000        0.00076991        0.00017306        0.00000317
      68         -0.792888        2.000000        0.00020220        0.00006489        0.00000121
      69         -0.792771        2.000000        0.00014738        0.00003442        0.00000069
      70         -0.792166        2.000000        0.00185681        0.00053750        0.00000979
      71         -0.791795        2.000000        0.00013099        0.00003797        0.00000067
      72         -0.790466        2.000000        0.00019535        0.00004688        0.00000083
      73         -0.789691        2.000000        0.00000183        0.00000407        0.00000003
      74         -0.789018        2.000000        0.00000583        0.00000166        0.00000003
      75         -0.788284        2.000000        0.00002204        0.00000431        0.00000006
      76         -0.787044        2.000000        0.00005806        0.00000854        0.00000015
      77         -0.785765        2.000000        0.00011026        0.00012210        0.00000130
      78         -0.783215        2.000000        0.01903151        0.00576430        0.00009120
      79         -0.782853        2.000000        0.00688947        0.00202977        0.00003266
      80         -0.782388        2.000000        0.00144037        0.00033741        0.00000658
      81         -0.781821        2.000000        0.00037161        0.00015474        0.00000250
      82         -0.780108        2.000000        0.00010991        0.00001697        0.00000047
      83         -0.778906        2.000000        0.03213188        0.01557659        0.00023285
      84         -0.778076        2.000000        0.00004863        0.00020645        0.00000152
      85         -0.775317        2.000000        0.00000013        0.00000025        0.00000000
      86         -0.773086        2.000000        0.00000146        0.00000866        0.00000003
      87         -0.772920        2.000000        0.00034794        0.00035387        0.00000250
      88         -0.771409        2.000000        0.00000298        0.00000033        0.00000001
      89         -0.769725        2.000000        0.00002910        0.00002430        0.00000013
      90         -0.769226        2.000000        0.00004997        0.00004108        0.00000024
      91         -0.767566        2.000000        0.00004742        0.00003291        0.00000021
      92         -0.766737        2.000000        0.00000129        0.00000585        0.00000004
      93         -0.755845        2.000000        0.00000511        0.00000172        0.00000003
      94         -0.752538        2.000000        0.00004815        0.00001583        0.00000010
      95         -0.747161        2.000000        0.70036265        0.18219954        0.00121755
      96         -0.736999        2.000000        0.00001323        0.00000618        0.00000002
      97         -0.726419        2.000000        0.00026730        0.00019588        0.00000114
      98         -0.719129        2.000000        0.00020707        0.00029140        0.00000158
      99         -0.696511        2.000000        0.00000334        0.00003088        0.00000022
     100         -0.460315        2.000000        0.00000985        0.00004412        0.00000129
     101         -0.427906        2.000000        0.00000049        0.00000210        0.00000004
     102         -0.424376        2.000000        0.00000007        0.00000023        0.00000000
     103         -0.405781        2.000000        0.00000001        0.00000007        0.00000000
     104         -0.401299        2.000000        0.00000000        0.00000000        0.00000000
     105         -0.398347        2.000000        0.00000003        0.00000008        0.00000000
     106         -0.398267        2.000000        0.00000039        0.00000097        0.00000003
     107         -0.397295        2.000000        0.00001170        0.00004335        0.00000080
     108         -0.395753        2.000000        0.00000086        0.00000388        0.00000014
     109         -0.395158        2.000000        0.00000024        0.00000130        0.00000000
     110         -0.394493        2.000000        0.00000018        0.00000071        0.00000001
     111         -0.394192        2.000000        0.00000227        0.00001042        0.00000005
     112         -0.393919        2.000000        0.00001028        0.00005427        0.00000012
     113         -0.393017        2.000000        0.00000909        0.00003787        0.00000121
     114         -0.391793        2.000000        0.00000002        0.00000019        0.00000001
     115         -0.389280        2.000000        0.00000001        0.00000006        0.00000000
     116         -0.388145        2.000000        0.00000662        0.00001621        0.00000037
     117         -0.387090        2.000000        0.00000025        0.00000166        0.00000005
     118         -0.386138        2.000000        0.00002037        0.00015357        0.00000397
     119         -0.385161        2.000000        0.00000900        0.00006464        0.00000165
     120         -0.384984        2.000000        0.00000005        0.00000059        0.00000001
     121         -0.383823        2.000000        0.00000000        0.00000002        0.00000000
     122         -0.383101        2.000000        0.00000007        0.00000026        0.00000000
     123         -0.383025        2.000000        0.00000123        0.00001214        0.00000024
     124         -0.381208        2.000000        0.00000011        0.00000067        0.00000003
     125         -0.380660        2.000000        0.00000045        0.00000427        0.00000011
     126         -0.380323        2.000000        0.00000038        0.00000427        0.00000009
     127         -0.379623        2.000000        0.00000053        0.00000473        0.00000012
     128         -0.379161        2.000000        0.00000004        0.00000023        0.00000000
     129         -0.378115        2.000000        0.00000080        0.00000728        0.00000014
     130         -0.377757        2.000000        0.00000013        0.00000065        0.00000002
     131         -0.377213        2.000000        0.00000033        0.00000087        0.00000001
     132         -0.376655        2.000000        0.00000121        0.00000423        0.00000007
     133         -0.376089        2.000000        0.00000090        0.00000306        0.00000010
     134         -0.375522        2.000000        0.00000114        0.00000644        0.00000021
     135         -0.373953        2.000000        0.00000379        0.00002738        0.00000101
     136         -0.373564        2.000000        0.00000030        0.00000099        0.00000002
     137         -0.372991        2.000000        0.00002247        0.00017229        0.00000600
     138         -0.372433        2.000000        0.00001424        0.00008987        0.00000288
     139         -0.372037        2.000000        0.00000214        0.00001722        0.00000062
     140         -0.371632        2.000000        0.00002117        0.00016396        0.00000578
     141         -0.371006        2.000000        0.00002404        0.00016362        0.00000580
     142         -0.369840        2.000000        0.00324840        0.02520944        0.00084956
     143         -0.369635        2.000000        0.00029793        0.00233399        0.00007791
     144         -0.369153        2.000000        0.00000012        0.00000088        0.00000003
     145         -0.369131        2.000000        0.00001226        0.00008685        0.00000273
     146         -0.368498        2.000000        0.00000004        0.00000015        0.00000000
     147         -0.367984        2.000000        0.00000088        0.00000397        0.00000013
     148         -0.367257        2.000000        0.00000027        0.00000180        0.00000006
     149         -0.366951        2.000000        0.00000043        0.00000326        0.00000011
     150         -0.366882        2.000000        0.00000527        0.00003302        0.00000114
     151         -0.366558        2.000000        0.00000053        0.00000337        0.00000011
     152         -0.366087        2.000000        0.00000072        0.00000483        0.00000015
     153         -0.365532        2.000000        0.00000146        0.00000969        0.00000035
     154         -0.365292        2.000000        0.00000193        0.00001268        0.00000042
     155         -0.364873        2.000000        0.00001372        0.00008972        0.00000310
     156         -0.364499        2.000000        0.00000189        0.00001160        0.00000040
     157         -0.364385        2.000000        0.00003617        0.00020417        0.00000604
     158         -0.363409        2.000000        0.00000009        0.00000051        0.00000002
     159         -0.362731        2.000000        0.00000870        0.00004847        0.00000147
     160         -0.361690        2.000000        0.00000606        0.00001644        0.00000046
     161         -0.361463        2.000000        0.00002436        0.00013402        0.00000434
     162         -0.360695        2.000000        0.00000018        0.00000102        0.00000003
     163         -0.359909        2.000000        0.00001434        0.00007699        0.00000201
     164         -0.358869        2.000000        0.00001325        0.00004907        0.00000074
     165         -0.358762        2.000000        0.00013441        0.00050215        0.00000766
     166         -0.358424        2.000000        0.00000070        0.00000770        0.00000011
     167         -0.357749        2.000000        0.00004586        0.00013355        0.00000159
     168         -0.357432        2.000000        0.00000349        0.00003941        0.00000122
     169         -0.356226        2.000000        0.00000029        0.00000090        0.00000001
     170         -0.355206        2.000000        0.00000034        0.00000268        0.00000003
     171         -0.354151        2.000000        0.00000022        0.00000177        0.00000004
     172         -0.353675        2.000000        0.00000307        0.00002744        0.00000085
     173         -0.353241        2.000000        0.00000018        0.00000101        0.00000002
     174         -0.352384        2.000000        0.00000836        0.00003112        0.00000066
     175         -0.349281        2.000000        0.00000359        0.00001079        0.00000015
     176         -0.348101        2.000000        0.00003180        0.00008943        0.00000196
     177         -0.347056        2.000000        0.00000860        0.00002180        0.00000045
     178         -0.346421        2.000000        0.00000224        0.00000629        0.00000017
     179         -0.346099        2.000000        0.00018633        0.00053251        0.00001176
     180         -0.344626        2.000000        0.00006837        0.00018952        0.00000430
     181         -0.344227        2.000000        0.01451338        0.04009822        0.00090195
     182         -0.344158        2.000000        0.00002946        0.00008209        0.00000178
     183         -0.343279        2.000000        0.00003100        0.00008466        0.00000193
     184         -0.342186        2.000000        0.00000211        0.00000535        0.00000016
     185         -0.341638        2.000000        0.00000030        0.00000092        0.00000001
     186         -0.341223        2.000000        0.00004640        0.00012068        0.00000277
     187         -0.341051        2.000000        0.00495804        0.01256910        0.00030062
     188         -0.340810        2.000000        0.00000001        0.00000004        0.00000000
     189         -0.340344        2.000000        0.00000221        0.00000565        0.00000014
     190         -0.340103        2.000000        0.00008513        0.00020122        0.00000567
     191         -0.339538        2.000000        0.00001044        0.00002546        0.00000066
     192         -0.338904        2.000000        0.00000181        0.00000468        0.00000011
     193         -0.338737        2.000000        0.00012660        0.00032163        0.00000779
     194         -0.337951        2.000000        0.00000392        0.00001445        0.00000023
     195         -0.337180        2.000000        0.00000264        0.00000633        0.00000049
     196         -0.336960        2.000000        0.00000879        0.00002263        0.00000053
     197         -0.336163        2.000000        0.00000032        0.00000216        0.00000002
     198         -0.335733        2.000000        0.00000400        0.00001705        0.00000035
     199         -0.334956        2.000000        0.00000353        0.00000923        0.00000027
     200         -0.333834        2.000000        0.00002919        0.00010982        0.00000333
     201         -0.331670        2.000000        0.00000242        0.00000907        0.00000020
     202         -0.330715        2.000000        0.00001010        0.00002682        0.00000085
     203         -0.327469        2.000000        0.00016366        0.00061064        0.00000535
     204         -0.326924        2.000000        0.00000006        0.00000068        0.00000001
     205         -0.319799        2.000000        0.00006192        0.00016026        0.00000344
     206         -0.319625        2.000000        0.21762152        0.56155995        0.01203783
     207         -0.318771        2.000000        0.00176983        0.00459092        0.00009769
     208         -0.318487        2.000000        0.00000100        0.00000259        0.00000006
     209         -0.318151        2.000000        0.00000062        0.00000156        0.00000004
     210         -0.317254        2.000000        0.00000045        0.00000117        0.00000002
     211         -0.316615        2.000000        0.00000037        0.00000095        0.00000002
     212         -0.316317        2.000000        0.00024528        0.00065212        0.00001389
     213         -0.315885        2.000000        0.00000019        0.00000047        0.00000001
     214         -0.315512        2.000000        0.00000014        0.00000037        0.00000001
     215         -0.314742        2.000000        0.00000014        0.00000036        0.00000001
     216         -0.314240        2.000000        0.00000001        0.00000002        0.00000000
     217         -0.313093        2.000000        0.00000020        0.00000053        0.00000001
     218         -0.312538        2.000000        0.00000020        0.00000052        0.00000001
     219         -0.312396        2.000000        0.00000025        0.00000066        0.00000001
     220         -0.312037        2.000000        0.00000001        0.00000002        0.00000000
     221         -0.310598        2.000000        0.00000023        0.00000067        0.00000001
     222         -0.310221        2.000000        0.00000001        0.00000005        0.00000000
     223         -0.309408        2.000000        0.00000004        0.00000014        0.00000000
     224         -0.309395        2.000000        0.00000018        0.00000053        0.00000001
     225         -0.309234        2.000000        0.00000008        0.00000023        0.00000000
     226         -0.308381        2.000000        0.00000064        0.00000352        0.00000007
     227         -0.308250        2.000000        0.00000044        0.00000484        0.00000009
     228         -0.308097        2.000000        0.00000026        0.00000085        0.00000002
     229         -0.307179        2.000000        0.00000344        0.00001521        0.00000030
     230         -0.305966        2.000000        0.00002079        0.00010502        0.00000209
     231         -0.305190        2.000000        0.00046042        0.00232607        0.00004539
     232         -0.305170        2.000000        0.00003555        0.00028726        0.00000521
     233         -0.303881        2.000000        0.00010297        0.00102100        0.00001484
     234         -0.303186        2.000000        0.00000057        0.00000481        0.00000008
     235         -0.302644        2.000000        0.00000279        0.00001968        0.00000034
     236         -0.302137        2.000000        0.00001741        0.00012993        0.00000227
     237         -0.301410        2.000000        0.00001079        0.00008281        0.00000145
     238         -0.301270        2.000000        0.00001012        0.00007291        0.00000126
     239         -0.300504        2.000000        0.00030799        0.00233558        0.00004016
     240         -0.300347        2.000000        0.00001067        0.00006565        0.00000109
     241         -0.300010        2.000000        0.00002711        0.00009931        0.00000145
     242         -0.298878        2.000000        0.00000299        0.00002262        0.00000036
     243         -0.298505        2.000000        0.00000184        0.00001551        0.00000026
     244         -0.297847        2.000000        0.00000128        0.00001005        0.00000015
     245         -0.297156        2.000000        0.00000094        0.00000729        0.00000010
     246         -0.297046        2.000000        0.00000002        0.00000004        0.00000000
     247         -0.296671        2.000000        0.00000027        0.00000177        0.00000002
     248         -0.296618        2.000000        0.00000013        0.00000076        0.00000001
     249         -0.295969        2.000000        0.00000254        0.00001319        0.00000011
     250         -0.295348        2.000000        0.00000326        0.00001376        0.00000012
     251         -0.295087        2.000000        0.00000001        0.00000005        0.00000000
     252         -0.294369        2.000000        0.00000017        0.00000070        0.00000001
     253         -0.294183        2.000000        0.00000007        0.00000029        0.00000000
     254         -0.293640        2.000000        0.00000004        0.00000009        0.00000000
     255         -0.293246        2.000000        0.00000010        0.00000044        0.00000001
     256         -0.292577        2.000000        0.00000002        0.00000010        0.00000000
     257         -0.291994        2.000000        0.00000255        0.00001014        0.00000025
     258         -0.291705        2.000000        0.00000001        0.00000005        0.00000000
     259         -0.290928        2.000000        0.00001272        0.00005598        0.00000127
     260         -0.290306        2.000000        0.00002892        0.00011869        0.00000279
     261         -0.289901        2.000000        0.00006580        0.00029584        0.00000651
     262         -0.289451        2.000000        0.00003158        0.00013240        0.00000303
     263         -0.289043        2.000000        0.00001086        0.00004680        0.00000105
     264         -0.288015        2.000000        0.00000237        0.00001036        0.00000023
     265         -0.287861        2.000000        0.00000005        0.00000028        0.00000001
     266         -0.286936        2.000000        0.00000013        0.00000048        0.00000001
     267         -0.286667        2.000000        0.00000005        0.00000028        0.00000001
     268         -0.286302        2.000000        0.00000110        0.00000448        0.00000011
     269         -0.285607        2.000000        0.00000032        0.00000093        0.00000002
     270         -0.285328        2.000000        0.00000014        0.00000046        0.00000001
     271         -0.285085        2.000000        0.00000008        0.00000026        0.00000001
     272         -0.284841        2.000000        0.00000071        0.00000261        0.00000005
     273         -0.284131        2.000000        0.00000014        0.00000049        0.00000001
     274         -0.283572        2.000000        0.00000147        0.00000499        0.00000009
     275         -0.283249        2.000000        0.00000195        0.00000600        0.00000010
     276         -0.283050        2.000000        0.00000241        0.00000738        0.00000010
     277         -0.282957        2.000000        0.00000010        0.00000033        0.00000000
     278         -0.282638        2.000000        0.00000315        0.00000947        0.00000014
     279         -0.282393        2.000000        0.00009579        0.00028728        0.00000419
     280         -0.282190        2.000000        0.00000018        0.00000060        0.00000001
     281         -0.281812        2.000000        0.00000052        0.00000165        0.00000002
     282         -0.281718        2.000000        0.00000825        0.00002830        0.00000035
     283         -0.281529        2.000000        0.00002856        0.00009198        0.00000125
     284         -0.281304        2.000000        0.00006188        0.00019917        0.00000266
     285         -0.281056        2.000000        0.00012706        0.00051825        0.00000628
     286         -0.280948        2.000000        0.00002392        0.00010096        0.00000116
     287         -0.280843        2.000000        0.00017244        0.00094543        0.00001162
     288         -0.280780        2.000000        0.00000126        0.00001219        0.00000027
     289         -0.280282        2.000000        0.00003078        0.00008712        0.00000160
     290         -0.279956        2.000000        0.00000512        0.00001526        0.00000026
     291         -0.279807        2.000000        0.00011921        0.00035033        0.00000602
     292         -0.279686        2.000000        0.00145248        0.00434472        0.00007298
     293         -0.279589        2.000000        0.00020601        0.00062608        0.00001027
     294         -0.279495        2.000000        0.00082621        0.00255925        0.00004150
     295         -0.279217        2.000000        0.00005925        0.00021474        0.00000315
     296         -0.279093        2.000000        0.00069239        0.00254974        0.00003781
     297         -0.278951        2.000000        0.00004574        0.00018171        0.00000264
     298         -0.278592        2.000000        0.00015276        0.00061402        0.00000902
     299         -0.278433        2.000000        0.00000441        0.00002248        0.00000032
     300         -0.278210        2.000000        0.00001016        0.00005072        0.00000071
     301         -0.278135        2.000000        0.00000119        0.00000984        0.00000013
     302         -0.278031        2.000000        0.00000064        0.00000584        0.00000009
     303         -0.277650        2.000000        0.00002552        0.00017484        0.00000230
     304         -0.277312        2.000000        0.00001045        0.00007626        0.00000093
     305         -0.276990        2.000000        0.00007814        0.00058531        0.00000704
     306         -0.276609        2.000000        0.00000326        0.00002382        0.00000026
     307         -0.276405        2.000000        0.00012739        0.00090498        0.00001068