# Projected DOS for list 53 of 3 atoms, at iteration step i = 0, E(Fermi) =    -0.060510 a.u.
#     MO Eigenvalue [a.u.]      Occupation                 s                 p                 d
       1         -0.895259        2.000000        0.00000000        0.00000000        0.00000000
       2         -0.868125        2.000000        0.00000002        0.00000001        0.00000000
       3         -0.864615        2.000000        0.00000004        0.00000002        0.00000000
       4         -0.857993        2.000000        0.00000037        0.00000045        0.00000000
       5         -0.853826        2.000000        0.00000249        0.00000044        0.00000001
       6         -0.850378        2.000000        0.00000015        0.00000009        0.00000000
       7         -0.848222        2.000000        0.00000024        0.00000013        0.00000000
       8         -0.847335        2.000000        0.00000293        0.00000069        0.00000001
       9         -0.842977        2.000000        0.00003226        0.00000671        0.00000009
      10         -0.841504        2.000000        0.00709908        0.00143617        0.00001971
      11         -0.840654        2.000000        0.00748201        0.00151411        0.00003040
      12         -0.839688        2.000000        0.00092346        0.00368631        0.00009317
      13         -0.839172        2.000000        0.00260369        0.00212723        0.00003624
      14         -0.838522        2.000000        0.00058447        0.00049220        0.00000611
      15         -0.837015        2.000000        0.00002947        0.00002884        0.00000042
      16         -0.832753        2.000000        0.00011242        0.00016986        0.00000187
      17         -0.832000        2.000000        0.00032706        0.00082739        0.00001255
      18         -0.831644        2.000000        0.00021615        0.00048083        0.00000729
      19         -0.830027        2.000000        0.00011528        0.00010712        0.00000152
      20         -0.829447        2.000000        0.00091199        0.00110935        0.00000999
      21         -0.828640        2.000000        0.00174744        0.00234842        0.00003067
      22         -0.828147        2.000000        0.00178276        0.00150190        0.00002868
      23         -0.827394        2.000000        0.00018447        0.00017135        0.00000446
      24         -0.826637        2.000000        0.00729387        0.00567047        0.00006994
      25         -0.825864        2.000000        0.01566774        0.01097074        0.00020031
      26         -0.825007        2.000000        0.00090243        0.00097051        0.00002395
      27         -0.824149        2.000000        0.00005033        0.00005065        0.00000110
      28         -0.823003        2.000000        0.00064304        0.00021910        0.00000251
      29         -0.821982        2.000000        0.00059390        0.00037864        0.00000581
      30         -0.820560        2.000000        0.00018445        0.00036840        0.00000727
      31         -0.820223        2.000000        0.00015956        0.00007789        0.00000077
      32         -0.820029        2.000000        0.00006833        0.00010524        0.00000098
      33         -0.819390        2.000000        0.00058618        0.00015544        0.00000260
      34         -0.818664        2.000000        0.00012344        0.00003298        0.00000073
      35         -0.817548        2.000000        0.00001445        0.00009433        0.00000149
      36         -0.816472        2.000000        0.00016141        0.00083419        0.00001459
      37         -0.815444        2.000000        0.00005538        0.00031435        0.00000946
      38         -0.814805        2.000000        0.00008696        0.00012192        0.00000259
      39         -0.814124        2.000000        0.00007535        0.00014898        0.00000307
      40         -0.813968        2.000000        0.00003327        0.00001311        0.00000016
      41         -0.813053        2.000000        0.00000247        0.00002916        0.00000006
      42         -0.812601        2.000000        0.00090807        0.00049989        0.00001089
      43         -0.811948        2.000000        0.00070062        0.00047525        0.00000555
      44         -0.811687        2.000000        0.00033891        0.00029881        0.00000237
      45         -0.810574        2.000000        0.00203938        0.00045364        0.00000886
      46         -0.809310        2.000000        0.00001314        0.00000899        0.00000006
      47         -0.808268        2.000000        0.00325107        0.00065806        0.00002065
      48         -0.807324        2.000000        0.00000081        0.00001433        0.00000021
      49         -0.806602        2.000000        0.00015410        0.00031997        0.00000269
      50         -0.806376        2.000000        0.00237454        0.00024356        0.00000638
      51         -0.806147        2.000000        0.00015580        0.00052904        0.00000839
      52         -0.804835        2.000000        0.00029695        0.00003654        0.00000141
      53         -0.804321        2.000000        0.01021476        0.00123479        0.00002530
      54         -0.803943        2.000000        0.00018354        0.00012075        0.00000049
      55         -0.803401        2.000000        0.00284209        0.00047872        0.00000530
      56         -0.802648        2.000000        0.00271737        0.00243320        0.00002188
      57         -0.801912        2.000000        0.00044645        0.00076037        0.00000956
      58         -0.801342        2.000000        0.00004334        0.00025230        0.00000284
      59         -0.800594        2.000000        0.00531290        0.00098406        0.00000321
      60         -0.799945        2.000000        0.00054553        0.00008332        0.00000051
      61         -0.799254        2.000000        0.00006861        0.00004072        0.00000020
      62         -0.798331        2.000000        0.00001995        0.00000413        0.00000001
      63         -0.797356        2.000000        0.00020500        0.00007285        0.00000064
      64         -0.795713        2.000000        0.00004175        0.00008092        0.00000037
      65         -0.795144        2.000000        0.00002647        0.00001534        0.00000048
      66         -0.794508        2.000000        0.00082751        0.00023219        0.00000130
      67         -0.793501        2.000000        0.00855938        0.00137135        0.00002441
      68         -0.792888        2.000000        0.00018138        0.00002764        0.00000150
      69         -0.792771        2.000000        0.00084813        0.00021862        0.00000106
      70         -0.792166        2.000000        0.00191223        0.00034126        0.00000747
      71         -0.791795        2.000000        0.00050711        0.00012794        0.00000158
      72         -0.790466        2.000000        0.00044389        0.00013460        0.00000059
      73         -0.789691        2.000000        0.00006178        0.00002209        0.00000044
      74         -0.789018        2.000000        0.00113558        0.00020287        0.00000096
      75         -0.788284        2.000000        0.00009990        0.00002632        0.00000068
      76         -0.787044        2.000000        0.00868431        0.00263245        0.00000292
      77         -0.785765        2.000000        0.00316970        0.00069197        0.00000475
      78         -0.783215        2.000000        0.00000491        0.00000529        0.00000010
      79         -0.782853        2.000000        0.00156246        0.00035099        0.00000197
      80         -0.782388        2.000000        0.00008498        0.00003959        0.00000004
      81         -0.781821        2.000000        0.00000224        0.00000269        0.00000001
      82         -0.780108        2.000000        0.00082232        0.00136631        0.00001474
      83         -0.778906        2.000000        0.00001328        0.00000202        0.00000007
      84         -0.778076        2.000000        0.00000004        0.00000004        0.00000000
      85         -0.775317        2.000000        0.00006635        0.00011714        0.00000525
      86         -0.773086        2.000000        0.00002459        0.00001161        0.00000004
      87         -0.772920        2.000000        0.00090642        0.00022048        0.00000116
      88         -0.771409        2.000000        0.00417572        0.00114867        0.00000476
      89         -0.769725        2.000000        0.50183211        0.13156924        0.00071376
      90         -0.769226        2.000000        0.00946031        0.00278980        0.00001099
      91         -0.767566        2.000000        0.14809096        0.04044123        0.00021041
      92         -0.766737        2.000000        0.00178841        0.00049968        0.00000249
      93         -0.755845        2.000000        0.00027890        0.00009694        0.00000040
      94         -0.752538        2.000000        0.00094754        0.00034912        0.00000148
      95         -0.747161        2.000000        0.00000001        0.00000008        0.00000000
      96         -0.736999        2.000000        0.00002808        0.00001289        0.00000008
      97         -0.726419        2.000000        0.00000002        0.00000001        0.00000000
      98         -0.719129        2.000000        0.00000039        0.00000033        0.00000000
      99         -0.696511        2.000000        0.00000001        0.00000001        0.00000000
     100         -0.460315        2.000000        0.00000000        0.00000000        0.00000000
     101         -0.427906        2.000000        0.00000001        0.00000004        0.00000000
     102         -0.424376        2.000000        0.00000000        0.00000000        0.00000000
     103         -0.405781        2.000000        0.00000003        0.00000019        0.00000000
     104         -0.401299        2.000000        0.00000099        0.00000997        0.00000012
     105         -0.398347        2.000000        0.00000177        0.00000517        0.00000020
     106         -0.398267        2.000000        0.00000677        0.00008947        0.00000128
     107         -0.397295        2.000000        0.00000227        0.00001168        0.00000020
     108         -0.395753        2.000000        0.00005645        0.00074852        0.00000902
     109         -0.395158        2.000000        0.00005177        0.00062302        0.00000564
     110         -0.394493        2.000000        0.00150420        0.01940399        0.00023109
     111         -0.394192        2.000000        0.00014199        0.00216479        0.00002083
     112         -0.393919        2.000000        0.00003020        0.00007106        0.00000225
     113         -0.393017        2.000000        0.00005676        0.00020240        0.00001021
     114         -0.391793        2.000000        0.00372359        0.01364223        0.00063108
     115         -0.389280        2.000000        0.00001358        0.00005450        0.00000088
     116         -0.388145        2.000000        0.00002685        0.00007261        0.00000301
     117         -0.387090        2.000000        0.00003923        0.00011880        0.00000632
     118         -0.386138        2.000000        0.00000333        0.00001673        0.00000057
     119         -0.385161        2.000000        0.00000261        0.00005716        0.00000023
     120         -0.384984        2.000000        0.00003824        0.00013236        0.00000590
     121         -0.383823        2.000000        0.00000588        0.00003703        0.00000093
     122         -0.383101        2.000000        0.00000304        0.00000842        0.00000036
     123         -0.383025        2.000000        0.00001148        0.00005950        0.00000234
     124         -0.381208        2.000000        0.00000240        0.00002884        0.00000039
     125         -0.380660        2.000000        0.00005192        0.00031317        0.00000650
     126         -0.380323        2.000000        0.00009132        0.00061470        0.00001891
     127         -0.379623        2.000000        0.00015244        0.00045976        0.00002640
     128         -0.379161        2.000000        0.00004737        0.00021495        0.00000573
     129         -0.378115        2.000000        0.00049794        0.00314583        0.00002417
     130         -0.377757        2.000000        0.00000758        0.00018262        0.00000175
     131         -0.377213        2.000000        0.00000259        0.00002367        0.00000023
     132         -0.376655        2.000000        0.00012750        0.00021689        0.00000722
     133         -0.376089        2.000000        0.00006579        0.00032193        0.00001422
     134         -0.375522        2.000000        0.00016300        0.00120187        0.00002720
     135         -0.373953        2.000000        0.00002602        0.00012250        0.00000701
     136         -0.373564        2.000000        0.00013915        0.00045485        0.00002250
     137         -0.372991        2.000000        0.00016564        0.00097234        0.00001123
     138         -0.372433        2.000000        0.00000627        0.00006629        0.00000135
     139         -0.372037        2.000000        0.00003112        0.00004516        0.00000350
     140         -0.371632        2.000000        0.00003104        0.00009027        0.00000301
     141         -0.371006        2.000000        0.00002555        0.00007731        0.00000149
     142         -0.369840        2.000000        0.00001663        0.00004476        0.00000101
     143         -0.369635        2.000000        0.00008920        0.00032218        0.00000597
     144         -0.369153        2.000000        0.00001315        0.00009861        0.00000046
     145         -0.369131        2.000000        0.00036406        0.00177340        0.00001194
     146         -0.368498        2.000000        0.00003161        0.00007575        0.00000228
     147         -0.367984        2.000000        0.00000146        0.00001214        0.00000029
     148         -0.367257        2.000000        0.00001346        0.00004163        0.00000101
     149         -0.366951        2.000000        0.00001077        0.00013946        0.00000124
     150         -0.366882        2.000000        0.00004217        0.00017069        0.00000760
     151         -0.366558        2.000000        0.00000597        0.00002724        0.00000074
     152         -0.366087        2.000000        0.00002323        0.00013593        0.00000223
     153         -0.365532        2.000000        0.00018343        0.00054630        0.00001364
     154         -0.365292        2.000000        0.00139059        0.00393611        0.00010453
     155         -0.364873        2.000000        0.00006069        0.00014734        0.00000227
     156         -0.364499        2.000000        0.00010888        0.00041891        0.00000929
     157         -0.364385        2.000000        0.00041692        0.00108983        0.00001792
     158         -0.363409        2.000000        0.00000252        0.00000956        0.00000027
     159         -0.362731        2.000000        0.00316821        0.00955876        0.00015512
     160         -0.361690        2.000000        0.00003209        0.00009518        0.00000163
     161         -0.361463        2.000000        0.00014769        0.00069802        0.00000682
     162         -0.360695        2.000000        0.00130752        0.00431170        0.00005671
     163         -0.359909        2.000000        0.00218603        0.00545849        0.00011629
     164         -0.358869        2.000000        0.00961159        0.02389826        0.00052752
     165         -0.358762        2.000000        0.00040511        0.00101638        0.00002231
     166         -0.358424        2.000000        0.00523983        0.01409820        0.00026640
     167         -0.357749        2.000000        0.00009738        0.00024704        0.00000319
     168         -0.357432        2.000000        0.00010291        0.00027858        0.00000555
     169         -0.356226        2.000000        0.00006825        0.00051415        0.00000771
     170         -0.355206        2.000000        0.00003698        0.00010753        0.00000170
     171         -0.354151        2.000000        0.00106226        0.00268238        0.00005393
     172         -0.353675        2.000000        0.00010180        0.00036020        0.00000561
     173         -0.353241        2.000000        0.00003767        0.00013511        0.00000139
     174         -0.352384        2.000000        0.00007670        0.00020151        0.00000415
     175         -0.349281        2.000000        0.11894550        0.30139196        0.00620904
     176         -0.348101        2.000000        0.00012597        0.00046220        0.00000677
     177         -0.347056        2.000000        0.01816923        0.04456562        0.00096052
     178         -0.346421        2.000000        0.02101297        0.05251892        0.00108944
     179         -0.346099        2.000000        0.00001687        0.00007108        0.00000128
     180         -0.344626        2.000000        0.00002057        0.00006626        0.00000142
     181         -0.344227        2.000000        0.00000130        0.00000334        0.00000008
     182         -0.344158        2.000000        0.00026743        0.00070126        0.00001551
     183         -0.343279        2.000000        0.00170946        0.00426432        0.00008861
     184         -0.342186        2.000000        0.03514423        0.08685436        0.00181768
     185         -0.341638        2.000000        0.00002467        0.00006102        0.00000135
     186         -0.341223        2.000000        0.00099708        0.00250055        0.00005135
     187         -0.341051        2.000000        0.00006779        0.00016956        0.00000348
     188         -0.340810        2.000000        0.00002076        0.00005322        0.00000096
     189         -0.340344        2.000000        0.00000909        0.00002763        0.00000060
     190         -0.340103        2.000000        0.00098596        0.00242600        0.00005167
     191         -0.339538        2.000000        0.00005014        0.00012901        0.00000244
     192         -0.338904        2.000000        0.00013955        0.00035837        0.00000680
     193         -0.338737        2.000000        0.00003757        0.00009824        0.00000199
     194         -0.337951        2.000000        0.00119634        0.00324810        0.00005955
     195         -0.337180        2.000000        0.00003516        0.00011675        0.00000170
     196         -0.336960        2.000000        0.00365320        0.00971544        0.00018364
     197         -0.336163        2.000000        0.00022081        0.00063915        0.00001087
     198         -0.335733        2.000000        0.00012650        0.00036794        0.00000619
     199         -0.334956        2.000000        0.00004299        0.00012720        0.00000256
     200         -0.333834        2.000000        0.00253254        0.00636127        0.00013379
     201         -0.331670        2.000000        0.00000781        0.00002068        0.00000042
     202         -0.330715        2.000000        0.00001351        0.00003848        0.00000074
     203         -0.327469        2.000000        0.00120380        0.00337657        0.00006645
     204         -0.326924        2.000000        0.00000847        0.00003042        0.00000067
     205         -0.319799        2.000000        0.00000973        0.00002927        0.00000043
     206         -0.319625        2.000000        0.00000385        0.00001196        0.00000020
     207         -0.318771        2.000000        0.00000029        0.00000754        0.00000012
     208         -0.318487        2.000000        0.00001071        0.00002752        0.00000050
     209         -0.318151        2.000000        0.00013355        0.00036934        0.00000580
     210         -0.317254        2.000000        0.00000007        0.00000031        0.00000000
     211         -0.316615        2.000000        0.00000041        0.00000195        0.00000002
     212         -0.316317        2.000000        0.00000079        0.00000758        0.00000015
     213         -0.315885        2.000000        0.00005146        0.00015543        0.00000204
     214         -0.315512        2.000000        0.00003677        0.00011107        0.00000142
     215         -0.314742        2.000000        0.00006569        0.00019488        0.00000240
     216         -0.314240        2.000000        0.00004022        0.00010581        0.00000175
     217         -0.313093        2.000000        0.00000903        0.00003935        0.00000039
     218         -0.312538        2.000000        0.00014463        0.00041113        0.00000594
     219         -0.312396        2.000000        0.00005439        0.00019982        0.00000201
     220         -0.312037        2.000000        0.00001576        0.00004569        0.00000069
     221         -0.310598        2.000000        0.00001066        0.00003163        0.00000041
     222         -0.310221        2.000000        0.00013326        0.00038063        0.00000572
     223         -0.309408        2.000000        0.00000531        0.00002067        0.00000019
     224         -0.309395        2.000000        0.00005398        0.00017312        0.00000205
     225         -0.309234        2.000000        0.00007004        0.00021766        0.00000280
     226         -0.308381        2.000000        0.00000436        0.00001735        0.00000037
     227         -0.308250        2.000000        0.00000087        0.00000219        0.00000007
     228         -0.308097        2.000000        0.00000021        0.00000313        0.00000002
     229         -0.307179        2.000000        0.00000730        0.00004297        0.00000020
     230         -0.305966        2.000000        0.00148090        0.00472275        0.00005614
     231         -0.305190        2.000000        0.00014697        0.00044151        0.00000589
     232         -0.305170        2.000000        0.00003089        0.00009284        0.00000128
     233         -0.303881        2.000000        0.00000234        0.00000981        0.00000023
     234         -0.303186        2.000000        0.00000046        0.00000468        0.00000003
     235         -0.302644        2.000000        0.00001466        0.00004332        0.00000091
     236         -0.302137        2.000000        0.00003860        0.00015512        0.00000103
     237         -0.301410        2.000000        0.00005712        0.00015174        0.00000266
     238         -0.301270        2.000000        0.00000242        0.00000708        0.00000017
     239         -0.300504        2.000000        0.00011601        0.00030646        0.00000510
     240         -0.300347        2.000000        0.00001036        0.00005774        0.00000044
     241         -0.300010        2.000000        0.00000906        0.00003874        0.00000055
     242         -0.298878        2.000000        0.00000246        0.00000968        0.00000005
     243         -0.298505        2.000000        0.00002665        0.00007715        0.00000148
     244         -0.297847        2.000000        0.00000796        0.00002336        0.00000058
     245         -0.297156        2.000000        0.00002088        0.00005622        0.00000141
     246         -0.297046        2.000000        0.00000550        0.00002839        0.00000027
     247         -0.296671        2.000000        0.00004251        0.00011352        0.00000244
     248         -0.296618        2.000000        0.00001545        0.00003796        0.00000060
     249         -0.295969        2.000000        0.00011697        0.00031535        0.00000697
     250         -0.295348        2.000000        0.00016075        0.00041884        0.00000795
     251         -0.295087        2.000000        0.00000104        0.00000333        0.00000007
     252         -0.294369        2.000000        0.00001379        0.00003513        0.00000056
     253         -0.294183        2.000000        0.00000040        0.00000582        0.00000004
     254         -0.293640        2.000000        0.00000299        0.00001980        0.00000017
     255         -0.293246        2.000000        0.00000853        0.00001994        0.00000028
     256         -0.292577        2.000000        0.00001369        0.00003568        0.00000047
     257         -0.291994        2.000000        0.00003650        0.00012819        0.00000358
     258         -0.291705        2.000000        0.00003270        0.00009699        0.00000176
     259         -0.290928        2.000000        0.00000576        0.00001610        0.00000019
     260         -0.290306        2.000000        0.00003206        0.00008390        0.00000048
     261         -0.289901        2.000000        0.00004962        0.00015384        0.00000516
     262         -0.289451        2.000000        0.00001177        0.00003388        0.00000073
     263         -0.289043        2.000000        0.00006038        0.00016408        0.00000356
     264         -0.288015        2.000000        0.00006577        0.00021387        0.00000591
     265         -0.287861        2.000000        0.00038667        0.00155866        0.00003945
     266         -0.286936        2.000000        0.00000175        0.00001471        0.00000013
     267         -0.286667        2.000000        0.00000321        0.00001392        0.00000042
     268         -0.286302        2.000000        0.00000545        0.00002860        0.00000043
     269         -0.285607        2.000000        0.00000545        0.00001623        0.00000010
     270         -0.285328        2.000000        0.00000631        0.00003482        0.00000089
     271         -0.285085        2.000000        0.00000812        0.00003465        0.00000093
     272         -0.284841        2.000000        0.00000138        0.00000708        0.00000015
     273         -0.284131        2.000000        0.00000888        0.00003323        0.00000098
     274         -0.283572        2.000000        0.00004569        0.00021040        0.00000422
     275         -0.283249        2.000000        0.00001130        0.00008263        0.00000167
     276         -0.283050        2.000000        0.00003106        0.00016645        0.00000340
     277         -0.282957        2.000000        0.00001340        0.00005541        0.00000116
     278         -0.282638        2.000000        0.00004563        0.00015308        0.00000287
     279         -0.282393        2.000000        0.00059573        0.00272648        0.00005078
     280         -0.282190        2.000000        0.00002675        0.00017617        0.00000299
     281         -0.281812        2.000000        0.00000050        0.00000316        0.00000003
     282         -0.281718        2.000000        0.00001132        0.00006333        0.00000151
     283         -0.281529        2.000000        0.00000198        0.00001093        0.00000030
     284         -0.281304        2.000000        0.00000958        0.00003555        0.00000069
     285         -0.281056        2.000000        0.00000303        0.00001656        0.00000038
     286         -0.280948        2.000000        0.00002551        0.00010150        0.00000145
     287         -0.280843        2.000000        0.00007969        0.00046162        0.00000628
     288         -0.280780        2.000000        0.00000448        0.00001320        0.00000018
     289         -0.280282        2.000000        0.00000458        0.00003430        0.00000058
     290         -0.279956        2.000000        0.00000186        0.00003055        0.00000038
     291         -0.279807        2.000000        0.00001335        0.00004619        0.00000082
     292         -0.279686        2.000000        0.00017365        0.00073906        0.00001052
     293         -0.279589        2.000000        0.00000063        0.00000168        0.00000001
     294         -0.279495        2.000000        0.00005245        0.00050121        0.00000637
     295         -0.279217        2.000000        0.00002488        0.00020804        0.00000187
     296         -0.279093        2.000000        0.00027378        0.00273880        0.00002711
     297         -0.278951        2.000000        0.00008197        0.00046248        0.00000510
     298         -0.278592        2.000000        0.00001189        0.00032205        0.00000346
     299         -0.278433        2.000000        0.00001038        0.00005616        0.00000070
     300         -0.278210        2.000000        0.00000772        0.00006099        0.00000106
     301         -0.278135        2.000000        0.00000047        0.00001069        0.00000007
     302         -0.278031        2.000000        0.00000177        0.00004947        0.00000020
     303         -0.277650        2.000000        0.00001908        0.00005588        0.00000156
     304         -0.277312        2.000000        0.00000805        0.00002095        0.00000103
     305         -0.276990        2.000000        0.00008068        0.00024726        0.00000918
     306         -0.276609        2.000000        0.00000573        0.00003887        0.00000080
     307         -0.276405        2.000000        0.00002615        0.00011178        0.00000359