 DBCSR| CPU Multiplication driver                                           XSMM
 DBCSR| Multrec recursion limit                                              512
 DBCSR| Multiplication stack size                                           1000
 DBCSR| Maximum elements for images                                    UNLIMITED
 DBCSR| Multiplicative factor virtual images                                   1
 DBCSR| Use multiplication densification                                       T
 DBCSR| Multiplication size stacks                                             3
 DBCSR| Use memory pool for CPU allocation                                     F
 DBCSR| Number of 3D layers                                               SINGLE
 DBCSR| Use MPI memory allocation                                              F
 DBCSR| Use RMA algorithm                                                      F
 DBCSR| Use Communication thread                                               T
 DBCSR| Communication thread load                                             87
 DBCSR| MPI: My node id                                                        0
 DBCSR| MPI: Number of nodes                                                  32
 DBCSR| OMP: Current number of threads                                         1
 DBCSR| OMP: Max number of threads                                             1
 DBCSR| Split modifier for TAS multiplication algorithm                  1.0E+00


  **** **** ******  **  PROGRAM STARTED AT               2023-12-02 21:53:55.228
 ***** ** ***  *** **   PROGRAM STARTED ON                                 cu042
 **    ****   ******    PROGRAM STARTED BY                                 jxzhu
 ***** **    ** ** **   PROGRAM PROCESS ID                                 21371
  **** **  *******  **  PROGRAM STARTED IN /public/home/jxzhu/tmp_calc/04c0855f9
                                           8753fac23fde4df51ba20f3741a9e9a/calc/
                                           task.001.000012

 CP2K| version string:                                       CP2K version 2022.1
 CP2K| source code revision number:                                  git:2caeb6f
 CP2K| cp2kflags: omp libint fftw3 libxc elpa parallel mpi3 scalapack cosma xsmm
 CP2K|             plumed2 spglib mkl sirius libvori libbqb
 CP2K| is freely available from                            https://www.cp2k.org/
 CP2K| Program compiled at                           Mon Jul 3 17:37:06 CST 2023
 CP2K| Program compiled on                                                 mu003
 CP2K| Program compiled for                                                local
 CP2K| Data directory path                             /public/home/jxzhu/basis/
 CP2K| Input file name                                                 input.inp
 
 GLOBAL| Force Environment number                                              1
 GLOBAL| Basis set file name                                        BASIS_MOLOPT
 GLOBAL| Potential file name                                      GTH_POTENTIALS
 GLOBAL| MM Potential file name                                     MM_POTENTIAL
 GLOBAL| Coordinate file name                                          coord.xyz
 GLOBAL| Method name                                                        CP2K
 GLOBAL| Project name                                                       cp2k
 GLOBAL| Run type                                                   ENERGY_FORCE
 GLOBAL| FFT library                                                       FFTW3
 GLOBAL| Diagonalization library                                            ELPA
 GLOBAL| Minimum number of eigenvectors for ELPA usage                        16
 GLOBAL| Orthonormality check for eigenvectors                          DISABLED
 GLOBAL| Matrix multiplication library                                     COSMA
 GLOBAL| All-to-all communication in single precision                          F
 GLOBAL| FFTs using library dependent lengths                                  T
 GLOBAL| Grid backend                                                       AUTO
 GLOBAL| Global print level                                               MEDIUM
 GLOBAL| MPI I/O enabled                                                       T
 GLOBAL| Total number of message passing processes                            32
 GLOBAL| Number of threads for this process                                    1
 GLOBAL| This output is from process                                           0
 GLOBAL| Stack size for threads created by OpenMP (OMP_STACKSIZE)        default
 GLOBAL| CPU model name                 Intel(R) Xeon(R) Gold 6338 CPU @ 2.00GHz
 GLOBAL| CPUID                                                              1003

 MEMORY| system memory details [Kb]
 MEMORY|                        rank 0           min           max       average
 MEMORY| MemTotal            263619172     263619172     263619172     263619172
 MEMORY| MemFree             174870484     174870484     174870484     174870484
 MEMORY| Buffers                  3320          3320          3320          3320
 MEMORY| Cached                8459144       8459144       8459144       8459144
 MEMORY| Slab                  1939052       1939052       1939052       1939052
 MEMORY| SReclaimable           245596        245596        245596        245596
 MEMORY| MemLikelyFree       183578544     183578544     183578544     183578544


 *** Fundamental physical constants (SI units) ***

 *** Literature: B. J. Mohr and B. N. Taylor,
 ***             CODATA recommended values of the fundamental physical
 ***             constants: 2006, Web Version 5.1
 ***             http://physics.nist.gov/constants

 Speed of light in vacuum [m/s]                             2.99792458000000E+08
 Magnetic constant or permeability of vacuum [N/A**2]       1.25663706143592E-06
 Electric constant or permittivity of vacuum [F/m]          8.85418781762039E-12
 Planck constant (h) [J*s]                                  6.62606896000000E-34
 Planck constant (h-bar) [J*s]                              1.05457162825177E-34
 Elementary charge [C]                                      1.60217648700000E-19
 Electron mass [kg]                                         9.10938215000000E-31
 Electron g factor [ ]                                     -2.00231930436220E+00
 Proton mass [kg]                                           1.67262163700000E-27
 Fine-structure constant                                    7.29735253760000E-03
 Rydberg constant [1/m]                                     1.09737315685270E+07
 Avogadro constant [1/mol]                                  6.02214179000000E+23
 Boltzmann constant [J/K]                                   1.38065040000000E-23
 Atomic mass unit [kg]                                      1.66053878200000E-27
 Bohr radius [m]                                            5.29177208590000E-11

 *** Conversion factors ***

 [u] -> [a.u.]                                              1.82288848426455E+03
 [Angstrom] -> [Bohr] = [a.u.]                              1.88972613288564E+00
 [a.u.] = [Bohr] -> [Angstrom]                              5.29177208590000E-01
 [a.u.] -> [s]                                              2.41888432650478E-17
 [a.u.] -> [fs]                                             2.41888432650478E-02
 [a.u.] -> [J]                                              4.35974393937059E-18
 [a.u.] -> [N]                                              8.23872205491840E-08
 [a.u.] -> [K]                                              3.15774647902944E+05
 [a.u.] -> [kJ/mol]                                         2.62549961709828E+03
 [a.u.] -> [kcal/mol]                                       6.27509468713739E+02
 [a.u.] -> [Pa]                                             2.94210107994716E+13
 [a.u.] -> [bar]                                            2.94210107994716E+08
 [a.u.] -> [atm]                                            2.90362800883016E+08
 [a.u.] -> [eV]                                             2.72113838565563E+01
 [a.u.] -> [Hz]                                             6.57968392072181E+15
 [a.u.] -> [1/cm] (wave numbers)                            2.19474631370540E+05
 [a.u./Bohr**2] -> [1/cm]                                   5.14048714338585E+03
 

 CELL_TOP| Volume [angstrom^3]:                                     12686.086737
 CELL_TOP| Vector a [angstrom    16.869     0.000     0.000   |a| =    16.869000
 CELL_TOP| Vector b [angstrom    -8.434    14.609     0.000   |b| =    16.868929
 CELL_TOP| Vector c [angstrom     0.000     0.000    51.478   |c| =    51.477900
 CELL_TOP| Angle (b,c), alpha [degree]:                                90.000000
 CELL_TOP| Angle (a,c), beta  [degree]:                                90.000000
 CELL_TOP| Angle (a,b), gamma [degree]:                               120.000140
 CELL_TOP| Numerically orthorhombic:                                          NO
 
 GENERATE|  Preliminary Number of Bonds generated:                             0
 GENERATE|  Achieved consistency in connectivity generation.

 CELL| Volume [angstrom^3]:                                         12686.086737
 CELL| Vector a [angstrom]:      16.869     0.000     0.000   |a| =    16.869000
 CELL| Vector b [angstrom]:      -8.434    14.609     0.000   |b| =    16.868929
 CELL| Vector c [angstrom]:       0.000     0.000    51.478   |c| =    51.477900
 CELL| Angle (b,c), alpha [degree]:                                    90.000000
 CELL| Angle (a,c), beta  [degree]:                                    90.000000
 CELL| Angle (a,b), gamma [degree]:                                   120.000140
 CELL| Numerically orthorhombic:                                              NO

 CELL_REF| Volume [angstrom^3]:                                     12686.086737
 CELL_REF| Vector a [angstrom    16.869     0.000     0.000   |a| =    16.869000
 CELL_REF| Vector b [angstrom    -8.434    14.609     0.000   |b| =    16.868929
 CELL_REF| Vector c [angstrom     0.000     0.000    51.478   |c| =    51.477900
 CELL_REF| Angle (b,c), alpha [degree]:                                90.000000
 CELL_REF| Angle (a,c), beta  [degree]:                                90.000000
 CELL_REF| Angle (a,b), gamma [degree]:                               120.000140
 CELL_REF| Numerically orthorhombic:                                          NO

 *******************************************************************************
 *******************************************************************************
 **                                                                           **
 **     #####                         ##              ##                      **
 **    ##   ##            ##          ##              ##                      **
 **   ##     ##                       ##            ######                    **
 **   ##     ##  ##   ##  ##   #####  ##  ##   ####   ##    #####    #####    **
 **   ##     ##  ##   ##  ##  ##      ## ##   ##      ##   ##   ##  ##   ##   **
 **   ##  ## ##  ##   ##  ##  ##      ####     ###    ##   ######   ######    **
 **    ##  ###   ##   ##  ##  ##      ## ##      ##   ##   ##       ##        **
 **     #######   #####   ##   #####  ##  ##  ####    ##    #####   ##        **
 **           ##                                                    ##        **
 **                                                                           **
 **                                                ... make the atoms dance   **
 **                                                                           **
 **            Copyright (C) by CP2K developers group (2000-2022)             **
 **                      J. Chem. Phys. 152, 194103 (2020)                    **
 **                                                                           **
 *******************************************************************************

 DFT| Spin restricted Kohn-Sham (RKS) calculation                            RKS
 DFT| Multiplicity                                                             1
 DFT| Number of spin states                                                    1
 DFT| Charge                                                                   0
 DFT| Self-interaction correction (SIC)                                       NO
 DFT| Cutoffs: density                                              1.000000E-10
 DFT|          gradient                                             1.000000E-10
 DFT|          tau                                                  1.000000E-10
 DFT|          cutoff_smoothing_range                               0.000000E+00
 DFT| XC density smoothing                                                  NONE
 DFT| XC derivatives                                                          PW

 FUNCTIONAL| PBE:
 FUNCTIONAL| J.P.Perdew, K.Burke, M.Ernzerhof, Phys. Rev. Letter, vol. 77, n 18,
 FUNCTIONAL|  pp. 3865-3868, (1996){spin unpolarized}                           

 vdW POTENTIAL|                                                   Pair Potential
 vdW POTENTIAL|          DFT-D3 (Version 3.1)
 vdW POTENTIAL|          Potential Form: S. Grimme et al, JCP 132: 154104 (2010)
 vdW POTENTIAL|          Zero Damping
 vdW POTENTIAL|          Cutoff Radius [Bohr]:                             20.00
 vdW POTENTIAL|          s6 Scaling Factor:                               1.0000
 vdW POTENTIAL|          sr6 Scaling Factor:                              1.2170
 vdW POTENTIAL|          s8 Scaling Factor:                               0.7220
 vdW POTENTIAL|          Cutoff for CN calculation:                   0.1000E-05

 QS| Method:                                                                 GPW
 QS| Density plane wave grid type                        NON-SPHERICAL FULLSPACE
 QS| Number of grid levels:                                                    4
 QS| Density cutoff [a.u.]:                                                200.0
 QS| Multi grid cutoff [a.u.]: 1) grid level                               200.0
 QS|                           2) grid level                                66.7
 QS|                           3) grid level                                22.2
 QS|                           4) grid level                                 7.4
 QS| Grid level progression factor:                                          3.0
 QS| Relative density cutoff [a.u.]:                                        20.0
 QS| Interaction thresholds: eps_pgf_orb:                                3.2E-07
 QS|                         eps_filter_matrix:                          0.0E+00
 QS|                         eps_core_charge:                            1.0E-15
 QS|                         eps_rho_gspace:                             1.0E-13
 QS|                         eps_rho_rspace:                             1.0E-13
 QS|                         eps_gvg_rspace:                             3.2E-07
 QS|                         eps_ppl:                                    1.0E-02
 QS|                         eps_ppnl:                                   3.2E-09


 ATOMIC KIND INFORMATION

  1. Atomic kind: Pt                                    Number of atoms:     216

     Orbital Basis Set                      DZVP-A5-Q10-323-MOL-T1-DERIVED_SET-1

       Number of orbital shell sets:                                           1
       Number of orbital shells:                                               6
       Number of primitive Cartesian functions:                                5
       Number of Cartesian basis functions:                                   23
       Number of spherical basis functions:                                   20
       Norm type:                                                              2

       Normalised Cartesian orbitals:

                        Set   Shell   Orbital            Exponent    Coefficient

                          1       1    2s                2.521825       0.177473
                                                         1.453920      -0.063399
                                                         0.614053      -0.407089
                                                         0.232656       0.262254
                                                         0.074788       0.047371

                          1       2    3s                2.521825      -0.049056
                                                         1.453920       0.044904
                                                         0.614053      -0.009756
                                                         0.232656      -0.144709
                                                         0.074788       0.144085

                          1       3    3px               2.521825      -0.317572
                                                         1.453920       0.534826
                                                         0.614053      -0.489458
                                                         0.232656       0.245631
                                                         0.074788       0.018221
                          1       3    3py               2.521825      -0.317572
                                                         1.453920       0.534826
                                                         0.614053      -0.489458
                                                         0.232656       0.245631
                                                         0.074788       0.018221
                          1       3    3pz               2.521825      -0.317572
                                                         1.453920       0.534826
                                                         0.614053      -0.489458
                                                         0.232656       0.245631
                                                         0.074788       0.018221

                          1       4    4dx2              2.521825       3.008522
                                                         1.453920      -1.224251
                                                         0.614053       0.225691
                                                         0.232656       0.125144
                                                         0.074788      -0.015348
                          1       4    4dxy              2.521825       5.210912
                                                         1.453920      -2.120465
                                                         0.614053       0.390909
                                                         0.232656       0.216756
                                                         0.074788      -0.026584
                          1       4    4dxz              2.521825       5.210912
                                                         1.453920      -2.120465
                                                         0.614053       0.390909
                                                         0.232656       0.216756
                                                         0.074788      -0.026584
                          1       4    4dy2              2.521825       3.008522
                                                         1.453920      -1.224251
                                                         0.614053       0.225691
                                                         0.232656       0.125144
                                                         0.074788      -0.015348
                          1       4    4dyz              2.521825       5.210912
                                                         1.453920      -2.120465
                                                         0.614053       0.390909
                                                         0.232656       0.216756
                                                         0.074788      -0.026584
                          1       4    4dz2              2.521825       3.008522
                                                         1.453920      -1.224251
                                                         0.614053       0.225691
                                                         0.232656       0.125144
                                                         0.074788      -0.015348

                          1       5    5dx2              2.521825       0.698026
                                                         1.453920      -1.511486
                                                         0.614053      -0.335394
                                                         0.232656      -0.025564
                                                         0.074788      -0.002699
                          1       5    5dxy              2.521825       1.209017
                                                         1.453920      -2.617970
                                                         0.614053      -0.580920
                                                         0.232656      -0.044277
                                                         0.074788      -0.004674
                          1       5    5dxz              2.521825       1.209017
                                                         1.453920      -2.617970
                                                         0.614053      -0.580920
                                                         0.232656      -0.044277
                                                         0.074788      -0.004674
                          1       5    5dy2              2.521825       0.698026
                                                         1.453920      -1.511486
                                                         0.614053      -0.335394
                                                         0.232656      -0.025564
                                                         0.074788      -0.002699
                          1       5    5dyz              2.521825       1.209017
                                                         1.453920      -2.617970
                                                         0.614053      -0.580920
                                                         0.232656      -0.044277
                                                         0.074788      -0.004674
                          1       5    5dz2              2.521825       0.698026
                                                         1.453920      -1.511486
                                                         0.614053      -0.335394
                                                         0.232656      -0.025564
                                                         0.074788      -0.002699

                          1       6    6dx2              2.521825       0.831079
                                                         1.453920      -0.709226
                                                         0.614053      -0.137351
                                                         0.232656       0.068642
                                                         0.074788       0.011745
                          1       6    6dxy              2.521825       1.439472
                                                         1.453920      -1.228415
                                                         0.614053      -0.237899
                                                         0.232656       0.118891
                                                         0.074788       0.020343
                          1       6    6dxz              2.521825       1.439472
                                                         1.453920      -1.228415
                                                         0.614053      -0.237899
                                                         0.232656       0.118891
                                                         0.074788       0.020343
                          1       6    6dy2              2.521825       0.831079
                                                         1.453920      -0.709226
                                                         0.614053      -0.137351
                                                         0.232656       0.068642
                                                         0.074788       0.011745
                          1       6    6dyz              2.521825       1.439472
                                                         1.453920      -1.228415
                                                         0.614053      -0.237899
                                                         0.232656       0.118891
                                                         0.074788       0.020343
                          1       6    6dz2              2.521825       0.831079
                                                         1.453920      -0.709226
                                                         0.614053      -0.137351
                                                         0.232656       0.068642
                                                         0.074788       0.011745

       Atomic covalent radius [Angstrom]:                                  1.300

       Atomic van der Waals radius [Angstrom]:                             1.750

     GTH Potential information for                                   GTH-PBE-q10

       Description:                       Goedecker-Teter-Hutter pseudopotential
                                           Goedecker et al., PRB 54, 1703 (1996)
                                          Hartwigsen et al., PRB 58, 3641 (1998)
                                                      Krack, TCA 114, 145 (2005)

       Gaussian exponent of the core charge distribution:               1.317676
       Electronic configuration (s p d ...):                           1   0   9

       Parameters of the local part of the GTH pseudopotential:

                          rloc        C1          C2          C3          C4
                        0.616000   11.313635

       Parameters of the non-local part of the GTH pseudopotential:

                   l      r(l)      h(i,j,l)

                   0    0.550904    4.733491   -1.784594
                                   -1.784594    2.303901
                   1    0.674138    2.534798   -1.778066
                                   -1.778066    2.103836
                   2    0.457392   -7.264011    2.558665
                                    2.558665   -2.901253


 MOLECULE KIND INFORMATION


 All atoms are their own molecule, skipping detailed information


 TOTAL NUMBERS AND MAXIMUM NUMBERS

  Total number of            - Atomic kinds:                                   1
                             - Atoms:                                        216
                             - Shell sets:                                   216
                             - Shells:                                      1296
                             - Primitive Cartesian functions:               1080
                             - Cartesian basis functions:                   4968
                             - Spherical basis functions:                   4320

  Maximum angular momentum of- Orbital basis functions:                        2
                             - Local part of the GTH pseudopotential:          0
                             - Non-local part of the GTH pseudopotential:      4


 MODULE QUICKSTEP:  ATOMIC COORDINATES IN angstrom

 Atom  Kind  Element       X           Y           Z          Z(eff)       Mass
    1   1 Pt  78       2.230051    0.514470   19.814935      10.0000    195.0840
    2   1 Pt  78       5.060051    0.254470   19.954934      10.0000    195.0840
    3   1 Pt  78       7.910051    0.394470   19.894936      10.0000    195.0840
    4   1 Pt  78      10.790050    0.444470   19.874932      10.0000    195.0840
    5   1 Pt  78      13.530051    0.334470   19.874932      10.0000    195.0840
    6   1 Pt  78      16.310051    0.414470   19.894936      10.0000    195.0840
    7   1 Pt  78       3.650051    2.764470   19.874932      10.0000    195.0840
    8   1 Pt  78       6.470051    2.794470   19.964936      10.0000    195.0840
    9   1 Pt  78       9.360051    2.794470   20.084935      10.0000    195.0840
   10   1 Pt  78      12.070051    2.914470   19.914933      10.0000    195.0840
   11   1 Pt  78      14.840051    2.894470   19.854936      10.0000    195.0840
   12   1 Pt  78       0.670050    2.954470   19.894936      10.0000    195.0840
   13   1 Pt  78       4.970051    5.224470   20.084935      10.0000    195.0840
   14   1 Pt  78       7.810051    5.324471   20.164933      10.0000    195.0840
   15   1 Pt  78      10.580051    5.194471   19.994935      10.0000    195.0840
   16   1 Pt  78      13.460051    5.234471   19.944932      10.0000    195.0840
   17   1 Pt  78      -0.659950    5.414470   19.864934      10.0000    195.0840
   18   1 Pt  78       2.140050    5.434470   20.014932      10.0000    195.0840
   19   1 Pt  78       6.460051    7.754470   20.004933      10.0000    195.0840
   20   1 Pt  78       9.150051    7.734471   19.724934      10.0000    195.0840
   21   1 Pt  78      12.020051    7.584470   19.914933      10.0000    195.0840
   22   1 Pt  78      -1.969950    7.754470   19.854936      10.0000    195.0840
   23   1 Pt  78       0.880050    7.874471   20.024934      10.0000    195.0840
   24   1 Pt  78       3.540050    7.854470   19.914933      10.0000    195.0840
   25   1 Pt  78       7.820050   10.194471   19.894936      10.0000    195.0840
   26   1 Pt  78      10.640051    9.934470   19.734933      10.0000    195.0840
   27   1 Pt  78      -3.379950   10.064471   19.854936      10.0000    195.0840
   28   1 Pt  78      -0.559950   10.154471   19.794934      10.0000    195.0840
   29   1 Pt  78       2.330051   10.224470   19.894936      10.0000    195.0840
   30   1 Pt  78       5.090051   10.204471   19.924935      10.0000    195.0840
   31   1 Pt  78       9.250050   12.644470   19.844933      10.0000    195.0840
   32   1 Pt  78      -4.869950   12.444471   19.854936      10.0000    195.0840
   33   1 Pt  78      -1.919950   12.394470   19.904935      10.0000    195.0840
   34   1 Pt  78       0.960051   12.654471   19.884934      10.0000    195.0840
   35   1 Pt  78       3.700051   12.664470   19.984937      10.0000    195.0840
   36   1 Pt  78       6.480051   12.684471   20.024934      10.0000    195.0840
   37   1 Pt  78       0.770050    1.394470   22.174935      10.0000    195.0840
   38   1 Pt  78       3.590051    1.254470   22.104936      10.0000    195.0840
   39   1 Pt  78       6.430051    1.294470   22.274934      10.0000    195.0840
   40   1 Pt  78       9.150051    1.184470   22.344933      10.0000    195.0840
   41   1 Pt  78      12.070051    1.214470   22.264935      10.0000    195.0840
   42   1 Pt  78      14.850051    1.264470   22.154935      10.0000    195.0840
   43   1 Pt  78       2.310051    3.794470   22.164933      10.0000    195.0840
   44   1 Pt  78       5.040051    3.594470   22.284932      10.0000    195.0840
   45   1 Pt  78       7.890051    3.714470   22.444932      10.0000    195.0840
   46   1 Pt  78      10.640051    3.664470   22.414933      10.0000    195.0840
   47   1 Pt  78      13.420050    3.684470   22.324937      10.0000    195.0840
   48   1 Pt  78      -0.729950    3.784470   22.224934      10.0000    195.0840
   49   1 Pt  78       3.600051    6.234470   22.254937      10.0000    195.0840
   50   1 Pt  78       6.410051    6.124470   22.334935      10.0000    195.0840
   51   1 Pt  78       9.270051    6.204470   22.304932      10.0000    195.0840
   52   1 Pt  78      11.950051    6.094470   22.274934      10.0000    195.0840
   53   1 Pt  78      -1.989950    6.164470   22.274934      10.0000    195.0840
   54   1 Pt  78       0.770050    6.104470   22.324937      10.0000    195.0840
   55   1 Pt  78       4.980051    8.674470   22.314935      10.0000    195.0840
   56   1 Pt  78       7.800051    8.614471   22.234933      10.0000    195.0840
   57   1 Pt  78      10.560051    8.634471   22.144933      10.0000    195.0840
   58   1 Pt  78      -3.419950    8.524471   22.244935      10.0000    195.0840
   59   1 Pt  78      -0.619950    8.584470   22.344933      10.0000    195.0840
   60   1 Pt  78       2.170051    8.644470   22.204934      10.0000    195.0840
   61   1 Pt  78       6.530051   10.944471   22.264935      10.0000    195.0840
   62   1 Pt  78       9.220051   11.134470   22.194936      10.0000    195.0840
   63   1 Pt  78      -4.819950   11.014470   22.124936      10.0000    195.0840
   64   1 Pt  78      -1.899950   10.904470   22.254937      10.0000    195.0840
   65   1 Pt  78       0.900051   11.014470   22.294934      10.0000    195.0840
   66   1 Pt  78       3.710051   11.024471   22.334935      10.0000    195.0840
   67   1 Pt  78       7.850051   13.564471   22.294934      10.0000    195.0840
   68   1 Pt  78      -6.259950   13.524471   22.094933      10.0000    195.0840
   69   1 Pt  78      -3.349950   13.404470   22.204934      10.0000    195.0840
   70   1 Pt  78      -0.599950   13.424471   22.124936      10.0000    195.0840
   71   1 Pt  78       2.200051   13.404470   22.244935      10.0000    195.0840
   72   1 Pt  78       5.030051   13.464471   22.374932      10.0000    195.0840
   73   1 Pt  78      -7.759950   14.324470   24.554932      10.0000    195.0840
   74   1 Pt  78      -4.959950   14.314471   24.394936      10.0000    195.0840
   75   1 Pt  78      -2.079950   14.254470   24.514935      10.0000    195.0840
   76   1 Pt  78       0.690050   14.184470   24.574937      10.0000    195.0840
   77   1 Pt  78       3.470051   14.194472   24.604936      10.0000    195.0840
   78   1 Pt  78       6.320051   14.284471   24.664933      10.0000    195.0840
   79   1 Pt  78       2.060050    2.204470   24.534936      10.0000    195.0840
   80   1 Pt  78       4.950051    2.174470   24.614934      10.0000    195.0840
   81   1 Pt  78       7.800051    2.034470   24.654935      10.0000    195.0840
   82   1 Pt  78      10.540051    1.914470   24.684934      10.0000    195.0840
   83   1 Pt  78      13.390052    2.054470   24.674935      10.0000    195.0840
   84   1 Pt  78      -0.759949    2.064470   24.534936      10.0000    195.0840
   85   1 Pt  78       3.600051    4.574470   24.534936      10.0000    195.0840
   86   1 Pt  78       6.360051    4.584470   24.584935      10.0000    195.0840
   87   1 Pt  78       9.200051    4.594470   24.704938      10.0000    195.0840
   88   1 Pt  78      11.860052    4.524471   24.624932      10.0000    195.0840
   89   1 Pt  78      -2.169950    4.474470   24.554932      10.0000    195.0840
   90   1 Pt  78       0.700050    4.484470   24.544934      10.0000    195.0840
   91   1 Pt  78       4.940051    6.964470   24.604936      10.0000    195.0840
   92   1 Pt  78       7.760050    6.964470   24.584935      10.0000    195.0840
   93   1 Pt  78      10.510050    7.074471   24.584935      10.0000    195.0840
   94   1 Pt  78      -3.549950    6.974471   24.534936      10.0000    195.0840
   95   1 Pt  78      -0.639950    6.914470   24.644936      10.0000    195.0840
   96   1 Pt  78       2.130050    6.964470   24.544934      10.0000    195.0840
   97   1 Pt  78       6.350051    9.434470   24.574937      10.0000    195.0840
   98   1 Pt  78       9.160051    9.404471   24.424935      10.0000    195.0840
   99   1 Pt  78      -4.819950    9.444471   24.394936      10.0000    195.0840
  100   1 Pt  78      -2.079950    9.344470   24.584935      10.0000    195.0840
  101   1 Pt  78       0.770050    9.334471   24.584935      10.0000    195.0840
  102   1 Pt  78       3.520051    9.454471   24.624932      10.0000    195.0840
  103   1 Pt  78       7.700051   11.874470   24.604936      10.0000    195.0840
  104   1 Pt  78      -6.389950   11.854470   24.474934      10.0000    195.0840
  105   1 Pt  78      -3.519950   11.804470   24.474934      10.0000    195.0840
  106   1 Pt  78      -0.689950   11.714471   24.504937      10.0000    195.0840
  107   1 Pt  78       2.070051   11.824470   24.674935      10.0000    195.0840
  108   1 Pt  78       4.910051   11.894471   24.644936      10.0000    195.0840
  109   1 Pt  78       2.140050    0.444470   26.772933      10.0000    195.0840
  110   1 Pt  78       4.940051    0.354470   26.742933      10.0000    195.0840
  111   1 Pt  78       7.660051    0.434470   26.942933      10.0000    195.0840
  112   1 Pt  78      10.460051    0.464470   26.962933      10.0000    195.0840
  113   1 Pt  78      13.250051    0.494470   26.942933      10.0000    195.0840
  114   1 Pt  78      16.110051    0.474470   26.872933      10.0000    195.0840
  115   1 Pt  78       3.570051    2.834470   26.872933      10.0000    195.0840
  116   1 Pt  78       6.240050    2.934470   26.912933      10.0000    195.0840
  117   1 Pt  78       9.030051    2.934470   26.972933      10.0000    195.0840
  118   1 Pt  78      11.810051    2.884470   26.902933      10.0000    195.0840
  119   1 Pt  78      14.700051    2.904470   26.992933      10.0000    195.0840
  120   1 Pt  78       0.650050    2.814470   26.912933      10.0000    195.0840
  121   1 Pt  78       4.890051    5.314470   26.872933      10.0000    195.0840
  122   1 Pt  78       7.680051    5.494470   26.912933      10.0000    195.0840
  123   1 Pt  78      10.410051    5.404470   27.012933      10.0000    195.0840
  124   1 Pt  78      13.240050    5.284470   26.902933      10.0000    195.0840
  125   1 Pt  78      -0.749950    5.274471   26.882933      10.0000    195.0840
  126   1 Pt  78       2.160051    5.224470   26.832933      10.0000    195.0840
  127   1 Pt  78       6.260051    7.834470   26.902933      10.0000    195.0840
  128   1 Pt  78       9.100051    7.804471   26.892933      10.0000    195.0840
  129   1 Pt  78      11.900051    7.804471   26.892933      10.0000    195.0840
  130   1 Pt  78      -2.179950    7.664470   26.882933      10.0000    195.0840
  131   1 Pt  78       0.640050    7.674471   26.862933      10.0000    195.0840
  132   1 Pt  78       3.450051    7.784471   26.822933      10.0000    195.0840
  133   1 Pt  78       7.730051   10.214470   26.842933      10.0000    195.0840
  134   1 Pt  78      10.500051   10.244470   26.752933      10.0000    195.0840
  135   1 Pt  78      -3.469950   10.184471   26.762933      10.0000    195.0840
  136   1 Pt  78      -0.719950   10.084470   26.892933      10.0000    195.0840
  137   1 Pt  78       1.970051   10.194471   26.972933      10.0000    195.0840
  138   1 Pt  78       4.820051   10.204471   26.912933      10.0000    195.0840
  139   1 Pt  78       9.020051   12.694471   26.962933      10.0000    195.0840
  140   1 Pt  78      -5.029949   12.534471   26.642933      10.0000    195.0840
  141   1 Pt  78      -2.089950   12.554471   26.892933      10.0000    195.0840
  142   1 Pt  78       0.610050   12.594470   27.002933      10.0000    195.0840
  143   1 Pt  78       3.400051   12.624471   27.012933      10.0000    195.0840
  144   1 Pt  78       6.190051   12.664470   26.902933      10.0000    195.0840
  145   1 Pt  78       0.740051    1.304470   29.152933      10.0000    195.0840
  146   1 Pt  78       3.580051    1.224470   29.132933      10.0000    195.0840
  147   1 Pt  78       6.310051    1.244470   29.252933      10.0000    195.0840
  148   1 Pt  78       9.080051    1.244470   29.262933      10.0000    195.0840
  149   1 Pt  78      11.790051    1.154470   29.232933      10.0000    195.0840
  150   1 Pt  78      14.790051    1.244470   29.132933      10.0000    195.0840
  151   1 Pt  78       2.040051    3.644470   29.222933      10.0000    195.0840
  152   1 Pt  78       4.870051    3.604470   29.262933      10.0000    195.0840
  153   1 Pt  78       7.630050    3.704470   29.222933      10.0000    195.0840
  154   1 Pt  78      10.360051    3.764470   29.232933      10.0000    195.0840
  155   1 Pt  78      13.280051    3.704470   29.132933      10.0000    195.0840
  156   1 Pt  78      -0.719950    3.614470   29.162933      10.0000    195.0840
  157   1 Pt  78       3.440051    6.044470   29.232933      10.0000    195.0840
  158   1 Pt  78       6.280051    6.164470   29.322933      10.0000    195.0840
  159   1 Pt  78       9.080051    6.154471   29.322933      10.0000    195.0840
  160   1 Pt  78      11.800051    6.104470   29.212933      10.0000    195.0840
  161   1 Pt  78      -2.189950    6.014470   29.202933      10.0000    195.0840
  162   1 Pt  78       0.670050    6.064471   29.112933      10.0000    195.0840
  163   1 Pt  78       4.920051    8.454471   29.182933      10.0000    195.0840
  164   1 Pt  78       7.680051    8.524471   29.162933      10.0000    195.0840
  165   1 Pt  78      10.560051    8.664470   29.212933      10.0000    195.0840
  166   1 Pt  78      -3.639950    8.534471   29.102933      10.0000    195.0840
  167   1 Pt  78      -0.799950    8.424470   29.152933      10.0000    195.0840
  168   1 Pt  78       2.110051    8.404471   29.182933      10.0000    195.0840
  169   1 Pt  78       6.370051   10.894471   29.322933      10.0000    195.0840
  170   1 Pt  78       9.110051   11.024471   29.212933      10.0000    195.0840
  171   1 Pt  78      -4.889950   11.064471   29.042933      10.0000    195.0840
  172   1 Pt  78      -2.139950   10.874471   29.182933      10.0000    195.0840
  173   1 Pt  78       0.640050   10.924471   29.312933      10.0000    195.0840
  174   1 Pt  78       3.510050   10.844471   29.212933      10.0000    195.0840
  175   1 Pt  78       7.710051   13.394471   29.422933      10.0000    195.0840
  176   1 Pt  78      -6.319950   13.524471   29.042933      10.0000    195.0840
  177   1 Pt  78      -3.499950   13.414471   29.112933      10.0000    195.0840
  178   1 Pt  78      -0.849950   13.444471   29.202933      10.0000    195.0840
  179   1 Pt  78       2.000050   13.474471   29.252933      10.0000    195.0840
  180   1 Pt  78       4.880050   13.354470   29.262933      10.0000    195.0840
  181   1 Pt  78      -7.679950   14.354470   31.622933      10.0000    195.0840
  182   1 Pt  78      -4.949950   14.254470   31.562933      10.0000    195.0840
  183   1 Pt  78      -2.179950   14.304470   31.532933      10.0000    195.0840
  184   1 Pt  78       0.610050   14.214471   31.342933      10.0000    195.0840
  185   1 Pt  78       3.510050   14.054471   31.432933      10.0000    195.0840
  186   1 Pt  78       6.350051   14.154471   31.632933      10.0000    195.0840
  187   1 Pt  78       2.070051    2.054470   31.582933      10.0000    195.0840
  188   1 Pt  78       4.840051    2.074470   31.632933      10.0000    195.0840
  189   1 Pt  78       7.790051    1.984470   31.502933      10.0000    195.0840
  190   1 Pt  78      10.550051    1.984470   31.532933      10.0000    195.0840
  191   1 Pt  78      13.340051    2.064470   31.432933      10.0000    195.0840
  192   1 Pt  78      -0.699950    2.074470   31.532933      10.0000    195.0840
  193   1 Pt  78       3.580051    4.364470   31.652933      10.0000    195.0840
  194   1 Pt  78       6.390051    4.374470   31.752933      10.0000    195.0840
  195   1 Pt  78       9.090050    4.324470   31.702933      10.0000    195.0840
  196   1 Pt  78      11.960051    4.274471   31.382933      10.0000    195.0840
  197   1 Pt  78      -2.179950    4.404471   31.592933      10.0000    195.0840
  198   1 Pt  78       0.670050    4.434470   31.622933      10.0000    195.0840
  199   1 Pt  78       4.930051    6.874470   31.542933      10.0000    195.0840
  200   1 Pt  78       7.610051    6.854470   31.622933      10.0000    195.0840
  201   1 Pt  78      10.410051    6.774471   31.662933      10.0000    195.0840
  202   1 Pt  78      -3.609950    6.804470   31.572933      10.0000    195.0840
  203   1 Pt  78      -0.789950    6.734470   31.662933      10.0000    195.0840
  204   1 Pt  78       2.010050    6.744471   31.592933      10.0000    195.0840
  205   1 Pt  78       6.280051    9.264470   31.592933      10.0000    195.0840
  206   1 Pt  78       9.120051    9.284471   31.422933      10.0000    195.0840
  207   1 Pt  78      -4.919950    9.234471   31.532933      10.0000    195.0840
  208   1 Pt  78      -2.139950    9.154471   31.522933      10.0000    195.0840
  209   1 Pt  78       0.460050    9.224470   31.582933      10.0000    195.0840
  210   1 Pt  78       3.500051    9.244471   31.462933      10.0000    195.0840
  211   1 Pt  78       7.790051   11.734471   31.602933      10.0000    195.0840
  212   1 Pt  78      -6.299950   11.884471   31.372933      10.0000    195.0840
  213   1 Pt  78      -3.449950   11.664471   31.412934      10.0000    195.0840
  214   1 Pt  78      -0.839950   11.694471   31.552933      10.0000    195.0840
  215   1 Pt  78       1.990051   11.634471   31.632933      10.0000    195.0840
  216   1 Pt  78       4.980051   11.714471   31.492933      10.0000    195.0840




 SCF PARAMETERS         Density guess:                                   RESTART
                        --------------------------------------------------------
                        max_scf:                                             500
                        max_scf_history:                                       0
                        max_diis:                                              4
                        --------------------------------------------------------
                        eps_scf:                                        1.00E-06
                        eps_scf_history:                                0.00E+00
                        eps_diis:                                       1.00E-01
                        eps_eigval:                                     1.00E-05
                        --------------------------------------------------------
                        level_shift [a.u.]:                             0.000000
                        added MOs                                       500    0
                        --------------------------------------------------------
                        Mixing method:                            BROYDEN_MIXING
                                                charge density mixing in g-space
                        --------------------------------------------------------
                        Smear method:                                FERMI_DIRAC
                        Electronic temperature [K]:                        300.0
                        Electronic temperature [a.u.]:                  9.50E-04
                        Accuracy threshold:                             1.00E-10
                        --------------------------------------------------------
                        No outer SCF

 PW_GRID| Information for grid number                                          1
 PW_GRID| Grid distributed over                                    32 processors
 PW_GRID| Real space group dimensions                                    32    1
 PW_GRID| the grid is blocked:                                                NO
 PW_GRID| Cutoff [a.u.]                                                    200.0
 PW_GRID| spherical cutoff:                                                   NO
 PW_GRID|   Bounds   1           -105     104                Points:         210
 PW_GRID|   Bounds   2           -105     104                Points:         210
 PW_GRID|   Bounds   3           -315     314                Points:         630
 PW_GRID| Volume element (a.u.^3)  0.3081E-02     Volume (a.u.^3)     85609.9578
 PW_GRID| Grid span                                                    FULLSPACE
 PW_GRID|   Distribution                         Average         Max         Min
 PW_GRID|   G-Vectors                           868218.8      868350      868140
 PW_GRID|   G-Rays                                4134.4        4135        4134
 PW_GRID|   Real Space Points                   868218.8      926100      793800

 PW_GRID| Information for grid number                                          2
 PW_GRID| Number of the reference grid                                         1
 PW_GRID| Grid distributed over                                    32 processors
 PW_GRID| Real space group dimensions                                    32    1
 PW_GRID| the grid is blocked:                                                NO
 PW_GRID| Cutoff [a.u.]                                                     66.7
 PW_GRID| spherical cutoff:                                                   NO
 PW_GRID|   Bounds   1            -60      59                Points:         120
 PW_GRID|   Bounds   2            -60      59                Points:         120
 PW_GRID|   Bounds   3           -180     179                Points:         360
 PW_GRID| Volume element (a.u.^3)  0.1651E-01     Volume (a.u.^3)     85609.9578
 PW_GRID| Grid span                                                    FULLSPACE
 PW_GRID|   Distribution                         Average         Max         Min
 PW_GRID|   G-Vectors                           162000.0      162840      161280
 PW_GRID|   G-Rays                                1350.0        1357        1344
 PW_GRID|   Real Space Points                   162000.0      172800      129600

 PW_GRID| Information for grid number                                          3
 PW_GRID| Number of the reference grid                                         1
 PW_GRID| Grid distributed over                                    32 processors
 PW_GRID| Real space group dimensions                                    32    1
 PW_GRID| the grid is blocked:                                                NO
 PW_GRID| Cutoff [a.u.]                                                     22.2
 PW_GRID| spherical cutoff:                                                   NO
 PW_GRID|   Bounds   1            -35      34                Points:          70
 PW_GRID|   Bounds   2            -35      34                Points:          70
 PW_GRID|   Bounds   3           -105     104                Points:         210
 PW_GRID| Volume element (a.u.^3)  0.8320E-01     Volume (a.u.^3)     85609.9578
 PW_GRID| Grid span                                                    FULLSPACE
 PW_GRID|   Distribution                         Average         Max         Min
 PW_GRID|   G-Vectors                            32156.2       32340       31990
 PW_GRID|   G-Rays                                 459.4         462         457
 PW_GRID|   Real Space Points                    32156.2       44100       29400

 PW_GRID| Information for grid number                                          4
 PW_GRID| Number of the reference grid                                         1
 PW_GRID| Grid distributed over                                    32 processors
 PW_GRID| Real space group dimensions                                    32    1
 PW_GRID| the grid is blocked:                                                NO
 PW_GRID| Cutoff [a.u.]                                                      7.4
 PW_GRID| spherical cutoff:                                                   NO
 PW_GRID|   Bounds   1            -20      19                Points:          40
 PW_GRID|   Bounds   2            -20      19                Points:          40
 PW_GRID|   Bounds   3            -60      59                Points:         120
 PW_GRID| Volume element (a.u.^3)  0.4459         Volume (a.u.^3)     85609.9578
 PW_GRID| Grid span                                                    FULLSPACE
 PW_GRID|   Distribution                         Average         Max         Min
 PW_GRID|   G-Vectors                             6000.0        6120        5920
 PW_GRID|   G-Rays                                 150.0         153         148
 PW_GRID|   Real Space Points                     6000.0        9600        4800

 POISSON| Solver                                          IMPLICIT (GENERALIZED)
 POISSON| Boundary Condition                                PERIODIC & DIRICHLET
 POISSON| Maximum number of iterations                                        30
 POISSON| Convergence threshold                                         1.00E-08
 POISSON| Dielectric Constant                                              80.00
 POISSON| Relaxation parameter                                          1.00E+00

 RS_GRID| Information for grid number                                          1
 RS_GRID|   Bounds   1           -105     104                Points:         210
 RS_GRID|   Bounds   2           -105     104                Points:         210
 RS_GRID|   Bounds   3           -315     314                Points:         630
 RS_GRID| Real space distribution over                                 32 groups
 RS_GRID| Real space distribution along direction                              3
 RS_GRID| Border size                                                         54
 RS_GRID|   Distribution                         Average         Max         Min
 RS_GRID|   Planes                                 127.7         128         127

 RS_GRID| Information for grid number                                          2
 RS_GRID|   Bounds   1            -60      59                Points:         120
 RS_GRID|   Bounds   2            -60      59                Points:         120
 RS_GRID|   Bounds   3           -180     179                Points:         360
 RS_GRID| Real space distribution over                                 32 groups
 RS_GRID| Real space distribution along direction                              3
 RS_GRID| Border size                                                         36
 RS_GRID|   Distribution                         Average         Max         Min
 RS_GRID|   Planes                                  83.2          84          83

 RS_GRID| Information for grid number                                          3
 RS_GRID|   Bounds   1            -35      34                Points:          70
 RS_GRID|   Bounds   2            -35      34                Points:          70
 RS_GRID|   Bounds   3           -105     104                Points:         210
 RS_GRID| Real space fully replicated
 RS_GRID| Group size                                                           1

 RS_GRID| Information for grid number                                          4
 RS_GRID|   Bounds   1            -20      19                Points:          40
 RS_GRID|   Bounds   2            -20      19                Points:          40
 RS_GRID|   Bounds   3            -60      59                Points:         120
 RS_GRID| Real space fully replicated
 RS_GRID| Group size                                                           1

 Number of electrons:                                                       2160
 Number of occupied orbitals:                                               1080
 Number of molecular orbitals:                                              1580

 Number of orbital functions:                                               4320
 Number of independent orbital functions:                                   4320

 Extrapolation method: initial_guess


 SCF WAVEFUNCTION OPTIMIZATION

  Step     Update method      Time    Convergence         Total energy    Change
  ------------------------------------------------------------------------------

  POISSON| IMPLICIT (GENERALIZED) SOLVER ---------------------------------------
  POISSON| Preparing Dirichlet regions ...
  POISSON| Dirichlet region    1
  POISSON|     type : axis-aligned planar
  POISSON|     applied potential :   0.0000E+00  [Eh/e]
  POISSON| Dirichlet region    2
  POISSON|     type : axis-aligned planar
  POISSON|     applied potential :   0.0000E+00  [Eh/e]
  POISSON| ... Done. 
  ------------------------------------------------------------------------------

  POISSON|   iter        pres error      nabs error        E_hartree    delta E
  POISSON|      1        0.3226E-06      0.3304E-01    1992.2947706907  0.20E+04
  POISSON|      2        0.9808E-15      0.3226E-06    1992.2947706907  0.23E-10
  POISSON| Poisson solver converged in 2 iterations.
     1 NoMix/Diag. 0.30E+00   11.1     0.19519724     -5670.8421898194 -5.67E+03
  POISSON|   iter        pres error      nabs error        E_hartree    delta E
  POISSON|      1        0.8887E-05      0.3279E-01    1992.1330260181 -0.16E+00
  POISSON|      2        0.9777E-15      0.8887E-05    1992.1330260181  0.23E-10
  POISSON| Poisson solver converged in 2 iterations.
     2 Broy./Diag. 0.30E+00   13.2     0.21894099     -5670.4988997334  3.43E-01
  POISSON|   iter        pres error      nabs error        E_hartree    delta E
  POISSON|      1        0.2282E-04      0.3321E-03    1992.3473649098  0.21E+00
  POISSON|      2        0.1270E-16      0.2282E-04    1992.3473649098  0.11E-11
  POISSON| Poisson solver converged in 2 iterations.
     3 Broy./Diag. 0.30E+00   13.2     0.10643153     -5676.1256093747 -5.63E+00
  POISSON|   iter        pres error      nabs error        E_hartree    delta E
  POISSON|      1        0.6905E-04      0.2803E-03    1992.4132923221  0.66E-01
  POISSON|      2        0.8328E-17      0.6905E-04    1992.4132923221  0.68E-12
  POISSON| Poisson solver converged in 2 iterations.
     4 Broy./Diag. 0.30E+00   13.3     0.15027183     -5673.1804517721  2.95E+00
  POISSON|   iter        pres error      nabs error        E_hartree    delta E
  POISSON|      1        0.7075E-04      0.2838E-03    1992.4873737248  0.74E-01
  POISSON|      2        0.5839E-17      0.7075E-04    1992.4873737248  0.68E-12
  POISSON| Poisson solver converged in 2 iterations.
     5 Broy./Diag. 0.30E+00   13.3     0.13071891     -5671.9612298399  1.22E+00
  POISSON|   iter        pres error      nabs error        E_hartree    delta E
  POISSON|      1        0.1636E-04      0.8176E-04    1992.5801433501  0.93E-01
  POISSON|      2        0.7624E-18      0.1636E-04    1992.5801433501  0.45E-12
  POISSON| Poisson solver converged in 2 iterations.
     6 Broy./Diag. 0.30E+00   13.3     0.05566819     -5672.5689891821 -6.08E-01
  POISSON|   iter        pres error      nabs error        E_hartree    delta E
  POISSON|      1        0.1633E-05      0.3581E-04    1992.6920359519  0.11E+00
  POISSON|      2        0.3909E-18      0.1633E-05    1992.6920359519  0.00E+00
  POISSON| Poisson solver converged in 2 iterations.
     7 Broy./Diag. 0.30E+00   13.4     0.03159051     -5672.4957999370  7.32E-02
  POISSON|   iter        pres error      nabs error        E_hartree    delta E
  POISSON|      1        0.1202E-05      0.2645E-04    1992.7605116988  0.68E-01
  POISSON|      2        0.7759E-18      0.1202E-05    1992.7605116988 -0.68E-12
  POISSON| Poisson solver converged in 2 iterations.
     8 Broy./Diag. 0.30E+00   13.4     0.02332035     -5672.2349539548  2.61E-01
  POISSON|   iter        pres error      nabs error        E_hartree    delta E
  POISSON|      1        0.2942E-06      0.1217E-04    1992.8093299659  0.49E-01
  POISSON|      2        0.1304E-18      0.2942E-06    1992.8093299659 -0.23E-12
  POISSON| Poisson solver converged in 2 iterations.
     9 Broy./Diag. 0.30E+00   13.4     0.01056959     -5672.3376582346 -1.03E-01
  POISSON|   iter        pres error      nabs error        E_hartree    delta E
  POISSON|      1        0.7783E-07      0.5994E-05    1992.8210638113  0.12E-01
  POISSON|      2        0.1198E-18      0.7783E-07    1992.8210638113  0.00E+00
  POISSON| Poisson solver converged in 2 iterations.
    10 Broy./Diag. 0.30E+00   13.5     0.00463067     -5672.2382023954  9.95E-02
  POISSON|   iter        pres error      nabs error        E_hartree    delta E
  POISSON|      1        0.5611E-07      0.5271E-05    1992.8289458133  0.79E-02
  POISSON|      2        0.1079E-18      0.5611E-07    1992.8289458133  0.00E+00
  POISSON| Poisson solver converged in 2 iterations.
    11 Broy./Diag. 0.30E+00   13.6     0.00331009     -5672.2445791056 -6.38E-03
  POISSON|   iter        pres error      nabs error        E_hartree    delta E
  POISSON|      1        0.4125E-06      0.5857E-05    1992.8413490506  0.12E-01
  POISSON|      2        0.5439E-22      0.4125E-06    1992.8413490506 -0.45E-12
  POISSON| Poisson solver converged in 2 iterations.
    12 Broy./Diag. 0.30E+00   13.5     0.00216937     -5672.2464728749 -1.89E-03
  POISSON|   iter        pres error      nabs error        E_hartree    delta E
  POISSON|      1        0.6416E-07      0.3470E-05    1992.8446540604  0.33E-02
  POISSON|      2        0.1271E-18      0.6416E-07    1992.8446540604  0.23E-12
  POISSON| Poisson solver converged in 2 iterations.
    13 Broy./Diag. 0.30E+00   13.5     0.00167546     -5672.2212062370  2.53E-02
  POISSON|   iter        pres error      nabs error        E_hartree    delta E
  POISSON|      1        0.2247E-06      0.2038E-05    1992.8461956627  0.15E-02
  POISSON|      2        0.2683E-20      0.2247E-06    1992.8461956627  0.23E-12
  POISSON| Poisson solver converged in 2 iterations.
    14 Broy./Diag. 0.30E+00   13.5     0.00100562     -5672.2451348704 -2.39E-02
  POISSON|   iter        pres error      nabs error        E_hartree    delta E
  POISSON|      1        0.8414E-06      0.3481E-05    1992.8467777252  0.58E-03
  POISSON|      2        0.6536E-19      0.8414E-06    1992.8467777252  0.45E-12
  POISSON| Poisson solver converged in 2 iterations.
    15 Broy./Diag. 0.30E+00   13.5     0.00226556     -5672.2365064187  8.63E-03
  POISSON|   iter        pres error      nabs error        E_hartree    delta E
  POISSON|      1        0.9560E-06      0.4360E-05    1992.8465856714 -0.19E-03
  POISSON|      2        0.3837E-20      0.9560E-06    1992.8465856714  0.00E+00
  POISSON| Poisson solver converged in 2 iterations.
    16 Broy./Diag. 0.30E+00   13.6     0.00193306     -5672.2339180475  2.59E-03
  POISSON|   iter        pres error      nabs error        E_hartree    delta E
  POISSON|      1        0.9275E-07      0.2276E-05    1992.8467006030  0.11E-03
  POISSON|      2        0.5537E-19      0.9275E-07    1992.8467006030 -0.23E-12
  POISSON| Poisson solver converged in 2 iterations.
    17 Broy./Diag. 0.30E+00   13.5     0.00071211     -5672.2458020167 -1.19E-02
  POISSON|   iter        pres error      nabs error        E_hartree    delta E
  POISSON|      1        0.7185E-07      0.1362E-05    1992.8470888444  0.39E-03
  POISSON|      2        0.2014E-19      0.7185E-07    1992.8470888444  0.00E+00
  POISSON| Poisson solver converged in 2 iterations.
    18 Broy./Diag. 0.30E+00   13.6     0.00036612     -5672.2463582960 -5.56E-04
  POISSON|   iter        pres error      nabs error        E_hartree    delta E
  POISSON|      1        0.2159E-07      0.1132E-05    1992.8472677957  0.18E-03
  POISSON|      2        0.3591E-19      0.2159E-07    1992.8472677957  0.00E+00
  POISSON| Poisson solver converged in 2 iterations.
    19 Broy./Diag. 0.30E+00   13.6     0.00024874     -5672.2448698675  1.49E-03
  POISSON|   iter        pres error      nabs error        E_hartree    delta E
  POISSON|      1        0.6537E-07      0.1402E-05    1992.8478424629  0.57E-03
  POISSON|      2        0.3087E-19      0.6537E-07    1992.8478424629  0.00E+00
  POISSON| Poisson solver converged in 2 iterations.
    20 Broy./Diag. 0.30E+00   13.5     0.00017473     -5672.2483446405 -3.47E-03
  POISSON|   iter        pres error      nabs error        E_hartree    delta E
  POISSON|      1        0.4494E-07      0.1341E-05    1992.8483832805  0.54E-03
  POISSON|      2        0.3344E-19      0.4494E-07    1992.8483832805  0.00E+00
  POISSON| Poisson solver converged in 2 iterations.
    21 Broy./Diag. 0.30E+00   13.5     0.00018093     -5672.2471603442  1.18E-03
  POISSON|   iter        pres error      nabs error        E_hartree    delta E
  POISSON|      1        0.4318E-07      0.1663E-05    1992.8490251491  0.64E-03
  POISSON|      2        0.4928E-19      0.4318E-07    1992.8490251491  0.00E+00
  POISSON| Poisson solver converged in 2 iterations.
    22 Broy./Diag. 0.30E+00   13.6     0.00015279     -5672.2468058356  3.55E-04
  POISSON|   iter        pres error      nabs error        E_hartree    delta E
  POISSON|      1        0.5354E-07      0.1077E-05    1992.8495433027  0.52E-03
  POISSON|      2        0.2419E-19      0.5354E-07    1992.8495433027  0.00E+00
  POISSON| Poisson solver converged in 2 iterations.
    23 Broy./Diag. 0.30E+00   13.6     0.00016244     -5672.2485061964 -1.70E-03
  POISSON|   iter        pres error      nabs error        E_hartree    delta E
  POISSON|      1        0.2618E-07      0.1114E-05    1992.8498283554  0.29E-03
  POISSON|      2        0.3377E-19      0.2618E-07    1992.8498283554 -0.23E-12
  POISSON| Poisson solver converged in 2 iterations.
    24 Broy./Diag. 0.30E+00   13.6     0.00008159     -5672.2469232785  1.58E-03
  POISSON|   iter        pres error      nabs error        E_hartree    delta E
  POISSON|      1        0.1227E-06      0.7918E-06    1992.8499999412  0.17E-03
  POISSON|      2        0.9669E-20      0.1227E-06    1992.8499999412  0.00E+00
  POISSON| Poisson solver converged in 2 iterations.
    25 Broy./Diag. 0.30E+00   13.5     0.00026611     -5672.2483102734 -1.39E-03
  POISSON|   iter        pres error      nabs error        E_hartree    delta E
  POISSON|      1        0.1126E-06      0.7259E-06    1992.8501675231  0.17E-03
  POISSON|      2        0.2366E-19      0.1126E-06    1992.8501675231 -0.23E-12
  POISSON| Poisson solver converged in 2 iterations.
    26 Broy./Diag. 0.30E+00   13.6     0.00030286     -5672.2475818492  7.28E-04
  POISSON|   iter        pres error      nabs error        E_hartree    delta E
  POISSON|      1        0.8282E-07      0.1088E-05    1992.8502879979  0.12E-03
  POISSON|      2        0.2955E-19      0.8282E-07    1992.8502879979  0.00E+00
  POISSON| Poisson solver converged in 2 iterations.
    27 Broy./Diag. 0.30E+00   13.5     0.00014246     -5672.2472642212  3.18E-04
  POISSON|   iter        pres error      nabs error        E_hartree    delta E
  POISSON|      1        0.6555E-08      0.5239E-06    1992.8503217524  0.34E-04
  POISSON| Poisson solver converged in 1 iteration. 
    28 Broy./Diag. 0.30E+00   12.1     0.00006955     -5672.2488578446 -1.59E-03
  POISSON|   iter        pres error      nabs error        E_hartree    delta E
  POISSON|      1        0.1595E-07      0.3753E-06    1992.8503648994  0.43E-04
  POISSON|      2        0.8343E-20      0.1595E-07    1992.8503648994  0.00E+00
  POISSON| Poisson solver converged in 2 iterations.
    29 Broy./Diag. 0.30E+00   13.5     0.00007024     -5672.2489462909 -8.84E-05
  POISSON|   iter        pres error      nabs error        E_hartree    delta E
  POISSON|      1        0.8777E-08      0.4640E-06    1992.8503319887 -0.33E-04
  POISSON| Poisson solver converged in 1 iteration. 
    30 Broy./Diag. 0.30E+00   12.2     0.00005257     -5672.2484943156  4.52E-04
  POISSON|   iter        pres error      nabs error        E_hartree    delta E
  POISSON|      1        0.1234E-07      0.4080E-06    1992.8503282152 -0.38E-05
  POISSON|      2        0.1319E-19      0.1234E-07    1992.8503282152 -0.23E-12
  POISSON| Poisson solver converged in 2 iterations.
    31 Broy./Diag. 0.30E+00   13.6     0.00003705     -5672.2493131033 -8.19E-04
  POISSON|   iter        pres error      nabs error        E_hartree    delta E
  POISSON|      1        0.1043E-07      0.3605E-06    1992.8503277877 -0.43E-06
  POISSON|      2        0.1187E-19      0.1043E-07    1992.8503277877  0.23E-12
  POISSON| Poisson solver converged in 2 iterations.
    32 Broy./Diag. 0.30E+00   13.6     0.00003268     -5672.2493826573 -6.96E-05
  POISSON|   iter        pres error      nabs error        E_hartree    delta E
  POISSON|      1        0.2131E-08      0.2812E-06    1992.8503234670 -0.43E-05
  POISSON| Poisson solver converged in 1 iteration. 
    33 Broy./Diag. 0.30E+00   12.2     0.00003563     -5672.2491231250  2.60E-04
  POISSON|   iter        pres error      nabs error        E_hartree    delta E
  POISSON|      1        0.7660E-08      0.2915E-06    1992.8503760996  0.53E-04
  POISSON| Poisson solver converged in 1 iteration. 
    34 Broy./Diag. 0.30E+00   12.2     0.00002421     -5672.2495034527 -3.80E-04
  POISSON|   iter        pres error      nabs error        E_hartree    delta E
  POISSON|      1        0.1229E-07      0.2238E-06    1992.8504076365  0.32E-04
  POISSON|      2        0.8771E-20      0.1229E-07    1992.8504076365  0.00E+00
  POISSON| Poisson solver converged in 2 iterations.
    35 Broy./Diag. 0.30E+00   13.5     0.00004151     -5672.2491129084  3.91E-04
  POISSON|   iter        pres error      nabs error        E_hartree    delta E
  POISSON|      1        0.2653E-07      0.1108E-06    1992.8504124004  0.48E-05
  POISSON|      2        0.3525E-21      0.2653E-07    1992.8504124004  0.00E+00
  POISSON| Poisson solver converged in 2 iterations.
    36 Broy./Diag. 0.30E+00   13.6     0.00005919     -5672.2492971893 -1.84E-04
  POISSON|   iter        pres error      nabs error        E_hartree    delta E
  POISSON|      1        0.8952E-08      0.2407E-06    1992.8504766211  0.64E-04
  POISSON| Poisson solver converged in 1 iteration. 
    37 Broy./Diag. 0.30E+00   12.2     0.00003864     -5672.2492730276  2.42E-05
  POISSON|   iter        pres error      nabs error        E_hartree    delta E
  POISSON|      1        0.7592E-08      0.1317E-06    1992.8505035010  0.27E-04
  POISSON| Poisson solver converged in 1 iteration. 
    38 Broy./Diag. 0.30E+00   12.2     0.00002312     -5672.2489456218  3.27E-04
  POISSON|   iter        pres error      nabs error        E_hartree    delta E
  POISSON|      1        0.1007E-09      0.1164E-06    1992.8505192523  0.16E-04
  POISSON| Poisson solver converged in 1 iteration. 
    39 Broy./Diag. 0.30E+00   12.2     0.00002122     -5672.2490254421 -7.98E-05
  POISSON|   iter        pres error      nabs error        E_hartree    delta E
  POISSON|      1        0.2937E-08      0.1279E-06    1992.8505501902  0.31E-04
  POISSON| Poisson solver converged in 1 iteration. 
    40 Broy./Diag. 0.30E+00   12.2     0.00001717     -5672.2490937047 -6.83E-05
  POISSON|   iter        pres error      nabs error        E_hartree    delta E
  POISSON|      1        0.1690E-08      0.1172E-06    1992.8505591044  0.89E-05
  POISSON| Poisson solver converged in 1 iteration. 
    41 Broy./Diag. 0.30E+00   12.1     0.00001062     -5672.2488808779  2.13E-04
  POISSON|   iter        pres error      nabs error        E_hartree    delta E
  POISSON|      1        0.2127E-08      0.1089E-06    1992.8505589853 -0.12E-06
  POISSON| Poisson solver converged in 1 iteration. 
    42 Broy./Diag. 0.30E+00   12.1     0.00000727     -5672.2489875417 -1.07E-04
  POISSON|   iter        pres error      nabs error        E_hartree    delta E
  POISSON|      1        0.2453E-08      0.6948E-07    1992.8505586318 -0.35E-06
  POISSON| Poisson solver converged in 1 iteration. 
    43 Broy./Diag. 0.30E+00   12.1     0.00001025     -5672.2490640343 -7.65E-05
  POISSON|   iter        pres error      nabs error        E_hartree    delta E
  POISSON|      1        0.1433E-08      0.1081E-06    1992.8505426094 -0.16E-04
  POISSON| Poisson solver converged in 1 iteration. 
    44 Broy./Diag. 0.30E+00   12.2     0.00000756     -5672.2490035782  6.05E-05
  POISSON|   iter        pres error      nabs error        E_hartree    delta E
  POISSON|      1        0.4752E-08      0.7627E-07    1992.8505400875 -0.25E-05
  POISSON| Poisson solver converged in 1 iteration. 
    45 Broy./Diag. 0.30E+00   12.2     0.00001063     -5672.2491339416 -1.30E-04
  POISSON|   iter        pres error      nabs error        E_hartree    delta E
  POISSON|      1        0.6219E-08      0.2900E-07    1992.8505391706 -0.92E-06
  POISSON| Poisson solver converged in 1 iteration. 
    46 Broy./Diag. 0.30E+00   12.2     0.00001734     -5672.2490713101  6.26E-05
  POISSON|   iter        pres error      nabs error        E_hartree    delta E
  POISSON|      1        0.5435E-08      0.8585E-07    1992.8505316732 -0.75E-05
  POISSON| Poisson solver converged in 1 iteration. 
    47 Broy./Diag. 0.30E+00   12.2     0.00001316     -5672.2490917303 -2.04E-05
  POISSON|   iter        pres error      nabs error        E_hartree    delta E
  POISSON|      1        0.1701E-08      0.4175E-07    1992.8505343792  0.27E-05
  POISSON| Poisson solver converged in 1 iteration. 
    48 Broy./Diag. 0.30E+00   12.1     0.00000777     -5672.2491460873 -5.44E-05
  POISSON|   iter        pres error      nabs error        E_hartree    delta E
  POISSON|      1        0.1690E-08      0.3167E-07    1992.8505365189  0.21E-05
  POISSON| Poisson solver converged in 1 iteration. 
    49 Broy./Diag. 0.30E+00   12.1     0.00000625     -5672.2490869561  5.91E-05
  POISSON|   iter        pres error      nabs error        E_hartree    delta E
  POISSON|      1        0.3851E-09      0.4180E-07    1992.8505370209  0.50E-06
  POISSON| Poisson solver converged in 1 iteration. 
    50 Broy./Diag. 0.30E+00   12.1     0.00000492     -5672.2490814823  5.47E-06
  POISSON|   iter        pres error      nabs error        E_hartree    delta E
  POISSON|      1        0.5256E-09      0.3103E-07    1992.8505423753  0.54E-05
  POISSON| Poisson solver converged in 1 iteration. 
    51 Broy./Diag. 0.30E+00   12.1     0.00000373     -5672.2491299706 -4.85E-05
  POISSON|   iter        pres error      nabs error        E_hartree    delta E
  POISSON|      1        0.3169E-09      0.3058E-07    1992.8505477510  0.54E-05
  POISSON| Poisson solver converged in 1 iteration. 
    52 Broy./Diag. 0.30E+00   12.2     0.00000215     -5672.2490781106  5.19E-05
  POISSON|   iter        pres error      nabs error        E_hartree    delta E
  POISSON|      1        0.7379E-11      0.2245E-07    1992.8505520980  0.43E-05
  POISSON| Poisson solver converged in 1 iteration. 
    53 Broy./Diag. 0.30E+00   12.1     0.00000224     -5672.2490664685  1.16E-05
  POISSON|   iter        pres error      nabs error        E_hartree    delta E
  POISSON|      1        0.3228E-09      0.2562E-07    1992.8505588967  0.68E-05
  POISSON| Poisson solver converged in 1 iteration. 
    54 Broy./Diag. 0.30E+00   12.1     0.00000241     -5672.2490824185 -1.60E-05
  POISSON|   iter        pres error      nabs error        E_hartree    delta E
  POISSON|      1        0.7107E-09      0.1491E-07    1992.8505610142  0.21E-05
  POISSON| Poisson solver converged in 1 iteration. 
    55 Broy./Diag. 0.30E+00   12.3     0.00000290     -5672.2490559806  2.64E-05
  POISSON|   iter        pres error      nabs error        E_hartree    delta E
  POISSON|      1        0.1082E-08      0.1110E-07    1992.8505631480  0.21E-05
  POISSON| Poisson solver converged in 1 iteration. 
    56 Broy./Diag. 0.30E+00   12.2     0.00000325     -5672.2490801895 -2.42E-05
  POISSON|   iter        pres error      nabs error        E_hartree    delta E
  POISSON|      1        0.7085E-09      0.1497E-07    1992.8505647407  0.16E-05
  POISSON| Poisson solver converged in 1 iteration. 
    57 Broy./Diag. 0.30E+00   12.2     0.00000229     -5672.2490683667  1.18E-05
  POISSON|   iter        pres error      nabs error        E_hartree    delta E
  POISSON|      1        0.7836E-09      0.1048E-07    1992.8505643470 -0.39E-06
  POISSON| Poisson solver converged in 1 iteration. 
    58 Broy./Diag. 0.30E+00   12.3     0.00000235     -5672.2490692515 -8.85E-07
  POISSON|   iter        pres error      nabs error        E_hartree    delta E
  POISSON|      1        0.4759E-09      0.1062E-07    1992.8505644148  0.68E-07
  POISSON| Poisson solver converged in 1 iteration. 
    59 Broy./Diag. 0.30E+00   12.1     0.00000189     -5672.2490905120 -2.13E-05
  POISSON|   iter        pres error      nabs error        E_hartree    delta E
  POISSON|      1        0.1752E-09      0.8644E-08    1992.8505647324  0.32E-06
  POISSON| Poisson solver converged in 1 iteration. 
    60 Broy./Diag. 0.30E+00   12.1     0.00000152     -5672.2490876426  2.87E-06
  POISSON|   iter        pres error      nabs error        E_hartree    delta E
  POISSON|      1        0.3440E-10      0.9129E-08    1992.8505638314 -0.90E-06
  POISSON| Poisson solver converged in 1 iteration. 
    61 Broy./Diag. 0.30E+00   12.1     0.00000116     -5672.2490768297  1.08E-05
  POISSON|   iter        pres error      nabs error        E_hartree    delta E
  POISSON|      1        0.6616E-12      0.8527E-08    1992.8505632731 -0.56E-06
  POISSON| Poisson solver converged in 1 iteration. 
    62 Broy./Diag. 0.30E+00   12.2     0.00000056     -5672.2490926024 -1.58E-05

  *** SCF run converged in    62 steps ***


  Electronic density on regular grids:      -2159.9999999992        0.0000000008
  Core density on regular grids:             2159.9999999995       -0.0000000005
  Total charge density on r-space grids:        0.0000000003
  Total charge density g-space grids:           0.0000000003

  Overlap energy of the core charge distribution:               0.00003361851366
  Self energy of the core charge distribution:              -9891.63555570741482
  Core Hamiltonian energy:                                   3202.49379279299819
  Hartree energy:                                            1992.85056327310895
  Electric enthalpy:                                         1992.85056327310895
  Exchange-correlation energy:                               -971.22437753314648
  Dispersion energy:                                           -4.70115083184715
  Electronic entropic energy:                                  -0.03239821865580
  Fermi energy:                                                -0.20785877076259

  Total energy:                                             -5672.24909260238110

 The electron density is written in cube file format to the file:

 cp2k-ELECTRON_DENSITY-1_0.cube

 !-----------------------------------------------------------------------------!
                     Mulliken Population Analysis

 #  Atom  Element  Kind  Atomic population                           Net charge
       1     Pt       1         10.042774                             -0.042774
       2     Pt       1         10.067356                             -0.067356
       3     Pt       1         10.056803                             -0.056803
       4     Pt       1         10.030972                             -0.030972
       5     Pt       1         10.024388                             -0.024388
       6     Pt       1         10.029077                             -0.029077
       7     Pt       1         10.047982                             -0.047982
       8     Pt       1         10.062291                             -0.062291
       9     Pt       1         10.057732                             -0.057732
      10     Pt       1         10.038174                             -0.038174
      11     Pt       1         10.037221                             -0.037221
      12     Pt       1         10.061946                             -0.061946
      13     Pt       1         10.091667                             -0.091667
      14     Pt       1         10.070944                             -0.070944
      15     Pt       1         10.037917                             -0.037917
      16     Pt       1         10.045149                             -0.045149
      17     Pt       1         10.040879                             -0.040879
      18     Pt       1         10.061345                             -0.061345
      19     Pt       1         10.057622                             -0.057622
[...]
    191      1      Pt          0.00969716    -0.02842723    -0.00184540
    192      1      Pt         -0.00565978    -0.01004074    -0.00111416
    193      1      Pt         -0.00980581     0.01859494    -0.00786301
    194      1      Pt         -0.01272836     0.00163620    -0.00933277
    195      1      Pt          0.00770706     0.01449165    -0.00728931
    196      1      Pt         -0.01292189     0.02916729     0.02155724
    197      1      Pt          0.00693210     0.00222320    -0.00578116
    198      1      Pt         -0.00226533    -0.00084064    -0.00846228
    199      1      Pt         -0.01978584    -0.00776412     0.01006265
    200      1      Pt          0.01997505    -0.00271303     0.00445599
    201      1      Pt          0.00600880     0.00456310    -0.00868476
    202      1      Pt         -0.00165870    -0.00233311    -0.00888558
    203      1      Pt          0.00314677     0.00620073    -0.01317917
    204      1      Pt          0.00681590     0.01328959    -0.00868185
    205      1      Pt          0.00657877     0.00380066    -0.00175782
    206      1      Pt         -0.00106715     0.00247326     0.01165201
    207      1      Pt         -0.00381417     0.00296288    -0.00685357
    208      1      Pt         -0.02076416     0.00333118    -0.00000966
    209      1      Pt          0.03020379    -0.00139199    -0.00808528
    210      1      Pt         -0.01041401    -0.00007105     0.00655632
    211      1      Pt          0.00143929    -0.00126186     0.00618801
    212      1      Pt          0.00542239    -0.00847086     0.00459898
    213      1      Pt         -0.02733272     0.01175088     0.00314380
    214      1      Pt          0.01835357     0.00341945    -0.00059485
    215      1      Pt          0.00404209     0.00179376    -0.01319366
    216      1      Pt         -0.01089853    -0.00221357     0.01303267
 SUM OF ATOMIC FORCES          -0.00003861    -0.00004120     0.00001658     0.00005885

 -------------------------------------------------------------------------------
 -                                                                             -
 -                                DBCSR STATISTICS                             -
 -                                                                             -
 -------------------------------------------------------------------------------
 COUNTER                                    TOTAL       BLAS       SMM       ACC
 flops    20 x    12 x    20            447897600       0.0%    100.0%      0.0%
 flops    20 x    32 x    20          58525286400       0.0%    100.0%      0.0%
 flops    20 x    20 x   204         244784332800       0.0%    100.0%      0.0%
 flops    20 x    20 x   224         268782796800       0.0%    100.0%      0.0%
 flops    20 x    20 x   192        1382311526400       0.0%    100.0%      0.0%
 flops inhomo. stacks                           0       0.0%      0.0%      0.0%
 flops total                         1.954852E+12       0.0%    100.0%      0.0%
 flops max/rank                     62.737357E+09       0.0%    100.0%      0.0%
 matmuls inhomo. stacks                         0       0.0%      0.0%      0.0%
 matmuls total                           14332032       0.0%    100.0%      0.0%
 number of processed stacks                 18816       0.0%    100.0%      0.0%
 average stack size                                     0.0     761.7       0.0
 marketing flops                     2.782526E+12
 -------------------------------------------------------------------------------
 # multiplications                             65
 max memory usage/rank               1.816437E+09
 # max total images/rank                        2
 # max 3D layers                                1
 # MPI messages exchanged                   27040
 MPI messages size (bytes):
  total size                        36.155982E+09
  min size                         829.440000E+03
  max size                           4.665600E+06
  average size                       1.337130E+06
 MPI breakdown and total messages size (bytes):
             size <=      128                   0                        0
       128 < size <=     8192                   0                        0
      8192 < size <=    32768                   0                        0
     32768 < size <=   131072                   0                        0
    131072 < size <=  4194304               26816              35110886400
   4194304 < size <= 16777216                 224               1045094400
  16777216 < size                               0                        0
 -------------------------------------------------------------------------------

 *** WARNING in dbcsr_mm.F:290 :: Using a non-square number of MPI ranks ***
 *** might lead to poor performance. Used ranks: 32 Suggested: 36 64     ***

 -------------------------------------------------------------------------------
 -                                                                             -
 -                      DBCSR MESSAGE PASSING PERFORMANCE                      -
 -                                                                             -
 -------------------------------------------------------------------------------
 ROUTINE             CALLS      AVE VOLUME [Bytes]
 MP_Bcast                6                     12.
 MP_Allreduce          478                      9.
 MP_Alltoall          1801                1275169.
 MP_ISend             2080                 578664.
 MP_IRecv             2080                 561679.
 -------------------------------------------------------------------------------

 -------------------------------------------------------------------------------
 -                                                                             -
 -                                DBM STATISTICS                               -
 -                                                                             -
 -------------------------------------------------------------------------------
    M  x    N  x    K                                          COUNT     PERCENT
 -------------------------------------------------------------------------------

 -------------------------------------------------------------------------------
 -                                                                             -
 -                                GRID STATISTICS                              -
 -                                                                             -
 -------------------------------------------------------------------------------
 LP    KERNEL             BACKEND                              COUNT     PERCENT
 4     collocate general  REF                               21465045      49.97%
 4     integrate general  REF                               21124330      49.17%
 5     integrate general  REF                                 340715       0.79%
 0     collocate general  REF                                  13824       0.03%
 0     integrate general  REF                                   6912       0.02%
 1     integrate general  REF                                   6912       0.02%
 -------------------------------------------------------------------------------

 MEMORY| Estimated peak process memory [MiB]                                2147

 -------------------------------------------------------------------------------
 ----                             MULTIGRID INFO                            ----
 -------------------------------------------------------------------------------
 count for grid        1:          17578          cutoff [a.u.]          200.00
 count for grid        2:         177739          cutoff [a.u.]           66.67
 count for grid        3:         109831          cutoff [a.u.]           22.22
 count for grid        4:         155211          cutoff [a.u.]            7.41
 total gridlevel count  :         460359

 -------------------------------------------------------------------------------
 -                                                                             -
 -                         MESSAGE PASSING PERFORMANCE                         -
 -                                                                             -
 -------------------------------------------------------------------------------

 ROUTINE             CALLS      AVE VOLUME [Bytes]
 MP_Group                4
 MP_Bcast             1768                 164714.
 MP_Allreduce         1618                   1562.
 MP_Sync                68
 MP_Alltoall          3111               49442296.
 MP_SendRecv           124                  14958.
 MP_ISendRecv         7812                 214800.
 MP_Wait             18942
 MP_comm_split           1
 MP_ISend             9980                 715119.
 MP_IRecv             9980                 715119.
 MP_Recv               192                1105920.
 MP_Write_All            3                4213860.
 -------------------------------------------------------------------------------


 -------------------------------------------------------------------------------
 -                                                                             -
 -                           R E F E R E N C E S                               -
 -                                                                             -
 -------------------------------------------------------------------------------
 
 CP2K version 2022.1, the CP2K developers group (2022).
 CP2K is freely available from https://www.cp2k.org/ .

 Kuehne,Thomas D.; Iannuzzi,Marcella; Del Ben,Mauro;
 Rybkin,Vladimir V.; Seewald,Patrick; Stein,Frederick; Laino,Teodoro;
 Khaliullin,Rustam Z.; Schuett,Ole; Schiffmann,Florian; Golze,Dorothea;
 Wilhelm,Jan; Chulkov,Sergey; Bani-Hashemian,Mohammad Hossein;
 Weber,Valery; Borstnik,Urban; Taillefumier,Mathieu;
 Jakobovits,Alice Shoshana; Lazzaro,Alfio; Pabst,Hans; Mueller,Tiziano;
 Schade,Robert; Guidon,Manuel; Andermatt,Samuel; Holmberg,Nico;
 Schenter,Gregory K.; Hehn,Anna; Bussy,Augustin; Belleflamme,Fabian;
 Tabacchi,Gloria; Gloess,Andreas; Lass,Michael; Bethune,Iain;
 Mundy,Christopher J.; Plessl,Christian; Watkins,Matt;
 VandeVondele,Joost; Krack,Matthias; Hutter,Juerg. 
 The Journal of Chemical Physics, 152 (19), (2020). 
 CP2K: An electronic structure and molecular dynamics software package -
 Quickstep: Efficient and accurate electronic structure calculations.
 https://doi.org/10.1063/5.0007045

 Goerigk, Lars; Hansen, Andreas; Bauer, Christoph; Ehrlich, Stephan;
 Najibi, Asim; Grimme, Stefan. , 19 (48), (2017). 
 A look at the density functional theory zoo with the advanced GMTKN55 database
 for general main group thermochemistry, kinetics and noncovalent interactions.
 https://doi.org/10.1039/C7CP04913G

 Bani-Hashemian, MH; Bruck, S; Luisier, M; VandeVondele, J. 
 JOURNAL OF CHEMICAL PHYSICS, 144 (4), 044113 (2016). 
 A generalized Poisson solver for first-principles device simulations.
 https://doi.org/10.1063/1.4940796

 Schuett, Ole; Messmer, Peter; Hutter, Juerg; VandeVondele, Joost. 
 Electronic Structure Calculations on Graphics Processing Units, John
 Wiley & Sons, Ltd, 173-190 (2016). 
 GPU-Accelerated Sparse Matrix-Matrix Multiplication for
 Linear Scaling Density Functional Theory.
 https://doi.org/10.1002/9781118670712.ch8

 Heinecke, A; Henry, G; Hutchinson, M; Pabst, H. 
 Proceedings of Intl. Supercomputing Conference, 981-991 (2016). 
 LIBXSMM: Accelerating Small Matrix Multiplications
 by Runtime Code Generation.
 https://doi.org/10.1109/SC.2016.83

 Borstnik, U; VandeVondele, J; Weber, V; Hutter, J. 
 PARALLEL COMPUTING, 40 (5-6), 47-58 (2014). 
 Sparse matrix multiplication: The distributed block-compressed sparse
 row library.
 https://doi.org/10.1016/j.parco.2014.03.012

 Hutter, J; Iannuzzi, M; Schiffmann, F; VandeVondele, J. 
 WIREs Comput Mol Sci., 4 (1), 15-25 (2014). 
 CP2K: atomistic simulations of condensed matter systems.
 https://doi.org/10.1002/wcms.1159

 Marek, A; Blum, V; Johanni, R; Havu, V; Lang, B; Auckenthaler, T;
 Heinecke, A; Bungartz, H; Lederer, H. 
 Journal of Physics: Condensed Matter, 26 (21), (2014). 
 The ELPA library: scalable parallel eigenvalue solutions for
 electronic structure
 theory and computational science.
 https://doi.org/10.1088/0953-8984/26/21/213201

 Grimme, S; Ehrlich, S; Goerigk, L. 
 JOURNAL OF COMPUTATIONAL CHEMISTRY, 32, 1456 (2011). 
 Effect of the damping function in dispersion corrected density functional theory.
 https://doi.org/10.1002/jcc.21759

 Grimme, S; Antony, J; Ehrlich, S; Krieg, H. 
 JOURNAL OF CHEMICAL PHYSICS, 132 (15), 154104 (2010). 
 A consistent and accurate ab initio parametrization of density
 functional dispersion correction (DFT-D) for the 94 elements H-Pu.
 https://doi.org/10.1063/1.3382344

 VandeVondele, J; Hutter, J. 
 JOURNAL OF CHEMICAL PHYSICS, 127 (11), 114105 (2007). 
 Gaussian basis sets for accurate calculations on molecular systems in
 gas and condensed phases.
 https://doi.org/10.1063/1.2770708

 Krack, M. 
 THEORETICAL CHEMISTRY ACCOUNTS, 114 (1-3), 145-152 (2005). 
 Pseudopotentials for H to Kr optimized for gradient-corrected
 exchange-correlation functionals.
 https://doi.org/10.1007/s00214-005-0655-y

 VandeVondele, J; Krack, M; Mohamed, F; Parrinello, M; Chassaing, T;
 Hutter, J. COMPUTER PHYSICS COMMUNICATIONS, 167 (2), 103-128 (2005). 
 QUICKSTEP: Fast and accurate density functional calculations using a
 mixed Gaussian and plane waves approach.
 https://doi.org/10.1016/j.cpc.2004.12.014

 Frigo, M; Johnson, SG. 
 PROCEEDINGS OF THE IEEE, 93 (2), 216-231 (2005). 
 The design and implementation of FFTW3.
 https://doi.org/10.1109/JPROC.2004.840301

 Hartwigsen, C; Goedecker, S; Hutter, J. 
 PHYSICAL REVIEW B, 58 (7), 3641-3662 (1998). 
 Relativistic separable dual-space Gaussian pseudopotentials from H to Rn.
 https://doi.org/10.1103/PhysRevB.58.3641

 Lippert, G; Hutter, J; Parrinello, M. 
 MOLECULAR PHYSICS, 92 (3), 477-487 (1997). 
 A hybrid Gaussian and plane wave density functional scheme.
 https://doi.org/10.1080/002689797170220

 Perdew, JP; Burke, K; Ernzerhof, M. 
 PHYSICAL REVIEW LETTERS, 77 (18), 3865-3868 (1996). 
 Generalized gradient approximation made simple.
 https://doi.org/10.1103/PhysRevLett.77.3865

 Goedecker, S; Teter, M; Hutter, J. 
 PHYSICAL REVIEW B, 54 (3), 1703-1710 (1996). 
 Separable dual-space Gaussian pseudopotentials.
 https://doi.org/10.1103/PhysRevB.54.1703


 -------------------------------------------------------------------------------
 -                                                                             -
 -                                T I M I N G                                  -
 -                                                                             -
 -------------------------------------------------------------------------------
 SUBROUTINE                       CALLS  ASD         SELF TIME        TOTAL TIME
                                MAXIMUM       AVERAGE  MAXIMUM  AVERAGE  MAXIMUM
 CP2K                                 1  1.0    0.024    0.049  819.365  819.366
 qs_forces                            1  2.0    0.001    0.001  818.944  818.945
 qs_energies                          1  3.0    0.000    0.000  806.119  806.123
 scf_env_do_scf                       1  4.0    0.000    0.001  797.804  797.912
 scf_env_do_scf_inner_loop           62  5.0    0.003    0.008  797.801  797.910
 rebuild_ks_matrix                   63  7.0    0.000    0.000  510.394  510.424
 qs_ks_build_kohn_sham_matrix        63  8.0    0.009    0.012  510.394  510.424
 qs_ks_update_qs_env                 62  6.0    0.000    0.001  502.047  502.078
 pw_transfer                       2970 12.1    0.230    0.323  287.371  290.844
 fft_wrap_pw1pw2                   2970 13.1    0.032    0.039  287.141  290.522
 fft_wrap_pw1pw2_200               2592 14.4   24.306   27.467  284.347  287.307
 pw_poisson_solve                    63  9.0    0.018    0.025  247.289  247.358
 implicit_poisson_solver_mixed_      63 10.0    6.638    7.137  232.866  233.002
 fft3d_ps                          2970 15.1  121.966  131.531  213.912  217.436
 qs_rho_update_rho_low               63  6.0    0.000    0.001  190.836  190.858
 calculate_rho_elec                  63  7.0    0.344    0.370  190.835  190.858
 sum_up_and_integrate                63  9.0    0.982    1.073  180.080  180.118
 integrate_v_rspace                  63 10.0    0.002    0.002  179.098  179.217
 derive_fft                         316 12.2    0.022    0.026  163.987  165.139
 grid_collocate_task_list            63  8.0   84.581  164.795   84.581  164.795
 grid_integrate_task_list            63 11.0   78.419  153.599   78.419  153.599
 apply_P_operator                   253 11.2    2.366    2.705  133.682  134.632
 rs_pw_transfer                     508 10.5    0.006    0.007  105.553  132.131
 density_rs2pw                       63  8.0    0.004    0.005  104.537  131.329
 mp_waitany                        9980 12.4   87.934  114.552   87.934  114.552
 rs_pw_transfer_RS2PW_200            65 10.0    3.640    4.128   86.411  112.978
 mp_alltoall_d11v                   898 10.3   77.490  102.089   77.490  102.089
 rs_gather_matrices                  63 11.0    0.238    0.272   76.339  100.908
 qs_scf_new_mos                      62  6.0    0.005    0.008   77.940   78.062
 qs_vxc_create                       63  9.0    0.002    0.003   74.688   75.530
 xc_vxc_pw_create                    63 10.0    1.699    2.128   74.686   75.528
 eigensolver                         62  7.0    0.005    0.009   70.304   70.378
 x_to_yz                           1863 16.3   40.679   46.209   63.342   67.908
 mp_alltoall_z22v                  2970 17.1   39.677   60.682   39.677   60.682
 xc_pw_derive                       378 12.0    0.006    0.008   50.474   53.197
 apply_poisson_operator_fft          63 11.0    0.001    0.001   47.943   48.210
 cp_fm_diag_elpa                     63  8.0    0.001    0.001   44.539   44.662
 cp_fm_diag_elpa_base                63  9.0   43.587   43.713   44.429   44.492
 yz_to_x                           1107 15.8   11.520   12.317   28.534   40.416
 xc_rho_set_and_dset_create          63 11.0    0.723    0.886   38.988   39.776
 apply_inv_laplace_operator_fft     160 11.6    1.300    1.465   35.436   36.482
 pw_scatter_p                      1863 15.3   31.722   35.402   31.722   35.402
 xc_pw_divergence                    63 11.0    0.004    0.004   32.992   34.752
 ps_implicit_compute_veps            63 11.0    0.760    0.888   33.436   34.112
 gspace_mixing                       61  6.0    0.334    0.359   29.552   29.553
 pw_derive                         1326 13.1   25.304   27.043   25.304   27.043
 cp_fm_triangular_multiply          186  8.0   25.004   25.170   25.004   25.170
 ps_implicit_compute_error_fft       95 11.0    1.763    1.874   23.487   25.053
 potential_pw2rs                     63 11.0    0.051    0.057   24.328   24.429
 broyden_mixing                      61  7.0   21.658   21.912   22.142   22.224
 pw_gather_p                       1107 14.8   16.884   17.654   16.884   17.654
 -------------------------------------------------------------------------------

 The number of warnings for this run is : 1
 
 -------------------------------------------------------------------------------
  **** **** ******  **  PROGRAM ENDED AT                 2023-12-02 22:07:35.982
 ***** ** ***  *** **   PROGRAM RAN ON                                     cu042
 **    ****   ******    PROGRAM RAN BY                                     jxzhu
 ***** **    ** ** **   PROGRAM PROCESS ID                                 21371
  **** **  *******  **  PROGRAM STOPPED IN /public/home/jxzhu/tmp_calc/04c0855f9
                                           8753fac23fde4df51ba20f3741a9e9a/calc/
                                           task.001.000012
