# Projected DOS for list 115 of 3 atoms, at iteration step i = 0, E(Fermi) =     0.101540 a.u.
#     MO Eigenvalue [a.u.]      Occupation                 s                 p                 d
       1         -0.708367        2.000000        0.00000000        0.00000000        0.00000000
       2         -0.696979        2.000000        0.00000000        0.00000000        0.00000000
       3         -0.695301        2.000000        0.00000000        0.00000000        0.00000000
       4         -0.694902        2.000000        0.00000012        0.00000010        0.00000000
       5         -0.690081        2.000000        0.00000002        0.00000001        0.00000000
       6         -0.686805        2.000000        0.00000000        0.00000000        0.00000000
       7         -0.686571        2.000000        0.00000000        0.00000000        0.00000000
       8         -0.685003        2.000000        0.00000000        0.00000000        0.00000000
       9         -0.684036        2.000000        0.00000000        0.00000000        0.00000000
      10         -0.683920        2.000000        0.00000007        0.00000010        0.00000000
      11         -0.681735        2.000000        0.00000000        0.00000000        0.00000000
      12         -0.679408        2.000000        0.00000000        0.00000000        0.00000000
      13         -0.678932        2.000000        0.00000395        0.00000197        0.00000002
      14         -0.678381        2.000000        0.00000000        0.00000000        0.00000000
      15         -0.677963        2.000000        0.00000000        0.00000000        0.00000000
      16         -0.677540        2.000000        0.00000000        0.00000000        0.00000000
      17         -0.677381        2.000000        0.00000039        0.00000089        0.00000001
      18         -0.677246        2.000000        0.00000000        0.00000000        0.00000000
      19         -0.675827        2.000000        0.00000000        0.00000000        0.00000000
      20         -0.675724        2.000000        0.00000002        0.00000021        0.00000000
      21         -0.674932        2.000000        0.00000005        0.00000037        0.00000001
      22         -0.674380        2.000000        0.00000000        0.00000000        0.00000000
      23         -0.673393        2.000000        0.00000000        0.00000000        0.00000000
      24         -0.672924        2.000000        0.00000193        0.00000183        0.00000001
      25         -0.672289        2.000000        0.00000000        0.00000000        0.00000000
      26         -0.672227        2.000000        0.00000012        0.00000001        0.00000000
      27         -0.671275        2.000000        0.00000715        0.00000532        0.00000006
      28         -0.670770        2.000000        0.00000000        0.00000000        0.00000000
      29         -0.670400        2.000000        0.00000000        0.00000000        0.00000000
      30         -0.669922        2.000000        0.00000001        0.00000001        0.00000000
      31         -0.669606        2.000000        0.00004924        0.00002324        0.00000010
      32         -0.668947        2.000000        0.00000050        0.00000062        0.00000000
      33         -0.668931        2.000000        0.00000099        0.00000184        0.00000000
      34         -0.668431        2.000000        0.00000001        0.00000010        0.00000000
      35         -0.668008        2.000000        0.00000031        0.00000032        0.00000000
      36         -0.667083        2.000000        0.00000005        0.00000004        0.00000000
      37         -0.666996        2.000000        0.00000030        0.00000168        0.00000001
      38         -0.666939        2.000000        0.00000000        0.00000000        0.00000000
      39         -0.666646        2.000000        0.00000003        0.00000002        0.00000000
      40         -0.666363        2.000000        0.00000001        0.00000002        0.00000000
      41         -0.666281        2.000000        0.00000258        0.00000097        0.00000001
      42         -0.666129        2.000000        0.00000017        0.00000005        0.00000000
      43         -0.665867        2.000000        0.00000009        0.00000002        0.00000000
      44         -0.664404        2.000000        0.00001871        0.00001300        0.00000007
      45         -0.664061        2.000000        0.00000055        0.00000061        0.00000000
      46         -0.663948        2.000000        0.00004819        0.00004147        0.00000027
      47         -0.663550        2.000000        0.00000005        0.00000051        0.00000000
      48         -0.662943        2.000000        0.00008815        0.00002721        0.00000066
      49         -0.662627        2.000000        0.00000021        0.00000007        0.00000000
      50         -0.661965        2.000000        0.00000758        0.00000175        0.00000001
      51         -0.661528        2.000000        0.00032556        0.00018996        0.00000466
      52         -0.660900        2.000000        0.00001105        0.00000934        0.00000021
      53         -0.660166        2.000000        0.00000009        0.00000003        0.00000000
      54         -0.659683        2.000000        0.00000862        0.00007249        0.00000025
      55         -0.658835        2.000000        0.00000090        0.00000028        0.00000000
      56         -0.658814        2.000000        0.00040525        0.00007895        0.00000056
      57         -0.658691        2.000000        0.00003892        0.00002297        0.00000121
      58         -0.658084        2.000000        0.00000015        0.00000292        0.00000009
      59         -0.658073        2.000000        0.00000013        0.00000845        0.00000028
      60         -0.657975        2.000000        0.00003261        0.00000508        0.00000004
      61         -0.657678        2.000000        0.00000059        0.00000006        0.00000000
      62         -0.657592        2.000000        0.00000185        0.00000039        0.00000000
      63         -0.657226        2.000000        0.00000837        0.00000341        0.00000003
      64         -0.657087        2.000000        0.00000164        0.00000030        0.00000000
      65         -0.656742        2.000000        0.00006147        0.00000973        0.00000004
      66         -0.656449        2.000000        0.00007982        0.00001675        0.00000008
      67         -0.656215        2.000000        0.00003915        0.00000866        0.00000006
      68         -0.655700        2.000000        0.00001098        0.00000612        0.00000005
      69         -0.655174        2.000000        0.00013783        0.00003126        0.00000052
      70         -0.654827        2.000000        0.00000188        0.00000041        0.00000000
      71         -0.654660        2.000000        0.00001516        0.00000122        0.00000003
      72         -0.654406        2.000000        0.00000270        0.00000061        0.00000000
      73         -0.654250        2.000000        0.00000001        0.00000005        0.00000000
      74         -0.653619        2.000000        0.00000104        0.00000327        0.00000006
      75         -0.653105        2.000000        0.00019789        0.00003361        0.00000021
      76         -0.652904        2.000000        0.00001270        0.00005128        0.00000009
      77         -0.652612        2.000000        0.00000543        0.00000124        0.00000002
      78         -0.652411        2.000000        0.00000622        0.00000059        0.00000001
      79         -0.652213        2.000000        0.00348540        0.00060497        0.00000433
      80         -0.652083        2.000000        0.00060291        0.00028064        0.00000086
      81         -0.651807        2.000000        0.00002781        0.00004047        0.00000032
      82         -0.651706        2.000000        0.00006808        0.00001488        0.00000031
      83         -0.651237        2.000000        0.00106196        0.00015747        0.00000067
      84         -0.651053        2.000000        0.00055404        0.00008647        0.00000042
      85         -0.650411        2.000000        0.00120686        0.00020152        0.00000078
      86         -0.650326        2.000000        0.00009411        0.00005327        0.00000072
      87         -0.650219        2.000000        0.00001311        0.00000546        0.00000002
      88         -0.650130        2.000000        0.00003493        0.00001464        0.00000050
      89         -0.649849        2.000000        0.00000322        0.00002456        0.00000012
      90         -0.649510        2.000000        0.00004108        0.00000596        0.00000007
      91         -0.648737        2.000000        0.00001791        0.00002567        0.00000015
      92         -0.648608        2.000000        0.00261218        0.00032355        0.00000400
      93         -0.648509        2.000000        0.00006745        0.00000898        0.00000010
      94         -0.648091        2.000000        0.00335329        0.00041775        0.00000586
      95         -0.647956        2.000000        0.00165918        0.00024728        0.00000136
      96         -0.647875        2.000000        0.00008915        0.00001064        0.00000015
      97         -0.647628        2.000000        0.00008444        0.00001051        0.00000012
      98         -0.647248        2.000000        0.00000090        0.00000368        0.00000001
      99         -0.646997        2.000000        0.00024636        0.00033271        0.00001206
     100         -0.646893        2.000000        0.00016319        0.00017102        0.00000626
     101         -0.646794        2.000000        0.00088622        0.00012866        0.00000146
     102         -0.645843        2.000000        0.04415535        0.00588397        0.00006370
     103         -0.645519        2.000000        0.00269243        0.00040545        0.00000294
     104         -0.645232        2.000000        0.00223852        0.00048539        0.00000743
     105         -0.644964        2.000000        0.00083997        0.00012873        0.00000135
     106         -0.644451        2.000000        0.03202144        0.00475218        0.00005599
     107         -0.644170        2.000000        0.00008156        0.00002492        0.00000017
     108         -0.643891        2.000000        0.00216633        0.00031845        0.00000387
     109         -0.643862        2.000000        0.00092047        0.00016498        0.00000152
     110         -0.643478        2.000000        0.00250091        0.00048004        0.00000554
     111         -0.643325        2.000000        0.01557801        0.00282920        0.00003458
     112         -0.642934        2.000000        0.00156754        0.00026156        0.00000229
     113         -0.642899        2.000000        0.00000341        0.00000053        0.00000000
     114         -0.642460        2.000000        0.00001973        0.00000401        0.00000002
     115         -0.642175        2.000000        0.00210408        0.00068421        0.00000121
     116         -0.642120        2.000000        0.00077776        0.00011674        0.00000143
     117         -0.641851        2.000000        0.01707021        0.00333439        0.00002539
     118         -0.641683        2.000000        0.00009295        0.00004681        0.00000039
     119         -0.641305        2.000000        0.00209403        0.00039663        0.00000275
     120         -0.641072        2.000000        0.00117185        0.00030951        0.00000203
     121         -0.640960        2.000000        0.00036883        0.00033785        0.00000420
     122         -0.640793        2.000000        0.00351372        0.00060688        0.00000814
     123         -0.640578        2.000000        0.00171108        0.00058062        0.00000239
     124         -0.640464        2.000000        0.00146061        0.00065044        0.00000684
     125         -0.640169        2.000000        0.00035850        0.00138930        0.00000550
     126         -0.639736        2.000000        0.00082688        0.00030911        0.00000448
     127         -0.639499        2.000000        0.00381811        0.00257055        0.00000447
     128         -0.639154        2.000000        0.00146437        0.00064207        0.00000064
     129         -0.639060        2.000000        0.00147133        0.00093233        0.00000161
     130         -0.638976        2.000000        0.00310505        0.00139078        0.00000109
     131         -0.638593        2.000000        0.00056976        0.00048157        0.00000052
     132         -0.638261        2.000000        0.00008008        0.00003246        0.00000010
     133         -0.638059        2.000000        0.00069473        0.00015767        0.00000250
     134         -0.637912        2.000000        0.00175845        0.00056001        0.00000439
     135         -0.637762        2.000000        0.00048854        0.00011177        0.00000066
     136         -0.637584        2.000000        0.03276695        0.00900231        0.00002111
     137         -0.636804        2.000000        0.00002136        0.00000763        0.00000003
     138         -0.636640        2.000000        0.01494922        0.00327274        0.00002111
     139         -0.636429        2.000000        0.00136973        0.00048710        0.00000564
     140         -0.635515        2.000000        0.10775618        0.02554913        0.00014692
     141         -0.634989        2.000000        0.00980248        0.00272435        0.00001632
     142         -0.634462        2.000000        0.00130525        0.00109349        0.00000199
     143         -0.634132        2.000000        0.00076858        0.00027683        0.00000179
     144         -0.633763        2.000000        0.02271954        0.00606155        0.00002245
     145         -0.633531        2.000000        0.00004590        0.00001504        0.00000003
     146         -0.632585        2.000000        0.00148089        0.00064120        0.00000070
     147         -0.632333        2.000000        0.00388378        0.00249221        0.00000401
     148         -0.632031        2.000000        0.00005189        0.00022683        0.00000281
     149         -0.631841        2.000000        0.00228781        0.00074258        0.00000531
     150         -0.631318        2.000000        0.00301096        0.00198510        0.00000444
     151         -0.630640        2.000000        0.00217122        0.00448620        0.00003006
     152         -0.630519        2.000000        0.00036469        0.00093385        0.00000523
     153         -0.630490        2.000000        0.00018089        0.00045599        0.00000275
     154         -0.629959        2.000000        0.00040660        0.00113805        0.00006740
     155         -0.629452        2.000000        0.00806049        0.00291755        0.00004871
     156         -0.629210        2.000000        0.00001996        0.00007460        0.00000053
     157         -0.628856        2.000000        0.00010233        0.00003863        0.00000231
     158         -0.628516        2.000000        0.00066618        0.00052842        0.00000167
     159         -0.628511        2.000000        0.00788035        0.00163417        0.00001983
     160         -0.628382        2.000000        0.00191908        0.00043661        0.00000271
     161         -0.628242        2.000000        0.01121511        0.00261307        0.00002395
     162         -0.628026        2.000000        0.00268803        0.00226755        0.00000482
     163         -0.627712        2.000000        0.00313500        0.00074212        0.00000967
     164         -0.627438        2.000000        0.00960951        0.00234127        0.00003294
     165         -0.627281        2.000000        0.00551039        0.00117557        0.00001891
     166         -0.626983        2.000000        0.02841097        0.00690813        0.00005222
     167         -0.626804        2.000000        0.02091452        0.00455893        0.00008576
     168         -0.626588        2.000000        0.00307770        0.00141795        0.00000364
     169         -0.626019        2.000000        0.00059427        0.00014769        0.00000414
     170         -0.625843        2.000000        0.00003783        0.00001206        0.00000042
     171         -0.625019        2.000000        0.00180374        0.00037051        0.00000753
     172         -0.624831        2.000000        0.00134452        0.00030795        0.00001943
     173         -0.624166        2.000000        0.01275234        0.00412799        0.00001829
     174         -0.623906        2.000000        0.00023942        0.00010666        0.00000016
     175         -0.623799        2.000000        0.00147565        0.00048671        0.00000167
     176         -0.623716        2.000000        0.00001897        0.00002820        0.00000010
     177         -0.623382        2.000000        0.00455742        0.00159169        0.00001155
     178         -0.623067        2.000000        0.00019000        0.00005386        0.00000038
     179         -0.622801        2.000000        0.05261683        0.01456261        0.00011095
     180         -0.622617        2.000000        0.02048974        0.00497764        0.00006044
     181         -0.622499        2.000000        0.00118272        0.00040205        0.00000231
     182         -0.621672        2.000000        0.00987665        0.00295743        0.00002008
     183         -0.621151        2.000000        0.01029864        0.00309787        0.00002135
     184         -0.620781        2.000000        0.02191477        0.00667116        0.00004398
     185         -0.620579        2.000000        0.02389041        0.00884528        0.00003839
     186         -0.619930        2.000000        0.00293093        0.00109682        0.00000541
     187         -0.618694        2.000000        0.00002109        0.00000696        0.00000004
     188         -0.618461        2.000000        0.00025948        0.00004739        0.00000144
     189         -0.618211        2.000000        0.00021102        0.00007286        0.00000043
     190         -0.617957        2.000000        0.01457367        0.00548358        0.00002408
     191         -0.617770        2.000000        0.00538057        0.00200436        0.00001457
     192         -0.617636        2.000000        0.04596387        0.01948885        0.00005513
     193         -0.617200        2.000000        0.00019897        0.00088825        0.00000854
     194         -0.616810        2.000000        0.01922788        0.00841538        0.00002357
     195         -0.615618        2.000000        0.00006239        0.00077305        0.00000290
     196         -0.615377        2.000000        0.00046166        0.00022051        0.00000034
     197         -0.615228        2.000000        0.02594565        0.00670077        0.00009879
     198         -0.614941        2.000000        0.00002083        0.00000855        0.00000003
     199         -0.613862        2.000000        0.00009020        0.00012002        0.00000723
     200         -0.613167        2.000000        0.00038332        0.00018602        0.00000259
     201         -0.612937        2.000000        0.00000926        0.00000704        0.00000001
     202         -0.612465        2.000000        0.00581361        0.00380440        0.00000713
     203         -0.611371        2.000000        0.00032113        0.00017572        0.00000025
     204         -0.611273        2.000000        0.00106190        0.00032743        0.00000699
     205         -0.610903        2.000000        0.00423969        0.00121994        0.00002021
     206         -0.609912        2.000000        0.00021777        0.00021197        0.00000070
     207         -0.609442        2.000000        0.00004973        0.00001997        0.00000011
     208         -0.609149        2.000000        0.00036142        0.00016829        0.00000077
     209         -0.608882        2.000000        0.00000155        0.00000891        0.00000025
     210         -0.608562        2.000000        0.00007414        0.00002431        0.00000016
     211         -0.608012        2.000000        0.00007970        0.00007571        0.00000003
     212         -0.607014        2.000000        0.00224954        0.00102466        0.00000722
     213         -0.606300        2.000000        0.00030165        0.00009775        0.00000124
     214         -0.605948        2.000000        0.00001283        0.00000518        0.00000005
     215         -0.605403        2.000000        0.00000261        0.00000258        0.00000002
     216         -0.604664        2.000000        0.00007052        0.00005962        0.00000028
     217         -0.604080        2.000000        0.00021171        0.00012846        0.00000054
     218         -0.603538        2.000000        0.00000514        0.00002082        0.00000036
     219         -0.603145        2.000000        0.00032437        0.00015746        0.00000267
     220         -0.602213        2.000000        0.00003026        0.00002808        0.00000186
     221         -0.601871        2.000000        0.00000503        0.00000694        0.00000005
     222         -0.600521        2.000000        0.00000120        0.00000104        0.00000000
     223         -0.599848        2.000000        0.00038351        0.00018438        0.00000113
     224         -0.598111        2.000000        0.00142462        0.00055963        0.00001134
     225         -0.597286        2.000000        0.00006835        0.00002753        0.00000048
     226         -0.597121        2.000000        0.00040023        0.00013695        0.00000424
     227         -0.595585        2.000000        0.00008315        0.00006223        0.00000015
     228         -0.591103        2.000000        0.00000003        0.00000019        0.00000000
     229         -0.582585        2.000000        0.00000030        0.00000055        0.00000000
     230         -0.576283        2.000000        0.00000002        0.00000007        0.00000000
     231         -0.258156        2.000000        0.00000000        0.00000000        0.00000000
     232         -0.253473        2.000000        0.00000000        0.00000000        0.00000000
     233         -0.246233        2.000000        0.00000000        0.00000000        0.00000000
     234         -0.244651        2.000000        0.00000000        0.00000000        0.00000000
     235         -0.243092        2.000000        0.00000000        0.00000000        0.00000000
     236         -0.242544        2.000000        0.00000138        0.00000651        0.00000002
     237         -0.241048        2.000000        0.00000000        0.00000000        0.00000000
     238         -0.240546        2.000000        0.00000000        0.00000000        0.00000000
     239         -0.237982        2.000000        0.00000000        0.00000000        0.00000000
     240         -0.237798        2.000000        0.00000000        0.00000002        0.00000000
     241         -0.236566        2.000000        0.00000000        0.00000000        0.00000000
     242         -0.235920        2.000000        0.00000000        0.00000000        0.00000000
     243         -0.233145        2.000000        0.00000001        0.00000008        0.00000000
     244         -0.232785        2.000000        0.00000000        0.00000000        0.00000000
     245         -0.232224        2.000000        0.00000000        0.00000000        0.00000000
     246         -0.232174        2.000000        0.00000214        0.00001013        0.00000002
     247         -0.232015        2.000000        0.00000037        0.00000199        0.00000001
     248         -0.230744        2.000000        0.00000336        0.00001688        0.00000004
     249         -0.230697        2.000000        0.00000001        0.00000005        0.00000000
     250         -0.229959        2.000000        0.00000016        0.00000100        0.00000001
     251         -0.229741        2.000000        0.00000000        0.00000000        0.00000000
     252         -0.228898        2.000000        0.00000000        0.00000000        0.00000000
     253         -0.227939        2.000000        0.00000000        0.00000000        0.00000000
     254         -0.227542        2.000000        0.00000000        0.00000000        0.00000000
     255         -0.227010        2.000000        0.00000000        0.00000001        0.00000000
     256         -0.226860        2.000000        0.00003496        0.00016679        0.00000039
     257         -0.226780        2.000000        0.00000000        0.00000002        0.00000000
     258         -0.226656        2.000000        0.00000001        0.00000005        0.00000000
     259         -0.226503        2.000000        0.00344451        0.01632966        0.00004212
     260         -0.226036        2.000000        0.00000000        0.00000002        0.00000000
     261         -0.225667        2.000000        0.00004456        0.00020474        0.00000049
     262         -0.225511        2.000000        0.00001149        0.00005535        0.00000017
     263         -0.224716        2.000000        0.00000000        0.00000001        0.00000000
     264         -0.224218        2.000000        0.00000000        0.00000001        0.00000000
     265         -0.223677        2.000000        0.00000107        0.00000467        0.00000002
     266         -0.223438        2.000000        0.00000004        0.00000010        0.00000000
     267         -0.223292        2.000000        0.00000185        0.00000524        0.00000019
     268         -0.223025        2.000000        0.00000000        0.00000000        0.00000000
     269         -0.222436        2.000000        0.00000000        0.00000001        0.00000000
     270         -0.222159        2.000000        0.00000108        0.00000514        0.00000001
     271         -0.221905        2.000000        0.00000000        0.00000000        0.00000000
     272         -0.221185        2.000000        0.00000051        0.00000305        0.00000005
     273         -0.220659        2.000000        0.00000000        0.00000000        0.00000000
     274         -0.219665        2.000000        0.00000002        0.00000003        0.00000000
     275         -0.219630        2.000000        0.00000087        0.00000164        0.00000007
     276         -0.218916        2.000000        0.00000002        0.00000008        0.00000000
     277         -0.218551        2.000000        0.00000513        0.00002232        0.00000007
     278         -0.218398        2.000000        0.00000311        0.00001363        0.00000004
     279         -0.218139        2.000000        0.00020036        0.00085890        0.00000342
     280         -0.217698        2.000000        0.00000015        0.00000058        0.00000000
     281         -0.217580        2.000000        0.00000465        0.00002399        0.00000013
     282         -0.217435        2.000000        0.00000054        0.00000254        0.00000001
     283         -0.216483        2.000000        0.00000174        0.00000739        0.00000004
     284         -0.216363        2.000000        0.00009877        0.00042841        0.00000220
     285         -0.216254        2.000000        0.00000056        0.00000237        0.00000002
     286         -0.215958        2.000000        0.00035348        0.00150452        0.00000668
     287         -0.215645        2.000000        0.00017380        0.00072790        0.00000354
     288         -0.215217        2.000000        0.00000059        0.00000211        0.00000004
     289         -0.214936        2.000000        0.00000000        0.00000001        0.00000000
     290         -0.214221        2.000000        0.00000003        0.00000021        0.00000000
     291         -0.213816        2.000000        0.00000007        0.00000019        0.00000000
     292         -0.213592        2.000000        0.00000203        0.00000770        0.00000015
     293         -0.213468        2.000000        0.00000044        0.00000157        0.00000002
     294         -0.213241        2.000000        0.00000024        0.00000055        0.00000002
     295         -0.213184        2.000000        0.00003006        0.00010586        0.00000160
     296         -0.212817        2.000000        0.00001184        0.00004324        0.00000204
     297         -0.212583        2.000000        0.00000018        0.00000055        0.00000001
     298         -0.212273        2.000000        0.00000047        0.00000269        0.00000000
     299         -0.211896        2.000000        0.00000030        0.00000094        0.00000002
     300         -0.211391        2.000000        0.00000194        0.00000870        0.00000008
     301         -0.211339        2.000000        0.00000159        0.00000486        0.00000011
     302         -0.211269        2.000000        0.00000019        0.00000047        0.00000003
     303         -0.211046        2.000000        0.00000026        0.00000084        0.00000002
     304         -0.210412        2.000000        0.00000102        0.00000111        0.00000005
     305         -0.210309        2.000000        0.00001304        0.00002181        0.00000127
     306         -0.210188        2.000000        0.00000396        0.00000767        0.00000024
     307         -0.210166        2.000000        0.00000591        0.00002982        0.00000028