# Projected DOS for list 167 of 3 atoms, at iteration step i = 0, E(Fermi) =     0.101540 a.u.
#     MO Eigenvalue [a.u.]      Occupation                 s                 p                 d
       1         -0.708367        2.000000        0.00000000        0.00000000        0.00000000
       2         -0.696979        2.000000        0.00002650        0.00003905        0.00000012
       3         -0.695301        2.000000        0.00000008        0.00000065        0.00000000
       4         -0.694902        2.000000        0.00000000        0.00000000        0.00000000
       5         -0.690081        2.000000        0.00000000        0.00000000        0.00000000
       6         -0.686805        2.000000        0.00019733        0.00016797        0.00000061
       7         -0.686571        2.000000        0.00001351        0.00001228        0.00000006
       8         -0.685003        2.000000        0.00000452        0.00000346        0.00000001
       9         -0.684036        2.000000        0.00029631        0.00020376        0.00000080
      10         -0.683920        2.000000        0.00000000        0.00000000        0.00000000
      11         -0.681735        2.000000        0.00073851        0.00047018        0.00000141
      12         -0.679408        2.000000        0.00000465        0.00000065        0.00000002
      13         -0.678932        2.000000        0.00000000        0.00000000        0.00000000
      14         -0.678381        2.000000        0.00006989        0.00010987        0.00000066
      15         -0.677963        2.000000        0.00001037        0.00003875        0.00000009
      16         -0.677540        2.000000        0.00004611        0.00027682        0.00000086
      17         -0.677381        2.000000        0.00000000        0.00000000        0.00000000
      18         -0.677246        2.000000        0.00004682        0.00022043        0.00000067
      19         -0.675827        2.000000        0.00000176        0.00001855        0.00000011
      20         -0.675724        2.000000        0.00000000        0.00000000        0.00000000
      21         -0.674932        2.000000        0.00000000        0.00000000        0.00000000
      22         -0.674380        2.000000        0.00001448        0.00016146        0.00000063
      23         -0.673393        2.000000        0.00012913        0.00004078        0.00000066
      24         -0.672924        2.000000        0.00000001        0.00000001        0.00000000
      25         -0.672289        2.000000        0.00001835        0.00000765        0.00000010
      26         -0.672227        2.000000        0.00000336        0.00001193        0.00000004
      27         -0.671275        2.000000        0.00000008        0.00000007        0.00000000
      28         -0.670770        2.000000        0.00003663        0.00015889        0.00000042
      29         -0.670400        2.000000        0.00011413        0.00011003        0.00000045
      30         -0.669922        2.000000        0.00032175        0.00043348        0.00000164
      31         -0.669606        2.000000        0.00000296        0.00000019        0.00000001
      32         -0.668947        2.000000        0.00054705        0.00011827        0.00000175
      33         -0.668931        2.000000        0.00028287        0.00006830        0.00000094
      34         -0.668431        2.000000        0.00142999        0.00017605        0.00000396
      35         -0.668008        2.000000        0.00005653        0.00025957        0.00000162
      36         -0.667083        2.000000        0.00050837        0.00024501        0.00000387
      37         -0.666996        2.000000        0.00000016        0.00000063        0.00000001
      38         -0.666939        2.000000        0.00000751        0.00002778        0.00000027
      39         -0.666646        2.000000        0.00043696        0.00047053        0.00000428
      40         -0.666363        2.000000        0.00025675        0.00058705        0.00000335
      41         -0.666281        2.000000        0.00000013        0.00000055        0.00000000
      42         -0.666129        2.000000        0.00002722        0.00013830        0.00000098
      43         -0.665867        2.000000        0.00010026        0.00035427        0.00000180
      44         -0.664404        2.000000        0.00000469        0.00000201        0.00000001
      45         -0.664061        2.000000        0.00033414        0.00015712        0.00000220
      46         -0.663948        2.000000        0.00000570        0.00000850        0.00000004
      47         -0.663550        2.000000        0.00001662        0.00029842        0.00000047
      48         -0.662943        2.000000        0.00000003        0.00000002        0.00000000
      49         -0.662627        2.000000        0.00000350        0.00000122        0.00000002
      50         -0.661965        2.000000        0.00004084        0.00020017        0.00000087
      51         -0.661528        2.000000        0.00000100        0.00000130        0.00000001
      52         -0.660900        2.000000        0.00003928        0.00002732        0.00000018
      53         -0.660166        2.000000        0.00009429        0.00002052        0.00000095
      54         -0.659683        2.000000        0.00000021        0.00000028        0.00000000
      55         -0.658835        2.000000        0.00105087        0.00008414        0.00000938
      56         -0.658814        2.000000        0.00000366        0.00000045        0.00000003
      57         -0.658691        2.000000        0.00000002        0.00000012        0.00000000
      58         -0.658084        2.000000        0.00172151        0.00037123        0.00001023
      59         -0.658073        2.000000        0.00036440        0.00008793        0.00000233
      60         -0.657975        2.000000        0.00033897        0.00017519        0.00000220
      61         -0.657678        2.000000        0.00871182        0.00239702        0.00005049
      62         -0.657592        2.000000        0.00398564        0.00091497        0.00002224
      63         -0.657226        2.000000        0.00000090        0.00000036        0.00000003
      64         -0.657087        2.000000        0.00215234        0.00078776        0.00001128
      65         -0.656742        2.000000        0.00006859        0.00007341        0.00000160
      66         -0.656449        2.000000        0.00024365        0.00029512        0.00000209
      67         -0.656215        2.000000        0.00199298        0.00062117        0.00000924
      68         -0.655700        2.000000        0.00023591        0.00020709        0.00000253
      69         -0.655174        2.000000        0.00000044        0.00000014        0.00000000
      70         -0.654827        2.000000        0.00120773        0.00017056        0.00000512
      71         -0.654660        2.000000        0.00000152        0.00000060        0.00000001
      72         -0.654406        2.000000        0.00070333        0.00011725        0.00000151
      73         -0.654250        2.000000        0.00364506        0.00082729        0.00001284
      74         -0.653619        2.000000        0.00005133        0.00002279        0.00000054
      75         -0.653105        2.000000        0.00399942        0.00148581        0.00003697
      76         -0.652904        2.000000        0.00218125        0.00083283        0.00002110
      77         -0.652612        2.000000        0.00044848        0.00003456        0.00000168
      78         -0.652411        2.000000        0.00075163        0.00018130        0.00000297
      79         -0.652213        2.000000        0.00178054        0.00057752        0.00001432
      80         -0.652083        2.000000        0.00939184        0.00286201        0.00007228
      81         -0.651807        2.000000        0.00874634        0.00241205        0.00005939
      82         -0.651706        2.000000        0.00061475        0.00015945        0.00000390
      83         -0.651237        2.000000        0.00660394        0.00204685        0.00004953
      84         -0.651053        2.000000        0.00220827        0.00074240        0.00001781
      85         -0.650411        2.000000        0.00379458        0.00085956        0.00002099
      86         -0.650326        2.000000        0.00154594        0.00027936        0.00000768
      87         -0.650219        2.000000        0.00009143        0.00013907        0.00000210
      88         -0.650130        2.000000        0.00109956        0.00039288        0.00000791
      89         -0.649849        2.000000        0.00768287        0.00143083        0.00003555
      90         -0.649510        2.000000        0.00007024        0.00019882        0.00000476
      91         -0.648737        2.000000        0.00306970        0.00098858        0.00002034
      92         -0.648608        2.000000        0.00040398        0.00014370        0.00000312
      93         -0.648509        2.000000        0.00066863        0.00008038        0.00000308
      94         -0.648091        2.000000        0.00026468        0.00004676        0.00000102
      95         -0.647956        2.000000        0.00000005        0.00000002        0.00000000
      96         -0.647875        2.000000        0.00000997        0.00002277        0.00000063
      97         -0.647628        2.000000        0.00019023        0.00010408        0.00000282
      98         -0.647248        2.000000        0.00006593        0.00002807        0.00000060
      99         -0.646997        2.000000        0.00002560        0.00000647        0.00000008
     100         -0.646893        2.000000        0.00004593        0.00001124        0.00000017
     101         -0.646794        2.000000        0.00161692        0.00029610        0.00000662
     102         -0.645843        2.000000        0.00008236        0.00013470        0.00000143
     103         -0.645519        2.000000        0.00039876        0.00013881        0.00000330
     104         -0.645232        2.000000        0.00072798        0.00013908        0.00000229
     105         -0.644964        2.000000        0.00614987        0.00071810        0.00002344
     106         -0.644451        2.000000        0.00003630        0.00014547        0.00000217
     107         -0.644170        2.000000        0.01440377        0.00239835        0.00006110
     108         -0.643891        2.000000        0.00108763        0.00023260        0.00000555
     109         -0.643862        2.000000        0.00504750        0.00105746        0.00002624
     110         -0.643478        2.000000        0.00094950        0.00014990        0.00000343
     111         -0.643325        2.000000        0.00006162        0.00001117        0.00000027
     112         -0.642934        2.000000        0.00008125        0.00004826        0.00000062
     113         -0.642899        2.000000        0.00013453        0.00007902        0.00000085
     114         -0.642460        2.000000        0.00064888        0.00009569        0.00000149
     115         -0.642175        2.000000        0.00001575        0.00002921        0.00000040
     116         -0.642120        2.000000        0.00026909        0.00014932        0.00000156
     117         -0.641851        2.000000        0.00143981        0.00018374        0.00000420
     118         -0.641683        2.000000        0.00003671        0.00001457        0.00000016
     119         -0.641305        2.000000        0.00391244        0.00087194        0.00001138
     120         -0.641072        2.000000        0.00139324        0.00017810        0.00000643
     121         -0.640960        2.000000        0.00087668        0.00009070        0.00000279
     122         -0.640793        2.000000        0.00001093        0.00008506        0.00000157
     123         -0.640578        2.000000        0.00173958        0.00020831        0.00000853
     124         -0.640464        2.000000        0.00065274        0.00010011        0.00000181
     125         -0.640169        2.000000        0.00016864        0.00003983        0.00000045
     126         -0.639736        2.000000        0.00000501        0.00002255        0.00000028
     127         -0.639499        2.000000        0.00036068        0.00014600        0.00000146
     128         -0.639154        2.000000        0.00002932        0.00007056        0.00000077
     129         -0.639060        2.000000        0.00001288        0.00001573        0.00000011
     130         -0.638976        2.000000        0.00002044        0.00004533        0.00000063
     131         -0.638593        2.000000        0.00062811        0.00009802        0.00000197
     132         -0.638261        2.000000        0.00065702        0.00011927        0.00000247
     133         -0.638059        2.000000        0.02673162        0.00528136        0.00008101
     134         -0.637912        2.000000        0.01085175        0.00264875        0.00004224
     135         -0.637762        2.000000        0.00085961        0.00015668        0.00000185
     136         -0.637584        2.000000        0.00007960        0.00006548        0.00000111
     137         -0.636804        2.000000        0.00010578        0.00002645        0.00000070
     138         -0.636640        2.000000        0.00009949        0.00017478        0.00000198
     139         -0.636429        2.000000        0.00011364        0.00025203        0.00000291
     140         -0.635515        2.000000        0.00007912        0.00004874        0.00000040
     141         -0.634989        2.000000        0.00001255        0.00007991        0.00000115
     142         -0.634462        2.000000        0.00018153        0.00004257        0.00000039
     143         -0.634132        2.000000        0.00162283        0.00028236        0.00000384
     144         -0.633763        2.000000        0.00004016        0.00001555        0.00000011
     145         -0.633531        2.000000        0.00023501        0.00003687        0.00000063
     146         -0.632585        2.000000        0.00015677        0.00002464        0.00000041
     147         -0.632333        2.000000        0.00002976        0.00002548        0.00000012
     148         -0.632031        2.000000        0.00002413        0.00000441        0.00000008
     149         -0.631841        2.000000        0.00010192        0.00001934        0.00000023
     150         -0.631318        2.000000        0.00397762        0.00074780        0.00000954
     151         -0.630640        2.000000        0.00082660        0.00016596        0.00000183
     152         -0.630519        2.000000        0.00100938        0.00021170        0.00000220
     153         -0.630490        2.000000        0.00039524        0.00007625        0.00000099
     154         -0.629959        2.000000        0.00006336        0.00001394        0.00000012
     155         -0.629452        2.000000        0.00054229        0.00011661        0.00000106
     156         -0.629210        2.000000        0.00001988        0.00000458        0.00000006
     157         -0.628856        2.000000        0.00001650        0.00000360        0.00000003
     158         -0.628516        2.000000        0.00040877        0.00008183        0.00000136
     159         -0.628511        2.000000        0.01106560        0.00236361        0.00002316
     160         -0.628382        2.000000        0.01679213        0.00351073        0.00003623
     161         -0.628242        2.000000        0.00001793        0.00002027        0.00000015
     162         -0.628026        2.000000        0.00612554        0.00143652        0.00001162
     163         -0.627712        2.000000        0.09008561        0.01949472        0.00018507
     164         -0.627438        2.000000        0.00586684        0.00135423        0.00001090
     165         -0.627281        2.000000        0.00306231        0.00060507        0.00000719
     166         -0.626983        2.000000        0.00847918        0.00190388        0.00001840
     167         -0.626804        2.000000        0.00022275        0.00006055        0.00000070
     168         -0.626588        2.000000        0.00214566        0.00081067        0.00000408
     169         -0.626019        2.000000        0.00002686        0.00000745        0.00000004
     170         -0.625843        2.000000        0.04410245        0.01143075        0.00008591
     171         -0.625019        2.000000        0.05729862        0.01513570        0.00009424
     172         -0.624831        2.000000        0.00306714        0.00075055        0.00000576
     173         -0.624166        2.000000        0.01017744        0.00260190        0.00001868
     174         -0.623906        2.000000        0.00050701        0.00013439        0.00000144
     175         -0.623799        2.000000        0.00000384        0.00000187        0.00000001
     176         -0.623716        2.000000        0.00125162        0.00027644        0.00000582
     177         -0.623382        2.000000        0.01948260        0.00511702        0.00003538
     178         -0.623067        2.000000        0.00001499        0.00000434        0.00000002
     179         -0.622801        2.000000        0.00010128        0.00002249        0.00000032
     180         -0.622617        2.000000        0.01815522        0.00495982        0.00003252
     181         -0.622499        2.000000        0.21001905        0.05698958        0.00038101
     182         -0.621672        2.000000        0.00090425        0.00026571        0.00000140
     183         -0.621151        2.000000        0.00106856        0.00032321        0.00000165
     184         -0.620781        2.000000        0.00286135        0.00083931        0.00000529
     185         -0.620579        2.000000        0.00123898        0.00039625        0.00000190
     186         -0.619930        2.000000        0.00470898        0.00149525        0.00000710
     187         -0.618694        2.000000        0.00046732        0.00017593        0.00000062
     188         -0.618461        2.000000        0.00046839        0.00013530        0.00000100
     189         -0.618211        2.000000        0.00006035        0.00002034        0.00000008
     190         -0.617957        2.000000        0.00012106        0.00003900        0.00000022
     191         -0.617770        2.000000        0.00041946        0.00011563        0.00000100
     192         -0.617636        2.000000        0.00023638        0.00008008        0.00000060
     193         -0.617200        2.000000        0.00000209        0.00000314        0.00000007
     194         -0.616810        2.000000        0.00004622        0.00002309        0.00000011
     195         -0.615618        2.000000        0.00016231        0.00006252        0.00000020
     196         -0.615377        2.000000        0.00003830        0.00002245        0.00000019
     197         -0.615228        2.000000        0.00012248        0.00005053        0.00000013
     198         -0.614941        2.000000        0.00019962        0.00008465        0.00000019
     199         -0.613862        2.000000        0.00000600        0.00000243        0.00000002
     200         -0.613167        2.000000        0.00000420        0.00001258        0.00000009
     201         -0.612937        2.000000        0.00001046        0.00000807        0.00000003
     202         -0.612465        2.000000        0.00003501        0.00004474        0.00000045
     203         -0.611371        2.000000        0.00002643        0.00001742        0.00000006
     204         -0.611273        2.000000        0.00003545        0.00001697        0.00000005
     205         -0.610903        2.000000        0.00145669        0.00077258        0.00000172
     206         -0.609912        2.000000        0.00014091        0.00011677        0.00000037
     207         -0.609442        2.000000        0.06223311        0.03729693        0.00007489
     208         -0.609149        2.000000        0.00827979        0.00439539        0.00000949
     209         -0.608882        2.000000        0.00029787        0.00015028        0.00000036
     210         -0.608562        2.000000        0.00000118        0.00000055        0.00000000
     211         -0.608012        2.000000        0.00043724        0.00020266        0.00000072
     212         -0.607014        2.000000        0.00326858        0.00124482        0.00000774
     213         -0.606300        2.000000        0.00004618        0.00002044        0.00000021
     214         -0.605948        2.000000        0.00006247        0.00003038        0.00000007
     215         -0.605403        2.000000        0.00002119        0.00001496        0.00000004
     216         -0.604664        2.000000        0.00040816        0.00027110        0.00000049
     217         -0.604080        2.000000        0.00073778        0.00028439        0.00000159
     218         -0.603538        2.000000        0.00117772        0.00053349        0.00000157
     219         -0.603145        2.000000        0.00103817        0.00035082        0.00000588
     220         -0.602213        2.000000        0.00018184        0.00009626        0.00000019
     221         -0.601871        2.000000        0.00016225        0.00005732        0.00000058
     222         -0.600521        2.000000        0.00006751        0.00004064        0.00000008
     223         -0.599848        2.000000        0.00000157        0.00000350        0.00000002
     224         -0.598111        2.000000        0.00005258        0.00001851        0.00000040
     225         -0.597286        2.000000        0.00025597        0.00009439        0.00000141
     226         -0.597121        2.000000        0.00007197        0.00002545        0.00000053
     227         -0.595585        2.000000        0.00000022        0.00000009        0.00000000
     228         -0.591103        2.000000        0.00002289        0.00000913        0.00000019
     229         -0.582585        2.000000        0.00000000        0.00000000        0.00000000
     230         -0.576283        2.000000        0.00000002        0.00000015        0.00000000
     231         -0.258156        2.000000        0.00000000        0.00000000        0.00000000
     232         -0.253473        2.000000        0.00000093        0.00000508        0.00000005
     233         -0.246233        2.000000        0.00000003        0.00000014        0.00000000
     234         -0.244651        2.000000        0.00000001        0.00000004        0.00000000
     235         -0.243092        2.000000        0.00000001        0.00000007        0.00000000
     236         -0.242544        2.000000        0.00000000        0.00000000        0.00000000
     237         -0.241048        2.000000        0.00000029        0.00000151        0.00000002
     238         -0.240546        2.000000        0.00010092        0.00040224        0.00000489
     239         -0.237982        2.000000        0.00005290        0.00019662        0.00000361
     240         -0.237798        2.000000        0.00000001        0.00000003        0.00000000
     241         -0.236566        2.000000        0.00000006        0.00000017        0.00000000
     242         -0.235920        2.000000        0.00000011        0.00000034        0.00000001
     243         -0.233145        2.000000        0.00000000        0.00000000        0.00000000
     244         -0.232785        2.000000        0.00000174        0.00001143        0.00000014
     245         -0.232224        2.000000        0.00000690        0.00001898        0.00000034
     246         -0.232174        2.000000        0.00000000        0.00000000        0.00000000
     247         -0.232015        2.000000        0.00000000        0.00000000        0.00000000
     248         -0.230744        2.000000        0.00000000        0.00000001        0.00000000
     249         -0.230697        2.000000        0.00000157        0.00000475        0.00000010
     250         -0.229959        2.000000        0.00000001        0.00000003        0.00000000
     251         -0.229741        2.000000        0.00005454        0.00016276        0.00000338
     252         -0.228898        2.000000        0.00002394        0.00006587        0.00000178
     253         -0.227939        2.000000        0.00008386        0.00061155        0.00000870
     254         -0.227542        2.000000        0.00000465        0.00001555        0.00000046
     255         -0.227010        2.000000        0.00038556        0.00103410        0.00002283
     256         -0.226860        2.000000        0.00000001        0.00000002        0.00000000
     257         -0.226780        2.000000        0.00008500        0.00029624        0.00000412
     258         -0.226656        2.000000        0.00012767        0.00150767        0.00001368
     259         -0.226503        2.000000        0.00000000        0.00000000        0.00000000
     260         -0.226036        2.000000        0.00002797        0.00018867        0.00000227
     261         -0.225667        2.000000        0.00000000        0.00000001        0.00000000
     262         -0.225511        2.000000        0.00000028        0.00000297        0.00000003
     263         -0.224716        2.000000        0.00009716        0.00035716        0.00000312
     264         -0.224218        2.000000        0.00007257        0.00060344        0.00000262
     265         -0.223677        2.000000        0.00000092        0.00000266        0.00000005
     266         -0.223438        2.000000        0.00033028        0.00098962        0.00001736
     267         -0.223292        2.000000        0.00000890        0.00002445        0.00000047
     268         -0.223025        2.000000        0.00001618        0.00004955        0.00000108
     269         -0.222436        2.000000        0.00000683        0.00001575        0.00000028
     270         -0.222159        2.000000        0.00000001        0.00000002        0.00000000
     271         -0.221905        2.000000        0.00014306        0.00056858        0.00000246
     272         -0.221185        2.000000        0.00000004        0.00000012        0.00000000
     273         -0.220659        2.000000        0.00034138        0.00086412        0.00002090
     274         -0.219665        2.000000        0.00090178        0.00238400        0.00005409
     275         -0.219630        2.000000        0.00003310        0.00008792        0.00000199
     276         -0.218916        2.000000        0.00054003        0.00153279        0.00003466
     277         -0.218551        2.000000        0.00018466        0.00054778        0.00001144
     278         -0.218398        2.000000        0.00007702        0.00025585        0.00000416
     279         -0.218139        2.000000        0.00000026        0.00000113        0.00000001
     280         -0.217698        2.000000        0.00158255        0.00403334        0.00009547
     281         -0.217580        2.000000        0.00002981        0.00007754        0.00000173
     282         -0.217435        2.000000        0.00001004        0.00004390        0.00000022
     283         -0.216483        2.000000        0.00002123        0.00013309        0.00000126
     284         -0.216363        2.000000        0.00000871        0.00002318        0.00000056
     285         -0.216254        2.000000        0.00063899        0.00191289        0.00004035
     286         -0.215958        2.000000        0.00000076        0.00000200        0.00000005
     287         -0.215645        2.000000        0.00000190        0.00000563        0.00000012
     288         -0.215217        2.000000        0.00003160        0.00010036        0.00000125
     289         -0.214936        2.000000        0.00018037        0.00054149        0.00000961
     290         -0.214221        2.000000        0.00003622        0.00027591        0.00000312
     291         -0.213816        2.000000        0.00000280        0.00002923        0.00000012
     292         -0.213592        2.000000        0.00000001        0.00000010        0.00000000
     293         -0.213468        2.000000        0.00000083        0.00000538        0.00000014
     294         -0.213241        2.000000        0.00001352        0.00003515        0.00000082
     295         -0.213184        2.000000        0.00000010        0.00000124        0.00000001
     296         -0.212817        2.000000        0.00000008        0.00000062        0.00000000
     297         -0.212583        2.000000        0.00006876        0.00018730        0.00000343
     298         -0.212273        2.000000        0.00000005        0.00000034        0.00000000
     299         -0.211896        2.000000        0.00000606        0.00004593        0.00000050
     300         -0.211391        2.000000        0.00002865        0.00011447        0.00000204
     301         -0.211339        2.000000        0.00008227        0.00054616        0.00000825
     302         -0.211269        2.000000        0.00013339        0.00093100        0.00001094
     303         -0.211046        2.000000        0.00014099        0.00038886        0.00000836
     304         -0.210412        2.000000        0.00019756        0.00082268        0.00001208
     305         -0.210309        2.000000        0.00000526        0.00004597        0.00000110
     306         -0.210188        2.000000        0.00007417        0.00038825        0.00000832
     307         -0.210166        2.000000        0.00007186        0.00042293        0.00001062