# Projected DOS for list 177 of 3 atoms, at iteration step i = 0, E(Fermi) =     0.101540 a.u.
#     MO Eigenvalue [a.u.]      Occupation                 s                 p                 d
       1         -0.708367        2.000000        0.00000000        0.00000000        0.00000000
       2         -0.696979        2.000000        0.00000000        0.00000000        0.00000000
       3         -0.695301        2.000000        0.00000000        0.00000000        0.00000000
       4         -0.694902        2.000000        0.00000000        0.00000000        0.00000000
       5         -0.690081        2.000000        0.00000008        0.00000013        0.00000000
       6         -0.686805        2.000000        0.00000001        0.00000002        0.00000000
       7         -0.686571        2.000000        0.00000000        0.00000000        0.00000000
       8         -0.685003        2.000000        0.00000000        0.00000000        0.00000000
       9         -0.684036        2.000000        0.00000002        0.00000002        0.00000000
      10         -0.683920        2.000000        0.00000017        0.00000029        0.00000000
      11         -0.681735        2.000000        0.00000001        0.00000002        0.00000000
      12         -0.679408        2.000000        0.00000000        0.00000000        0.00000000
      13         -0.678932        2.000000        0.00000040        0.00000015        0.00000000
      14         -0.678381        2.000000        0.00000025        0.00000024        0.00000000
      15         -0.677963        2.000000        0.00000000        0.00000000        0.00000000
      16         -0.677540        2.000000        0.00000018        0.00000016        0.00000000
      17         -0.677381        2.000000        0.00000002        0.00000004        0.00000000
      18         -0.677246        2.000000        0.00000030        0.00000027        0.00000000
      19         -0.675827        2.000000        0.00000000        0.00000000        0.00000000
      20         -0.675724        2.000000        0.00000010        0.00000011        0.00000000
      21         -0.674932        2.000000        0.00000010        0.00000011        0.00000000
      22         -0.674380        2.000000        0.00000029        0.00000019        0.00000000
      23         -0.673393        2.000000        0.00000017        0.00000011        0.00000000
      24         -0.672924        2.000000        0.00000964        0.00000440        0.00000002
      25         -0.672289        2.000000        0.00000000        0.00000000        0.00000000
      26         -0.672227        2.000000        0.00000194        0.00000030        0.00000000
      27         -0.671275        2.000000        0.00000615        0.00000636        0.00000000
      28         -0.670770        2.000000        0.00000007        0.00000003        0.00000000
      29         -0.670400        2.000000        0.00000068        0.00000033        0.00000000
      30         -0.669922        2.000000        0.00000210        0.00000086        0.00000000
      31         -0.669606        2.000000        0.00008347        0.00001001        0.00000016
      32         -0.668947        2.000000        0.00006113        0.00001687        0.00000012
      33         -0.668931        2.000000        0.00000276        0.00000574        0.00000001
      34         -0.668431        2.000000        0.00020202        0.00007974        0.00000047
      35         -0.668008        2.000000        0.00166714        0.00064153        0.00000379
      36         -0.667083        2.000000        0.00011954        0.00003942        0.00000024
      37         -0.666996        2.000000        0.00000789        0.00000355        0.00000005
      38         -0.666939        2.000000        0.00000231        0.00000056        0.00000000
      39         -0.666646        2.000000        0.00000177        0.00000622        0.00000001
      40         -0.666363        2.000000        0.00000225        0.00000086        0.00000001
      41         -0.666281        2.000000        0.00000162        0.00000010        0.00000000
      42         -0.666129        2.000000        0.00005084        0.00002093        0.00000013
      43         -0.665867        2.000000        0.00000395        0.00000124        0.00000002
      44         -0.664404        2.000000        0.00003546        0.00001912        0.00000002
      45         -0.664061        2.000000        0.00000357        0.00000124        0.00000001
      46         -0.663948        2.000000        0.00004910        0.00002038        0.00000008
      47         -0.663550        2.000000        0.00000020        0.00000060        0.00000001
      48         -0.662943        2.000000        0.00001719        0.00000727        0.00000001
      49         -0.662627        2.000000        0.00000191        0.00000091        0.00000001
      50         -0.661965        2.000000        0.00002548        0.00001406        0.00000025
      51         -0.661528        2.000000        0.00011549        0.00001908        0.00000010
      52         -0.660900        2.000000        0.00113015        0.00030886        0.00000181
      53         -0.660166        2.000000        0.00000008        0.00000020        0.00000000
      54         -0.659683        2.000000        0.00000660        0.00002200        0.00000003
      55         -0.658835        2.000000        0.00000327        0.00000059        0.00000001
      56         -0.658814        2.000000        0.00000808        0.00000215        0.00000000
      57         -0.658691        2.000000        0.00017522        0.00003878        0.00000017
      58         -0.658084        2.000000        0.00005198        0.00001290        0.00000006
      59         -0.658073        2.000000        0.00003909        0.00001332        0.00000006
      60         -0.657975        2.000000        0.00024062        0.00005396        0.00000012
      61         -0.657678        2.000000        0.00006260        0.00001356        0.00000011
      62         -0.657592        2.000000        0.00005668        0.00001232        0.00000003
      63         -0.657226        2.000000        0.00021737        0.00005157        0.00000015
      64         -0.657087        2.000000        0.00000899        0.00000306        0.00000007
      65         -0.656742        2.000000        0.00037115        0.00010565        0.00000035
      66         -0.656449        2.000000        0.00058339        0.00015740        0.00000032
      67         -0.656215        2.000000        0.00015642        0.00004512        0.00000017
      68         -0.655700        2.000000        0.00007626        0.00003979        0.00000005
      69         -0.655174        2.000000        0.00140372        0.00025888        0.00000092
      70         -0.654827        2.000000        0.00028490        0.00005929        0.00000021
      71         -0.654660        2.000000        0.00808331        0.00150619        0.00000607
      72         -0.654406        2.000000        0.00045882        0.00009934        0.00000039
      73         -0.654250        2.000000        0.00024814        0.00005057        0.00000026
      74         -0.653619        2.000000        0.00289555        0.00055371        0.00000267
      75         -0.653105        2.000000        0.04918389        0.01036604        0.00004204
      76         -0.652904        2.000000        0.03082968        0.00639503        0.00002690
      77         -0.652612        2.000000        0.00061654        0.00013688        0.00000072
      78         -0.652411        2.000000        0.00000007        0.00000034        0.00000001
      79         -0.652213        2.000000        0.01175443        0.00302069        0.00001141
      80         -0.652083        2.000000        0.11931718        0.02598972        0.00011942
      81         -0.651807        2.000000        0.09010460        0.02077318        0.00008589
      82         -0.651706        2.000000        0.01872051        0.00426253        0.00001897
      83         -0.651237        2.000000        0.00501085        0.00117344        0.00000431
      84         -0.651053        2.000000        0.04757208        0.01129445        0.00004529
      85         -0.650411        2.000000        0.00134245        0.00038177        0.00000076
      86         -0.650326        2.000000        0.00382440        0.00070338        0.00000486
      87         -0.650219        2.000000        0.00114954        0.00023923        0.00000132
      88         -0.650130        2.000000        0.01588686        0.00353653        0.00001552
      89         -0.649849        2.000000        0.01100191        0.00209903        0.00001364
      90         -0.649510        2.000000        0.00117082        0.00025432        0.00000142
      91         -0.648737        2.000000        0.00062307        0.00008857        0.00000551
      92         -0.648608        2.000000        0.00904571        0.00117639        0.00002368
      93         -0.648509        2.000000        0.00003018        0.00000675        0.00000019
      94         -0.648091        2.000000        0.01275438        0.00388091        0.00001021
      95         -0.647956        2.000000        0.00191748        0.00033591        0.00000343
      96         -0.647875        2.000000        0.00004454        0.00002134        0.00000004
      97         -0.647628        2.000000        0.00000960        0.00000707        0.00000001
      98         -0.647248        2.000000        0.00000735        0.00000185        0.00000010
      99         -0.646997        2.000000        0.00001922        0.00009693        0.00000025
     100         -0.646893        2.000000        0.00004494        0.00007037        0.00000019
     101         -0.646794        2.000000        0.00013557        0.00006027        0.00000012
     102         -0.645843        2.000000        0.00040882        0.00029973        0.00001367
     103         -0.645519        2.000000        0.00070180        0.00020146        0.00000529
     104         -0.645232        2.000000        0.01689978        0.00371488        0.00003101
     105         -0.644964        2.000000        0.00009136        0.00003701        0.00000065
     106         -0.644451        2.000000        0.00363255        0.00103902        0.00000884
     107         -0.644170        2.000000        0.00067127        0.00021304        0.00000148
     108         -0.643891        2.000000        0.00263762        0.00071807        0.00000600
     109         -0.643862        2.000000        0.00024514        0.00016865        0.00000030
     110         -0.643478        2.000000        0.00017308        0.00010819        0.00000065
     111         -0.643325        2.000000        0.00033082        0.00039857        0.00000176
     112         -0.642934        2.000000        0.01946949        0.00408829        0.00005812
     113         -0.642899        2.000000        0.00000190        0.00000046        0.00000002
     114         -0.642460        2.000000        0.00001512        0.00000460        0.00000007
     115         -0.642175        2.000000        0.00070267        0.00027334        0.00001184
     116         -0.642120        2.000000        0.00012922        0.00002815        0.00000034
     117         -0.641851        2.000000        0.00026778        0.00005627        0.00000233
     118         -0.641683        2.000000        0.00006289        0.00009086        0.00000453
     119         -0.641305        2.000000        0.00266963        0.00049669        0.00001615
     120         -0.641072        2.000000        0.00416725        0.00123090        0.00002931
     121         -0.640960        2.000000        0.00442727        0.00120962        0.00002827
     122         -0.640793        2.000000        0.00758415        0.00159116        0.00002382
     123         -0.640578        2.000000        0.00003219        0.00019693        0.00000973
     124         -0.640464        2.000000        0.02095808        0.00444861        0.00009535
     125         -0.640169        2.000000        0.00330257        0.00075628        0.00003005
     126         -0.639736        2.000000        0.00005443        0.00017449        0.00000618
     127         -0.639499        2.000000        0.02817294        0.00543951        0.00009950
     128         -0.639154        2.000000        0.02228329        0.00423328        0.00011673
     129         -0.639060        2.000000        0.00345321        0.00069480        0.00002622
     130         -0.638976        2.000000        0.00349845        0.00068034        0.00001540
     131         -0.638593        2.000000        0.00068683        0.00013004        0.00000316
     132         -0.638261        2.000000        0.00003381        0.00000722        0.00000017
     133         -0.638059        2.000000        0.00620021        0.00132657        0.00002601
     134         -0.637912        2.000000        0.01849416        0.00382490        0.00007277
     135         -0.637762        2.000000        0.00076653        0.00016422        0.00000299
     136         -0.637584        2.000000        0.00001464        0.00005144        0.00000143
     137         -0.636804        2.000000        0.00000595        0.00000763        0.00000003
     138         -0.636640        2.000000        0.00007011        0.00002910        0.00000061
     139         -0.636429        2.000000        0.00436002        0.00087149        0.00002929
     140         -0.635515        2.000000        0.00044817        0.00066137        0.00000333
     141         -0.634989        2.000000        0.00802903        0.00405097        0.00001241
     142         -0.634462        2.000000        0.02859850        0.00819780        0.00009852
     143         -0.634132        2.000000        0.00058335        0.00067766        0.00000248
     144         -0.633763        2.000000        0.00867366        0.00291605        0.00002250
     145         -0.633531        2.000000        0.00000045        0.00000077        0.00000001
     146         -0.632585        2.000000        0.00069815        0.00034949        0.00000143
     147         -0.632333        2.000000        0.00166527        0.00033434        0.00001595
     148         -0.632031        2.000000        0.00057940        0.00015596        0.00000351
     149         -0.631841        2.000000        0.00060724        0.00011248        0.00000360
     150         -0.631318        2.000000        0.00026117        0.00017129        0.00000857
     151         -0.630640        2.000000        0.00194228        0.00079477        0.00003931
     152         -0.630519        2.000000        0.00906886        0.00173750        0.00005788
     153         -0.630490        2.000000        0.00297131        0.00056636        0.00001858
     154         -0.629959        2.000000        0.00047303        0.00013068        0.00000785
     155         -0.629452        2.000000        0.00014668        0.00010834        0.00000272
     156         -0.629210        2.000000        0.00024928        0.00005105        0.00000175
     157         -0.628856        2.000000        0.00000141        0.00000271        0.00000016
     158         -0.628516        2.000000        0.00246785        0.00058650        0.00001265
     159         -0.628511        2.000000        0.00081315        0.00019792        0.00000363
     160         -0.628382        2.000000        0.00000067        0.00001925        0.00000109
     161         -0.628242        2.000000        0.00022637        0.00006221        0.00000104
     162         -0.628026        2.000000        0.00597664        0.00145384        0.00002996
     163         -0.627712        2.000000        0.00104746        0.00042401        0.00000513
     164         -0.627438        2.000000        0.00235598        0.00095034        0.00001217
     165         -0.627281        2.000000        0.00005214        0.00005250        0.00000015
     166         -0.626983        2.000000        0.00538075        0.00130284        0.00003280
     167         -0.626804        2.000000        0.00004725        0.00002556        0.00000073
     168         -0.626588        2.000000        0.00212354        0.00053803        0.00001072
     169         -0.626019        2.000000        0.00001463        0.00000390        0.00000011
     170         -0.625843        2.000000        0.00002319        0.00001144        0.00000012
     171         -0.625019        2.000000        0.00013833        0.00007472        0.00000115
     172         -0.624831        2.000000        0.00024006        0.00036884        0.00001822
     173         -0.624166        2.000000        0.00111871        0.00029522        0.00000641
     174         -0.623906        2.000000        0.00007205        0.00002017        0.00000040
     175         -0.623799        2.000000        0.00000928        0.00001469        0.00000061
     176         -0.623716        2.000000        0.00003612        0.00005244        0.00000029
     177         -0.623382        2.000000        0.00034223        0.00062856        0.00000281
     178         -0.623067        2.000000        0.00000680        0.00000214        0.00000005
     179         -0.622801        2.000000        0.00097564        0.00029938        0.00000997
     180         -0.622617        2.000000        0.00000715        0.00003557        0.00000172
     181         -0.622499        2.000000        0.00000049        0.00000458        0.00000001
     182         -0.621672        2.000000        0.00042466        0.00014494        0.00000424
     183         -0.621151        2.000000        0.00098877        0.00023210        0.00000751
     184         -0.620781        2.000000        0.00300368        0.00065383        0.00002269
     185         -0.620579        2.000000        0.00003268        0.00031002        0.00000720
     186         -0.619930        2.000000        0.00000936        0.00003393        0.00000147
     187         -0.618694        2.000000        0.00000117        0.00000026        0.00000002
     188         -0.618461        2.000000        0.00020103        0.00006505        0.00000374
     189         -0.618211        2.000000        0.00000487        0.00000376        0.00000005
     190         -0.617957        2.000000        0.00018063        0.00021598        0.00000570
     191         -0.617770        2.000000        0.00147087        0.00036251        0.00001917
     192         -0.617636        2.000000        0.00193888        0.00058540        0.00003142
     193         -0.617200        2.000000        0.00185216        0.00043413        0.00002241
     194         -0.616810        2.000000        0.00153335        0.00042487        0.00001588
     195         -0.615618        2.000000        0.00026207        0.00007018        0.00000342
     196         -0.615377        2.000000        0.00028956        0.00044828        0.00000235
     197         -0.615228        2.000000        0.00016064        0.00003786        0.00000186
     198         -0.614941        2.000000        0.00000443        0.00000825        0.00000005
     199         -0.613862        2.000000        0.00001640        0.00005911        0.00000190
     200         -0.613167        2.000000        0.00066921        0.00019291        0.00001437
     201         -0.612937        2.000000        0.00001663        0.00000480        0.00000019
     202         -0.612465        2.000000        0.00482130        0.00142564        0.00007402
     203         -0.611371        2.000000        0.00002550        0.00001654        0.00000093
     204         -0.611273        2.000000        0.00000402        0.00000562        0.00000008
     205         -0.610903        2.000000        0.00004940        0.00001315        0.00000050
     206         -0.609912        2.000000        0.00035130        0.00018955        0.00000524
     207         -0.609442        2.000000        0.00001708        0.00000630        0.00000037
     208         -0.609149        2.000000        0.00000650        0.00003970        0.00000067
     209         -0.608882        2.000000        0.00010743        0.00010275        0.00000041
     210         -0.608562        2.000000        0.00002099        0.00003502        0.00000016
     211         -0.608012        2.000000        0.00136943        0.00164723        0.00000679
     212         -0.607014        2.000000        0.00081938        0.00034698        0.00000563
     213         -0.606300        2.000000        0.00026318        0.00032147        0.00000140
     214         -0.605948        2.000000        0.00014515        0.00015825        0.00000071
     215         -0.605403        2.000000        0.00012554        0.00013980        0.00000062
     216         -0.604664        2.000000        0.00114343        0.00150240        0.00000684
     217         -0.604080        2.000000        0.00000934        0.00000603        0.00000016
     218         -0.603538        2.000000        0.00023348        0.00066412        0.00000549
     219         -0.603145        2.000000        0.00001082        0.00006176        0.00000220
     220         -0.602213        2.000000        0.00208046        0.00304213        0.00001456
     221         -0.601871        2.000000        0.00137487        0.00063655        0.00004797
     222         -0.600521        2.000000        0.00007902        0.00009314        0.00000051
     223         -0.599848        2.000000        0.00489042        0.00609761        0.00003080
     224         -0.598111        2.000000        0.00442481        0.00538687        0.00002745
     225         -0.597286        2.000000        0.01073515        0.01284111        0.00006715
     226         -0.597121        2.000000        0.00637085        0.00952934        0.00005079
     227         -0.595585        2.000000        0.00092271        0.00126363        0.00000682
     228         -0.591103        2.000000        0.00026142        0.00012401        0.00000727
     229         -0.582585        2.000000        0.00001296        0.00000684        0.00000043
     230         -0.576283        2.000000        0.00263226        0.00491200        0.00003917
     231         -0.258156        2.000000        0.00000000        0.00000000        0.00000000
     232         -0.253473        2.000000        0.00000000        0.00000000        0.00000000
     233         -0.246233        2.000000        0.00000000        0.00000000        0.00000000
     234         -0.244651        2.000000        0.00000000        0.00000000        0.00000000
     235         -0.243092        2.000000        0.00000000        0.00000000        0.00000000
     236         -0.242544        2.000000        0.00000000        0.00000000        0.00000000
     237         -0.241048        2.000000        0.00000000        0.00000000        0.00000000
     238         -0.240546        2.000000        0.00000000        0.00000000        0.00000000
     239         -0.237982        2.000000        0.00000000        0.00000000        0.00000000
     240         -0.237798        2.000000        0.00000000        0.00000001        0.00000000
     241         -0.236566        2.000000        0.00000000        0.00000000        0.00000000
     242         -0.235920        2.000000        0.00000000        0.00000000        0.00000000
     243         -0.233145        2.000000        0.00000001        0.00000007        0.00000000
     244         -0.232785        2.000000        0.00000000        0.00000000        0.00000000
     245         -0.232224        2.000000        0.00000000        0.00000000        0.00000000
     246         -0.232174        2.000000        0.00000000        0.00000002        0.00000000
     247         -0.232015        2.000000        0.00000000        0.00000001        0.00000000
     248         -0.230744        2.000000        0.00000022        0.00000058        0.00000001
     249         -0.230697        2.000000        0.00000000        0.00000000        0.00000000
     250         -0.229959        2.000000        0.00000001        0.00000004        0.00000000
     251         -0.229741        2.000000        0.00000002        0.00000006        0.00000000
     252         -0.228898        2.000000        0.00000001        0.00000002        0.00000000
     253         -0.227939        2.000000        0.00000000        0.00000002        0.00000000
     254         -0.227542        2.000000        0.00000001        0.00000002        0.00000000
     255         -0.227010        2.000000        0.00000012        0.00000037        0.00000001
     256         -0.226860        2.000000        0.00000147        0.00000876        0.00000010
     257         -0.226780        2.000000        0.00000000        0.00000000        0.00000000
     258         -0.226656        2.000000        0.00000003        0.00000009        0.00000000
     259         -0.226503        2.000000        0.00000325        0.00001362        0.00000022
     260         -0.226036        2.000000        0.00000001        0.00000004        0.00000000
     261         -0.225667        2.000000        0.00000001        0.00000007        0.00000000
     262         -0.225511        2.000000        0.00000060        0.00000174        0.00000004
     263         -0.224716        2.000000        0.00000026        0.00000082        0.00000001
     264         -0.224218        2.000000        0.00000049        0.00000149        0.00000003
     265         -0.223677        2.000000        0.00000009        0.00000070        0.00000001
     266         -0.223438        2.000000        0.00000033        0.00000132        0.00000003
     267         -0.223292        2.000000        0.00000534        0.00002085        0.00000041
     268         -0.223025        2.000000        0.00000000        0.00000001        0.00000000
     269         -0.222436        2.000000        0.00000009        0.00000027        0.00000001
     270         -0.222159        2.000000        0.00000008        0.00000024        0.00000001
     271         -0.221905        2.000000        0.00000025        0.00000076        0.00000001
     272         -0.221185        2.000000        0.00000673        0.00003809        0.00000044
     273         -0.220659        2.000000        0.00000001        0.00000003        0.00000000
     274         -0.219665        2.000000        0.00000110        0.00000334        0.00000007
     275         -0.219630        2.000000        0.00000022        0.00000500        0.00000004
     276         -0.218916        2.000000        0.00000246        0.00000746        0.00000014
     277         -0.218551        2.000000        0.00000017        0.00000102        0.00000003
     278         -0.218398        2.000000        0.00000037        0.00000144        0.00000003
     279         -0.218139        2.000000        0.00002387        0.00006753        0.00000146
     280         -0.217698        2.000000        0.00000004        0.00000024        0.00000000
     281         -0.217580        2.000000        0.00001421        0.00003734        0.00000093
     282         -0.217435        2.000000        0.00000067        0.00000175        0.00000004
     283         -0.216483        2.000000        0.00000135        0.00000420        0.00000009
     284         -0.216363        2.000000        0.00000126        0.00000490        0.00000011
     285         -0.216254        2.000000        0.00001176        0.00003478        0.00000065
     286         -0.215958        2.000000        0.00000025        0.00000190        0.00000004
     287         -0.215645        2.000000        0.00000040        0.00000246        0.00000002
     288         -0.215217        2.000000        0.00000057        0.00000231        0.00000004
     289         -0.214936        2.000000        0.00000094        0.00000270        0.00000005
     290         -0.214221        2.000000        0.00000631        0.00001819        0.00000035
     291         -0.213816        2.000000        0.00000409        0.00001159        0.00000023
     292         -0.213592        2.000000        0.00000046        0.00000463        0.00000011
     293         -0.213468        2.000000        0.00000078        0.00000271        0.00000005
     294         -0.213241        2.000000        0.00002989        0.00008427        0.00000171
     295         -0.213184        2.000000        0.00000008        0.00000100        0.00000003
     296         -0.212817        2.000000        0.00000267        0.00001155        0.00000031
     297         -0.212583        2.000000        0.00000213        0.00000689        0.00000012
     298         -0.212273        2.000000        0.00000037        0.00000189        0.00000005
     299         -0.211896        2.000000        0.00058793        0.00166274        0.00003314
     300         -0.211391        2.000000        0.00001729        0.00005861        0.00000115
     301         -0.211339        2.000000        0.00017478        0.00047332        0.00001013
     302         -0.211269        2.000000        0.00002968        0.00007949        0.00000197
     303         -0.211046        2.000000        0.00022798        0.00063091        0.00001298
     304         -0.210412        2.000000        0.00921939        0.02575031        0.00051970
     305         -0.210309        2.000000        0.00117837        0.00330357        0.00006676
     306         -0.210188        2.000000        0.00204709        0.00566006        0.00011534
     307         -0.210166        2.000000        0.00032220        0.00087906        0.00001819