# Projected DOS for list 59 of 3 atoms, at iteration step i = 0, E(Fermi) =     0.101540 a.u.
#     MO Eigenvalue [a.u.]      Occupation                 s                 p                 d
       1         -0.708367        2.000000        0.00114654        0.00171683        0.00000380
       2         -0.696979        2.000000        0.00000969        0.00000371        0.00000020
       3         -0.695301        2.000000        0.00001196        0.00000439        0.00000005
       4         -0.694902        2.000000        0.00000000        0.00000000        0.00000000
       5         -0.690081        2.000000        0.00000000        0.00000000        0.00000000
       6         -0.686805        2.000000        0.00007235        0.00002038        0.00000096
       7         -0.686571        2.000000        0.00000103        0.00001297        0.00000010
       8         -0.685003        2.000000        0.00002554        0.00002304        0.00000028
       9         -0.684036        2.000000        0.00002591        0.00000641        0.00000025
      10         -0.683920        2.000000        0.00000000        0.00000000        0.00000000
      11         -0.681735        2.000000        0.00007292        0.00002323        0.00000104
      12         -0.679408        2.000000        0.00458307        0.00041631        0.00001215
      13         -0.678932        2.000000        0.00000000        0.00000000        0.00000000
      14         -0.678381        2.000000        0.00049465        0.00004660        0.00000262
      15         -0.677963        2.000000        0.00016643        0.00002579        0.00000068
      16         -0.677540        2.000000        0.00021679        0.00002395        0.00000087
      17         -0.677381        2.000000        0.00000000        0.00000000        0.00000000
      18         -0.677246        2.000000        0.00007284        0.00009868        0.00000098
      19         -0.675827        2.000000        0.00171214        0.00043590        0.00000412
      20         -0.675724        2.000000        0.00000000        0.00000000        0.00000000
      21         -0.674932        2.000000        0.00000000        0.00000000        0.00000000
      22         -0.674380        2.000000        0.00095317        0.00015676        0.00000658
      23         -0.673393        2.000000        0.07023807        0.00902950        0.00025398
      24         -0.672924        2.000000        0.00000002        0.00000000        0.00000000
      25         -0.672289        2.000000        0.00190601        0.00331630        0.00002483
      26         -0.672227        2.000000        0.00000912        0.00001279        0.00000012
      27         -0.671275        2.000000        0.00000001        0.00000000        0.00000000
      28         -0.670770        2.000000        0.00002038        0.00023267        0.00000179
      29         -0.670400        2.000000        0.00000833        0.00010244        0.00000075
      30         -0.669922        2.000000        0.00053894        0.00108130        0.00001126
      31         -0.669606        2.000000        0.00000007        0.00000094        0.00000001
      32         -0.668947        2.000000        0.00048591        0.00088205        0.00000521
      33         -0.668931        2.000000        0.00030209        0.00050398        0.00000295
      34         -0.668431        2.000000        0.00126313        0.00039915        0.00000369
      35         -0.668008        2.000000        0.00010557        0.00007711        0.00000191
      36         -0.667083        2.000000        0.00252663        0.00108093        0.00002740
      37         -0.666996        2.000000        0.00000078        0.00000047        0.00000000
      38         -0.666939        2.000000        0.00430558        0.00191100        0.00000386
      39         -0.666646        2.000000        0.00037395        0.00040733        0.00000195
      40         -0.666363        2.000000        0.00010710        0.00002055        0.00000045
      41         -0.666281        2.000000        0.00000045        0.00000043        0.00000000
      42         -0.666129        2.000000        0.00011324        0.00060985        0.00000327
      43         -0.665867        2.000000        0.00159330        0.00040870        0.00001931
      44         -0.664404        2.000000        0.00000225        0.00000062        0.00000001
      45         -0.664061        2.000000        0.00038638        0.00007314        0.00000220
      46         -0.663948        2.000000        0.00003517        0.00001285        0.00000019
      47         -0.663550        2.000000        0.00289252        0.00148943        0.00001862
      48         -0.662943        2.000000        0.00000012        0.00000004        0.00000000
      49         -0.662627        2.000000        0.00004158        0.00010798        0.00000105
      50         -0.661965        2.000000        0.00080580        0.00022211        0.00000308
      51         -0.661528        2.000000        0.00000009        0.00000003        0.00000000
      52         -0.660900        2.000000        0.00000316        0.00000076        0.00000002
      53         -0.660166        2.000000        0.00652594        0.00181352        0.00001460
      54         -0.659683        2.000000        0.00000019        0.00000007        0.00000000
      55         -0.658835        2.000000        0.06696013        0.01823756        0.00020420
      56         -0.658814        2.000000        0.00024654        0.00006706        0.00000075
      57         -0.658691        2.000000        0.00004653        0.00001262        0.00000014
      58         -0.658084        2.000000        0.00403987        0.00087344        0.00000736
      59         -0.658073        2.000000        0.00072787        0.00014889        0.00000130
      60         -0.657975        2.000000        0.00115240        0.00042481        0.00000237
      61         -0.657678        2.000000        0.00788210        0.00338867        0.00001150
      62         -0.657592        2.000000        0.01302123        0.00335955        0.00003014
      63         -0.657226        2.000000        0.00000035        0.00000006        0.00000000
      64         -0.657087        2.000000        0.00414996        0.00109037        0.00001587
      65         -0.656742        2.000000        0.00397750        0.00096546        0.00000941
      66         -0.656449        2.000000        0.02097215        0.00523274        0.00003773
      67         -0.656215        2.000000        0.01225942        0.00295770        0.00001843
      68         -0.655700        2.000000        0.00004808        0.00002289        0.00000008
      69         -0.655174        2.000000        0.00000012        0.00000006        0.00000000
      70         -0.654827        2.000000        0.00001061        0.00008261        0.00000108
      71         -0.654660        2.000000        0.00002236        0.00000455        0.00000006
      72         -0.654406        2.000000        0.01493018        0.00368187        0.00004655
      73         -0.654250        2.000000        0.12823982        0.03005699        0.00031245
      74         -0.653619        2.000000        0.00000924        0.00000210        0.00000002
      75         -0.653105        2.000000        0.00116286        0.00026348        0.00000180
      76         -0.652904        2.000000        0.00079180        0.00018024        0.00000113
      77         -0.652612        2.000000        0.00020358        0.00029353        0.00000645
      78         -0.652411        2.000000        0.00937691        0.00324925        0.00002164
      79         -0.652213        2.000000        0.00045531        0.00012194        0.00000125
      80         -0.652083        2.000000        0.00242012        0.00062515        0.00000582
      81         -0.651807        2.000000        0.00391907        0.00098724        0.00000923
      82         -0.651706        2.000000        0.00034852        0.00008652        0.00000080
      83         -0.651237        2.000000        0.00194414        0.00045522        0.00000422
      84         -0.651053        2.000000        0.00273122        0.00059304        0.00000548
      85         -0.650411        2.000000        0.00363062        0.00073772        0.00000625
      86         -0.650326        2.000000        0.00584865        0.00118778        0.00001014
      87         -0.650219        2.000000        0.01257773        0.00414190        0.00002792
      88         -0.650130        2.000000        0.00208471        0.00040184        0.00000387
      89         -0.649849        2.000000        0.01551837        0.00379422        0.00002557
      90         -0.649510        2.000000        0.05268760        0.01232285        0.00008541
      91         -0.648737        2.000000        0.00372466        0.00083161        0.00000588
      92         -0.648608        2.000000        0.00097961        0.00021394        0.00000155
      93         -0.648509        2.000000        0.01995403        0.00440021        0.00003041
      94         -0.648091        2.000000        0.00006958        0.00001657        0.00000012
      95         -0.647956        2.000000        0.00000001        0.00000003        0.00000000
      96         -0.647875        2.000000        0.00168884        0.00052226        0.00000635
      97         -0.647628        2.000000        0.00064300        0.00040181        0.00000644
      98         -0.647248        2.000000        0.00111739        0.00041943        0.00000066
      99         -0.646997        2.000000        0.00000182        0.00000034        0.00000001
     100         -0.646893        2.000000        0.00000274        0.00000063        0.00000001
     101         -0.646794        2.000000        0.00000297        0.00002073        0.00000022
     102         -0.645843        2.000000        0.00000035        0.00000138        0.00000002
     103         -0.645519        2.000000        0.00034992        0.00016179        0.00000026
     104         -0.645232        2.000000        0.00033974        0.00010305        0.00000034
     105         -0.644964        2.000000        0.00249813        0.00095123        0.00000107
     106         -0.644451        2.000000        0.00000745        0.00000790        0.00000014
     107         -0.644170        2.000000        0.00148607        0.00060251        0.00000946
     108         -0.643891        2.000000        0.00002005        0.00005733        0.00000115
     109         -0.643862        2.000000        0.00010316        0.00027059        0.00000536
     110         -0.643478        2.000000        0.00019978        0.00004906        0.00000126
     111         -0.643325        2.000000        0.00015948        0.00006316        0.00000028
     112         -0.642934        2.000000        0.00004118        0.00003314        0.00000019
     113         -0.642899        2.000000        0.03641527        0.02247607        0.00010337
     114         -0.642460        2.000000        0.00536058        0.00159053        0.00002125
     115         -0.642175        2.000000        0.00004016        0.00003977        0.00000010
     116         -0.642120        2.000000        0.01292842        0.00909512        0.00002470
     117         -0.641851        2.000000        0.00088749        0.00055429        0.00000150
     118         -0.641683        2.000000        0.00786605        0.00387105        0.00001006
     119         -0.641305        2.000000        0.00095362        0.00041008        0.00000103
     120         -0.641072        2.000000        0.00007056        0.00002570        0.00000017
     121         -0.640960        2.000000        0.00010271        0.00003715        0.00000013
     122         -0.640793        2.000000        0.00011042        0.00004392        0.00000009
     123         -0.640578        2.000000        0.00137943        0.00052245        0.00000143
     124         -0.640464        2.000000        0.00020124        0.00007705        0.00000024
     125         -0.640169        2.000000        0.00002720        0.00001163        0.00000002
     126         -0.639736        2.000000        0.00000076        0.00000078        0.00000004
     127         -0.639499        2.000000        0.00000811        0.00000506        0.00000021
     128         -0.639154        2.000000        0.00117625        0.00045384        0.00000503
     129         -0.639060        2.000000        0.00090799        0.00032917        0.00000364
     130         -0.638976        2.000000        0.00252905        0.00089267        0.00000867
     131         -0.638593        2.000000        0.00005042        0.00002448        0.00000009
     132         -0.638261        2.000000        0.00106646        0.00063247        0.00000272
     133         -0.638059        2.000000        0.00002969        0.00013491        0.00000132
     134         -0.637912        2.000000        0.00011137        0.00007806        0.00000133
     135         -0.637762        2.000000        0.00037326        0.00015508        0.00000679
     136         -0.637584        2.000000        0.00000703        0.00000428        0.00000003
     137         -0.636804        2.000000        0.00045281        0.00051287        0.00000193
     138         -0.636640        2.000000        0.00000803        0.00000296        0.00000005
     139         -0.636429        2.000000        0.00001318        0.00000462        0.00000007
     140         -0.635515        2.000000        0.00000163        0.00000092        0.00000001
     141         -0.634989        2.000000        0.00000202        0.00000078        0.00000001
     142         -0.634462        2.000000        0.00000107        0.00000072        0.00000001
     143         -0.634132        2.000000        0.00001542        0.00000696        0.00000007
     144         -0.633763        2.000000        0.00000049        0.00000040        0.00000001
     145         -0.633531        2.000000        0.00085522        0.00075707        0.00008744
     146         -0.632585        2.000000        0.00003542        0.00002402        0.00000103
     147         -0.632333        2.000000        0.00000179        0.00000086        0.00000001
     148         -0.632031        2.000000        0.00000025        0.00000012        0.00000000
     149         -0.631841        2.000000        0.00000115        0.00000041        0.00000000
     150         -0.631318        2.000000        0.00002169        0.00001219        0.00000023
     151         -0.630640        2.000000        0.00000316        0.00000220        0.00000004
     152         -0.630519        2.000000        0.00000338        0.00000359        0.00000015
     153         -0.630490        2.000000        0.00015115        0.00007430        0.00000033
     154         -0.629959        2.000000        0.00000028        0.00000010        0.00000000
     155         -0.629452        2.000000        0.00005852        0.00001858        0.00000014
     156         -0.629210        2.000000        0.01569039        0.00481194        0.00003780
     157         -0.628856        2.000000        0.00000182        0.00000061        0.00000000
     158         -0.628516        2.000000        0.00482618        0.00134427        0.00001575
     159         -0.628511        2.000000        0.00767479        0.00221352        0.00002175
     160         -0.628382        2.000000        0.01402581        0.00413600        0.00003765
     161         -0.628242        2.000000        0.01041569        0.00305399        0.00002848
     162         -0.628026        2.000000        0.01000034        0.00294499        0.00002767
     163         -0.627712        2.000000        0.00526387        0.00168988        0.00001509
     164         -0.627438        2.000000        0.00034984        0.00010311        0.00000103
     165         -0.627281        2.000000        0.00053272        0.00015740        0.00000172
     166         -0.626983        2.000000        0.00817384        0.00256987        0.00002423
     167         -0.626804        2.000000        0.00165356        0.00051958        0.00000495
     168         -0.626588        2.000000        0.01663581        0.00524692        0.00005012
     169         -0.626019        2.000000        0.00000500        0.00000159        0.00000002
     170         -0.625843        2.000000        0.02920954        0.00947395        0.00009391
     171         -0.625019        2.000000        0.02672111        0.00875749        0.00009295
     172         -0.624831        2.000000        0.00153736        0.00050576        0.00000541
     173         -0.624166        2.000000        0.00042236        0.00014038        0.00000161
     174         -0.623906        2.000000        0.00002796        0.00000949        0.00000006
     175         -0.623799        2.000000        0.00001077        0.00000361        0.00000004
     176         -0.623716        2.000000        0.00020903        0.00006837        0.00000080
     177         -0.623382        2.000000        0.00058763        0.00019702        0.00000236
     178         -0.623067        2.000000        0.00001068        0.00000869        0.00000003
     179         -0.622801        2.000000        0.00003246        0.00001197        0.00000010
     180         -0.622617        2.000000        0.00019634        0.00006623        0.00000083
     181         -0.622499        2.000000        0.00193892        0.00065232        0.00000863
     182         -0.621672        2.000000        0.00006423        0.00002285        0.00000027
     183         -0.621151        2.000000        0.00013847        0.00005654        0.00000034
     184         -0.620781        2.000000        0.00014396        0.00005421        0.00000043
     185         -0.620579        2.000000        0.00000019        0.00000007        0.00000000
     186         -0.619930        2.000000        0.00000478        0.00000266        0.00000001
     187         -0.618694        2.000000        0.00011746        0.00004834        0.00000094
     188         -0.618461        2.000000        0.00000207        0.00000106        0.00000000
     189         -0.618211        2.000000        0.00026708        0.00012778        0.00000119
     190         -0.617957        2.000000        0.00006849        0.00003784        0.00000010
     191         -0.617770        2.000000        0.00000021        0.00000092        0.00000000
     192         -0.617636        2.000000        0.00000301        0.00000441        0.00000001
     193         -0.617200        2.000000        0.00000245        0.00000206        0.00000000
     194         -0.616810        2.000000        0.00000034        0.00000013        0.00000000
     195         -0.615618        2.000000        0.00000029        0.00000012        0.00000000
     196         -0.615377        2.000000        0.00000570        0.00000482        0.00000001
     197         -0.615228        2.000000        0.00000107        0.00000042        0.00000001
     198         -0.614941        2.000000        0.00000788        0.00000303        0.00000006
     199         -0.613862        2.000000        0.00000001        0.00000006        0.00000000
     200         -0.613167        2.000000        0.00000053        0.00000021        0.00000001
     201         -0.612937        2.000000        0.00000020        0.00000054        0.00000004
     202         -0.612465        2.000000        0.00000035        0.00000044        0.00000001
     203         -0.611371        2.000000        0.00002515        0.00001271        0.00000005
     204         -0.611273        2.000000        0.00000154        0.00000116        0.00000000
     205         -0.610903        2.000000        0.00000355        0.00000248        0.00000006
     206         -0.609912        2.000000        0.00000172        0.00000077        0.00000002
     207         -0.609442        2.000000        0.00023726        0.00012471        0.00000297
     208         -0.609149        2.000000        0.00004822        0.00001953        0.00000033
     209         -0.608882        2.000000        0.00000138        0.00000054        0.00000001
     210         -0.608562        2.000000        0.00000001        0.00000000        0.00000000
     211         -0.608012        2.000000        0.00000221        0.00000077        0.00000001
     212         -0.607014        2.000000        0.00000017        0.00000050        0.00000002
     213         -0.606300        2.000000        0.00000936        0.00000492        0.00000002
     214         -0.605948        2.000000        0.00000909        0.00006851        0.00000007
     215         -0.605403        2.000000        0.00043171        0.00024789        0.00000085
     216         -0.604664        2.000000        0.00000856        0.00000409        0.00000002
     217         -0.604080        2.000000        0.00000007        0.00000005        0.00000000
     218         -0.603538        2.000000        0.00000010        0.00000010        0.00000000
     219         -0.603145        2.000000        0.00000035        0.00000019        0.00000000
     220         -0.602213        2.000000        0.00000001        0.00000005        0.00000000
     221         -0.601871        2.000000        0.00000003        0.00000001        0.00000000
     222         -0.600521        2.000000        0.00000012        0.00000009        0.00000000
     223         -0.599848        2.000000        0.00000001        0.00000001        0.00000000
     224         -0.598111        2.000000        0.00000000        0.00000000        0.00000000
     225         -0.597286        2.000000        0.00000000        0.00000000        0.00000000
     226         -0.597121        2.000000        0.00000000        0.00000000        0.00000000
     227         -0.595585        2.000000        0.00000000        0.00000000        0.00000000
     228         -0.591103        2.000000        0.00000000        0.00000000        0.00000000
     229         -0.582585        2.000000        0.00000000        0.00000000        0.00000000
     230         -0.576283        2.000000        0.00000000        0.00000000        0.00000000
     231         -0.258156        2.000000        0.00026734        0.00094493        0.00001708
     232         -0.253473        2.000000        0.00000013        0.00000122        0.00000001
     233         -0.246233        2.000000        0.00008072        0.00056812        0.00000294
     234         -0.244651        2.000000        0.00004410        0.00016561        0.00000176
     235         -0.243092        2.000000        0.00000118        0.00000163        0.00000003
     236         -0.242544        2.000000        0.00000000        0.00000000        0.00000000
     237         -0.241048        2.000000        0.00001079        0.00003436        0.00000056
     238         -0.240546        2.000000        0.00002896        0.00016800        0.00000133
     239         -0.237982        2.000000        0.00000648        0.00003673        0.00000032
     240         -0.237798        2.000000        0.00000002        0.00000015        0.00000000
     241         -0.236566        2.000000        0.00000033        0.00001375        0.00000006
     242         -0.235920        2.000000        0.00000087        0.00001957        0.00000007
     243         -0.233145        2.000000        0.00000000        0.00000000        0.00000000
     244         -0.232785        2.000000        0.00000895        0.00002942        0.00000050
     245         -0.232224        2.000000        0.00000281        0.00000824        0.00000017
     246         -0.232174        2.000000        0.00000000        0.00000000        0.00000000
     247         -0.232015        2.000000        0.00000000        0.00000000        0.00000000
     248         -0.230744        2.000000        0.00000015        0.00000041        0.00000001
     249         -0.230697        2.000000        0.00005690        0.00015300        0.00000340
     250         -0.229959        2.000000        0.00000000        0.00000000        0.00000000
     251         -0.229741        2.000000        0.00001129        0.00005158        0.00000050
     252         -0.228898        2.000000        0.00006338        0.00016856        0.00000418
     253         -0.227939        2.000000        0.00009461        0.00051053        0.00000400
     254         -0.227542        2.000000        0.00149940        0.00410684        0.00009388
     255         -0.227010        2.000000        0.00017286        0.00068928        0.00000883
     256         -0.226860        2.000000        0.00000001        0.00000005        0.00000000
     257         -0.226780        2.000000        0.00018737        0.00065230        0.00001088
     258         -0.226656        2.000000        0.00024696        0.00120358        0.00001321
     259         -0.226503        2.000000        0.00000000        0.00000000        0.00000000
     260         -0.226036        2.000000        0.00041507        0.00121090        0.00002148
     261         -0.225667        2.000000        0.00000000        0.00000000        0.00000000
     262         -0.225511        2.000000        0.00000073        0.00000324        0.00000004
     263         -0.224716        2.000000        0.00036450        0.00183576        0.00001835
     264         -0.224218        2.000000        0.00103818        0.00406611        0.00005308
     265         -0.223677        2.000000        0.00000263        0.00001227        0.00000013
     266         -0.223438        2.000000        0.00052655        0.00266361        0.00002511
     267         -0.223292        2.000000        0.00000438        0.00002848        0.00000019
     268         -0.223025        2.000000        0.00052881        0.00163781        0.00003302
     269         -0.222436        2.000000        0.00010912        0.00058953        0.00000656
     270         -0.222159        2.000000        0.00000021        0.00000113        0.00000001
     271         -0.221905        2.000000        0.00477800        0.02114967        0.00026508
     272         -0.221185        2.000000        0.00000211        0.00000662        0.00000012
     273         -0.220659        2.000000        0.00377368        0.01199217        0.00022334
     274         -0.219665        2.000000        0.00163040        0.00954216        0.00007454
     275         -0.219630        2.000000        0.00005292        0.00031282        0.00000243
     276         -0.218916        2.000000        0.00050840        0.00286380        0.00002595
     277         -0.218551        2.000000        0.00008105        0.00050789        0.00001503
     278         -0.218398        2.000000        0.00015381        0.00080067        0.00002041
     279         -0.218139        2.000000        0.00000082        0.00000403        0.00000007
     280         -0.217698        2.000000        0.00016495        0.00110445        0.00000481
     281         -0.217580        2.000000        0.00000203        0.00002231        0.00000034
     282         -0.217435        2.000000        0.00011083        0.00088660        0.00000659
     283         -0.216483        2.000000        0.00002485        0.00011459        0.00000171
     284         -0.216363        2.000000        0.00000297        0.00001214        0.00000016
     285         -0.216254        2.000000        0.00036829        0.00130758        0.00002054
     286         -0.215958        2.000000        0.00000112        0.00000322        0.00000008
     287         -0.215645        2.000000        0.00001159        0.00003220        0.00000077
     288         -0.215217        2.000000        0.00007392        0.00021486        0.00000470
     289         -0.214936        2.000000        0.00442590        0.01288200        0.00028574
     290         -0.214221        2.000000        0.00005893        0.00016199        0.00000401
     291         -0.213816        2.000000        0.00014869        0.00070414        0.00000714
     292         -0.213592        2.000000        0.00000393        0.00001006        0.00000025
     293         -0.213468        2.000000        0.00016297        0.00045668        0.00001225
     294         -0.213241        2.000000        0.00006032        0.00020701        0.00000355
     295         -0.213184        2.000000        0.00002768        0.00006722        0.00000155
     296         -0.212817        2.000000        0.00001004        0.00002422        0.00000055
     297         -0.212583        2.000000        0.00082748        0.00236292        0.00005405
     298         -0.212273        2.000000        0.00006268        0.00015490        0.00000384
     299         -0.211896        2.000000        0.00009868        0.00026291        0.00000640
     300         -0.211391        2.000000        0.00070213        0.00221819        0.00003646
     301         -0.211339        2.000000        0.00027823        0.00082702        0.00001749
     302         -0.211269        2.000000        0.00003470        0.00020865        0.00000119
     303         -0.211046        2.000000        0.00736033        0.02092754        0.00042038
     304         -0.210412        2.000000        0.00058889        0.00352713        0.00002363
     305         -0.210309        2.000000        0.00079193        0.00195763        0.00004826
     306         -0.210188        2.000000        0.00065635        0.00182781        0.00003832
     307         -0.210166        2.000000        0.00023981        0.00078768        0.00001290