# Projected DOS for list 72 of 3 atoms, at iteration step i = 0, E(Fermi) =     0.101540 a.u.
#     MO Eigenvalue [a.u.]      Occupation                 s                 p                 d
       1         -0.708367        2.000000        0.00000000        0.00000000        0.00000000
       2         -0.696979        2.000000        0.00000000        0.00000000        0.00000000
       3         -0.695301        2.000000        0.00000000        0.00000000        0.00000000
       4         -0.694902        2.000000        0.00000000        0.00000000        0.00000000
       5         -0.690081        2.000000        0.00000007        0.00000007        0.00000000
       6         -0.686805        2.000000        0.00000000        0.00000000        0.00000000
       7         -0.686571        2.000000        0.00000000        0.00000000        0.00000000
       8         -0.685003        2.000000        0.00000000        0.00000000        0.00000000
       9         -0.684036        2.000000        0.00000001        0.00000001        0.00000000
      10         -0.683920        2.000000        0.00000005        0.00000001        0.00000000
      11         -0.681735        2.000000        0.00000002        0.00000001        0.00000000
      12         -0.679408        2.000000        0.00000000        0.00000000        0.00000000
      13         -0.678932        2.000000        0.00062342        0.00010581        0.00000070
      14         -0.678381        2.000000        0.00000003        0.00000001        0.00000000
      15         -0.677963        2.000000        0.00000001        0.00000001        0.00000000
      16         -0.677540        2.000000        0.00000000        0.00000001        0.00000000
      17         -0.677381        2.000000        0.00016976        0.00003150        0.00000026
      18         -0.677246        2.000000        0.00000000        0.00000001        0.00000000
      19         -0.675827        2.000000        0.00000001        0.00000000        0.00000000
      20         -0.675724        2.000000        0.00007152        0.00001195        0.00000007
      21         -0.674932        2.000000        0.00000023        0.00000065        0.00000000
      22         -0.674380        2.000000        0.00000081        0.00000020        0.00000000
      23         -0.673393        2.000000        0.00000001        0.00000000        0.00000000
      24         -0.672924        2.000000        0.00000389        0.00000162        0.00000000
      25         -0.672289        2.000000        0.00000365        0.00000081        0.00000000
      26         -0.672227        2.000000        0.00126309        0.00027942        0.00000169
      27         -0.671275        2.000000        0.00004905        0.00001692        0.00000003
      28         -0.670770        2.000000        0.00000202        0.00000063        0.00000001
      29         -0.670400        2.000000        0.00000493        0.00000104        0.00000001
      30         -0.669922        2.000000        0.00000090        0.00000041        0.00000001
      31         -0.669606        2.000000        0.10401753        0.02500667        0.00007917
      32         -0.668947        2.000000        0.00321611        0.00078270        0.00000254
      33         -0.668931        2.000000        0.00718497        0.00174662        0.00000587
      34         -0.668431        2.000000        0.00001809        0.00000523        0.00000005
      35         -0.668008        2.000000        0.00005420        0.00001279        0.00000007
      36         -0.667083        2.000000        0.00000053        0.00000022        0.00000001
      37         -0.666996        2.000000        0.00024094        0.00005382        0.00000026
      38         -0.666939        2.000000        0.00000014        0.00000004        0.00000000
      39         -0.666646        2.000000        0.00000377        0.00000091        0.00000002
      40         -0.666363        2.000000        0.00000922        0.00000171        0.00000002
      41         -0.666281        2.000000        0.00199748        0.00039733        0.00000271
      42         -0.666129        2.000000        0.00011787        0.00002775        0.00000033
      43         -0.665867        2.000000        0.00003487        0.00000767        0.00000008
      44         -0.664404        2.000000        0.00469474        0.00107064        0.00000678
      45         -0.664061        2.000000        0.00447070        0.00095918        0.00000756
      46         -0.663948        2.000000        0.38039220        0.08180475        0.00063436
      47         -0.663550        2.000000        0.00293197        0.00062861        0.00000482
      48         -0.662943        2.000000        0.00120586        0.00029003        0.00000202
      49         -0.662627        2.000000        0.00000028        0.00000006        0.00000000
      50         -0.661965        2.000000        0.00023622        0.00005260        0.00000041
      51         -0.661528        2.000000        0.00442926        0.00083829        0.00001203
      52         -0.660900        2.000000        0.00055441        0.00015471        0.00000088
      53         -0.660166        2.000000        0.00000512        0.00000114        0.00000001
      54         -0.659683        2.000000        0.00004000        0.00002179        0.00000014
      55         -0.658835        2.000000        0.00037620        0.00009449        0.00000073
      56         -0.658814        2.000000        0.00024719        0.00009181        0.00000031
      57         -0.658691        2.000000        0.00187236        0.00067261        0.00000222
      58         -0.658084        2.000000        0.00546406        0.00168948        0.00001072
      59         -0.658073        2.000000        0.01960337        0.00584624        0.00003660
      60         -0.657975        2.000000        0.00075143        0.00017498        0.00000192
      61         -0.657678        2.000000        0.00036257        0.00009186        0.00000090
      62         -0.657592        2.000000        0.00005634        0.00001502        0.00000019
      63         -0.657226        2.000000        0.00035758        0.00016800        0.00000023
      64         -0.657087        2.000000        0.00192653        0.00052012        0.00000453
      65         -0.656742        2.000000        0.02026414        0.00565096        0.00004342
      66         -0.656449        2.000000        0.00629760        0.00219999        0.00000981
      67         -0.656215        2.000000        0.01746818        0.00652060        0.00002962
      68         -0.655700        2.000000        0.00928624        0.00512512        0.00004444
      69         -0.655174        2.000000        0.00002201        0.00000849        0.00000017
      70         -0.654827        2.000000        0.00000321        0.00000714        0.00000037
      71         -0.654660        2.000000        0.00004699        0.00002843        0.00000017
      72         -0.654406        2.000000        0.00000564        0.00000287        0.00000012
      73         -0.654250        2.000000        0.00003949        0.00001304        0.00000008
      74         -0.653619        2.000000        0.00073569        0.00009301        0.00000512
      75         -0.653105        2.000000        0.01173695        0.00304228        0.00003460
      76         -0.652904        2.000000        0.00722168        0.00160760        0.00002403
      77         -0.652612        2.000000        0.00105159        0.00021989        0.00000419
      78         -0.652411        2.000000        0.00013383        0.00004088        0.00000067
      79         -0.652213        2.000000        0.00097062        0.00033682        0.00001586
      80         -0.652083        2.000000        0.00260664        0.00046800        0.00003641
      81         -0.651807        2.000000        0.00173180        0.00032812        0.00000763
      82         -0.651706        2.000000        0.00021012        0.00006762        0.00000294
      83         -0.651237        2.000000        0.00160541        0.00033538        0.00003064
      84         -0.651053        2.000000        0.00182421        0.00028620        0.00001683
      85         -0.650411        2.000000        0.00084109        0.00039673        0.00003775
      86         -0.650326        2.000000        0.00062718        0.00024648        0.00001047
      87         -0.650219        2.000000        0.00000592        0.00002049        0.00000219
      88         -0.650130        2.000000        0.00225141        0.00060818        0.00001627
      89         -0.649849        2.000000        0.00759520        0.00185957        0.00002863
      90         -0.649510        2.000000        0.00268523        0.00071369        0.00001378
      91         -0.648737        2.000000        0.00049034        0.00097827        0.00005894
      92         -0.648608        2.000000        0.01293381        0.00230665        0.00008336
      93         -0.648509        2.000000        0.00231157        0.00063534        0.00001866
      94         -0.648091        2.000000        0.02082089        0.00355816        0.00016245
      95         -0.647956        2.000000        0.00000307        0.00002093        0.00000047
      96         -0.647875        2.000000        0.00056932        0.00010435        0.00000377
      97         -0.647628        2.000000        0.00082834        0.00017242        0.00000560
      98         -0.647248        2.000000        0.00024813        0.00004504        0.00000179
      99         -0.646997        2.000000        0.00020728        0.00086332        0.00001670
     100         -0.646893        2.000000        0.00118149        0.00026113        0.00001889
     101         -0.646794        2.000000        0.00076746        0.00013908        0.00000517
     102         -0.645843        2.000000        0.01114635        0.00423105        0.00004425
     103         -0.645519        2.000000        0.00152156        0.00084922        0.00000485
     104         -0.645232        2.000000        0.00242356        0.00112357        0.00000638
     105         -0.644964        2.000000        0.00010997        0.00003292        0.00000091
     106         -0.644451        2.000000        0.00172513        0.00049791        0.00000899
     107         -0.644170        2.000000        0.00087068        0.00071654        0.00000853
     108         -0.643891        2.000000        0.00112750        0.00038528        0.00000503
     109         -0.643862        2.000000        0.01108698        0.00508428        0.00004487
     110         -0.643478        2.000000        0.00405921        0.00212059        0.00001488
     111         -0.643325        2.000000        0.02243080        0.01062607        0.00007368
     112         -0.642934        2.000000        0.00292596        0.00173178        0.00001277
     113         -0.642899        2.000000        0.00000001        0.00000008        0.00000000
     114         -0.642460        2.000000        0.00000145        0.00000063        0.00000003
     115         -0.642175        2.000000        0.00114960        0.00153004        0.00000222
     116         -0.642120        2.000000        0.00010287        0.00004048        0.00000033
     117         -0.641851        2.000000        0.00003345        0.00025575        0.00000225
     118         -0.641683        2.000000        0.00123173        0.00064455        0.00000279
     119         -0.641305        2.000000        0.00308392        0.00177875        0.00001184
     120         -0.641072        2.000000        0.00041975        0.00033032        0.00000068
     121         -0.640960        2.000000        0.00021867        0.00055257        0.00000206
     122         -0.640793        2.000000        0.00079902        0.00020423        0.00000441
     123         -0.640578        2.000000        0.00009997        0.00013072        0.00000084
     124         -0.640464        2.000000        0.00179772        0.00048352        0.00001069
     125         -0.640169        2.000000        0.00011223        0.00006560        0.00000087
     126         -0.639736        2.000000        0.00004058        0.00007184        0.00000044
     127         -0.639499        2.000000        0.00016821        0.00077237        0.00000372
     128         -0.639154        2.000000        0.00058914        0.00018140        0.00000660
     129         -0.639060        2.000000        0.00079252        0.00058677        0.00000143
     130         -0.638976        2.000000        0.00002932        0.00005377        0.00000261
     131         -0.638593        2.000000        0.00005667        0.00003034        0.00000075
     132         -0.638261        2.000000        0.00000285        0.00000538        0.00000012
     133         -0.638059        2.000000        0.00144297        0.00056838        0.00000658
     134         -0.637912        2.000000        0.00217222        0.00094631        0.00000747
     135         -0.637762        2.000000        0.00013335        0.00006050        0.00000049
     136         -0.637584        2.000000        0.00013896        0.00024568        0.00000206
     137         -0.636804        2.000000        0.00000098        0.00000568        0.00000044
     138         -0.636640        2.000000        0.00039243        0.00018417        0.00000660
     139         -0.636429        2.000000        0.00000467        0.00014573        0.00001053
     140         -0.635515        2.000000        0.00121338        0.00054368        0.00000944
     141         -0.634989        2.000000        0.00595648        0.00160235        0.00004899
     142         -0.634462        2.000000        0.00026989        0.00010240        0.00000596
     143         -0.634132        2.000000        0.00087545        0.00023628        0.00000834
     144         -0.633763        2.000000        0.00054660        0.00018215        0.00000389
     145         -0.633531        2.000000        0.00000045        0.00000011        0.00000001
     146         -0.632585        2.000000        0.00001141        0.00000664        0.00000043
     147         -0.632333        2.000000        0.00002240        0.00001477        0.00000039
     148         -0.632031        2.000000        0.00000020        0.00000109        0.00000004
     149         -0.631841        2.000000        0.00003126        0.00001623        0.00000017
     150         -0.631318        2.000000        0.00000433        0.00001079        0.00000036
     151         -0.630640        2.000000        0.00030468        0.00010453        0.00000292
     152         -0.630519        2.000000        0.00029394        0.00011577        0.00000311
     153         -0.630490        2.000000        0.00005244        0.00002219        0.00000061
     154         -0.629959        2.000000        0.00005416        0.00006624        0.00000024
     155         -0.629452        2.000000        0.00000841        0.00007373        0.00000212
     156         -0.629210        2.000000        0.00000751        0.00000606        0.00000001
     157         -0.628856        2.000000        0.00000152        0.00000343        0.00000001
     158         -0.628516        2.000000        0.00025008        0.00008721        0.00000231
     159         -0.628511        2.000000        0.00009818        0.00003136        0.00000076
     160         -0.628382        2.000000        0.00003771        0.00001486        0.00000029
     161         -0.628242        2.000000        0.00021038        0.00010725        0.00000112
     162         -0.628026        2.000000        0.00012574        0.00003255        0.00000210
     163         -0.627712        2.000000        0.00002934        0.00003228        0.00000067
     164         -0.627438        2.000000        0.00067719        0.00020690        0.00001188
     165         -0.627281        2.000000        0.00001549        0.00000615        0.00000043
     166         -0.626983        2.000000        0.00001485        0.00004766        0.00000033
     167         -0.626804        2.000000        0.00004169        0.00001978        0.00000060
     168         -0.626588        2.000000        0.00002312        0.00001337        0.00000033
     169         -0.626019        2.000000        0.00000156        0.00000084        0.00000001
     170         -0.625843        2.000000        0.00002434        0.00000830        0.00000021
     171         -0.625019        2.000000        0.00001378        0.00000601        0.00000022
     172         -0.624831        2.000000        0.00087748        0.00024276        0.00001625
     173         -0.624166        2.000000        0.00007733        0.00007401        0.00000030
     174         -0.623906        2.000000        0.00000041        0.00000214        0.00000014
     175         -0.623799        2.000000        0.00000230        0.00000320        0.00000001
     176         -0.623716        2.000000        0.00000045        0.00000101        0.00000004
     177         -0.623382        2.000000        0.00005706        0.00005819        0.00000272
     178         -0.623067        2.000000        0.00000071        0.00000028        0.00000002
     179         -0.622801        2.000000        0.00011512        0.00004541        0.00000422
     180         -0.622617        2.000000        0.00002374        0.00002228        0.00000121
     181         -0.622499        2.000000        0.00004977        0.00001400        0.00000062
     182         -0.621672        2.000000        0.00000832        0.00000349        0.00000017
     183         -0.621151        2.000000        0.00003459        0.00001060        0.00000074
     184         -0.620781        2.000000        0.00019080        0.00005311        0.00000282
     185         -0.620579        2.000000        0.00017616        0.00006770        0.00000215
     186         -0.619930        2.000000        0.00014945        0.00011807        0.00000431
     187         -0.618694        2.000000        0.00000004        0.00000007        0.00000000
     188         -0.618461        2.000000        0.00006296        0.00002130        0.00000069
     189         -0.618211        2.000000        0.00000047        0.00000046        0.00000001
     190         -0.617957        2.000000        0.00000268        0.00001600        0.00000066
     191         -0.617770        2.000000        0.00009943        0.00003887        0.00000122
     192         -0.617636        2.000000        0.00008530        0.00006864        0.00000108
     193         -0.617200        2.000000        0.00000571        0.00002182        0.00000038
     194         -0.616810        2.000000        0.00002967        0.00001067        0.00000042
     195         -0.615618        2.000000        0.00001631        0.00003652        0.00000036
     196         -0.615377        2.000000        0.00000196        0.00000621        0.00000020
     197         -0.615228        2.000000        0.00013359        0.00007211        0.00000069
     198         -0.614941        2.000000        0.00000003        0.00000013        0.00000000
     199         -0.613862        2.000000        0.00080153        0.00033251        0.00001268
     200         -0.613167        2.000000        0.00013175        0.00007890        0.00000076
     201         -0.612937        2.000000        0.00000010        0.00000006        0.00000000
     202         -0.612465        2.000000        0.00000385        0.00002016        0.00000131
     203         -0.611371        2.000000        0.00000743        0.00000839        0.00000029
     204         -0.611273        2.000000        0.00004537        0.00003086        0.00000026
     205         -0.610903        2.000000        0.00000151        0.00000259        0.00000003
     206         -0.609912        2.000000        0.00000159        0.00000196        0.00000007
     207         -0.609442        2.000000        0.00000006        0.00000019        0.00000001
     208         -0.609149        2.000000        0.00000565        0.00000689        0.00000023
     209         -0.608882        2.000000        0.00001167        0.00000954        0.00000052
     210         -0.608562        2.000000        0.00000033        0.00000065        0.00000000
     211         -0.608012        2.000000        0.00007134        0.00005166        0.00000379
     212         -0.607014        2.000000        0.00005921        0.00005854        0.00000027
     213         -0.606300        2.000000        0.00001924        0.00003411        0.00000012
     214         -0.605948        2.000000        0.00000523        0.00000347        0.00000003
     215         -0.605403        2.000000        0.00000281        0.00000169        0.00000003
     216         -0.604664        2.000000        0.00010124        0.00004678        0.00000214
     217         -0.604080        2.000000        0.00010070        0.00005269        0.00000457
     218         -0.603538        2.000000        0.00043418        0.00018181        0.00001120
     219         -0.603145        2.000000        0.00001449        0.00002522        0.00000026
     220         -0.602213        2.000000        0.00009301        0.00005186        0.00000408
     221         -0.601871        2.000000        0.00002944        0.00001541        0.00000058
     222         -0.600521        2.000000        0.00000019        0.00000009        0.00000000
     223         -0.599848        2.000000        0.00003798        0.00003823        0.00000249
     224         -0.598111        2.000000        0.00004166        0.00013976        0.00000050
     225         -0.597286        2.000000        0.00003819        0.00002329        0.00000161
     226         -0.597121        2.000000        0.00019253        0.00013627        0.00000372
     227         -0.595585        2.000000        0.00000841        0.00000512        0.00000032
     228         -0.591103        2.000000        0.00000020        0.00000046        0.00000001
     229         -0.582585        2.000000        0.00000007        0.00000012        0.00000000
     230         -0.576283        2.000000        0.00000047        0.00000045        0.00000003
     231         -0.258156        2.000000        0.00000000        0.00000000        0.00000000
     232         -0.253473        2.000000        0.00000000        0.00000000        0.00000000
     233         -0.246233        2.000000        0.00000000        0.00000000        0.00000000
     234         -0.244651        2.000000        0.00000000        0.00000000        0.00000000
     235         -0.243092        2.000000        0.00000000        0.00000002        0.00000000
     236         -0.242544        2.000000        0.00000000        0.00000000        0.00000000
     237         -0.241048        2.000000        0.00000001        0.00000002        0.00000000
     238         -0.240546        2.000000        0.00000077        0.00000257        0.00000003
     239         -0.237982        2.000000        0.00000510        0.00001644        0.00000021
     240         -0.237798        2.000000        0.00000001        0.00000003        0.00000000
     241         -0.236566        2.000000        0.00000000        0.00000001        0.00000000
     242         -0.235920        2.000000        0.00000000        0.00000000        0.00000000
     243         -0.233145        2.000000        0.00000618        0.00001551        0.00000032
     244         -0.232785        2.000000        0.00000052        0.00000157        0.00000002
     245         -0.232224        2.000000        0.00000019        0.00000054        0.00000001
     246         -0.232174        2.000000        0.00002762        0.00006922        0.00000143
     247         -0.232015        2.000000        0.00001986        0.00005051        0.00000104
     248         -0.230744        2.000000        0.00000450        0.00001121        0.00000023
     249         -0.230697        2.000000        0.00000000        0.00000001        0.00000000
     250         -0.229959        2.000000        0.00021390        0.00054454        0.00001125
     251         -0.229741        2.000000        0.00000032        0.00000086        0.00000002
     252         -0.228898        2.000000        0.00000421        0.00001209        0.00000021
     253         -0.227939        2.000000        0.00017086        0.00048196        0.00000855
     254         -0.227542        2.000000        0.00001834        0.00005148        0.00000093
     255         -0.227010        2.000000        0.00000179        0.00000498        0.00000009
     256         -0.226860        2.000000        0.00003793        0.00010433        0.00000201
     257         -0.226780        2.000000        0.00000554        0.00001541        0.00000028
     258         -0.226656        2.000000        0.00000722        0.00002000        0.00000038
     259         -0.226503        2.000000        0.00051512        0.00141673        0.00002785
     260         -0.226036        2.000000        0.00001645        0.00004538        0.00000087
     261         -0.225667        2.000000        0.00074270        0.00203576        0.00003984
     262         -0.225511        2.000000        0.20582963        0.56470618        0.01104040
     263         -0.224716        2.000000        0.00004263        0.00011603        0.00000235
     264         -0.224218        2.000000        0.00002791        0.00007563        0.00000154
     265         -0.223677        2.000000        0.00000426        0.00001138        0.00000023
     266         -0.223438        2.000000        0.00000855        0.00002293        0.00000047
     267         -0.223292        2.000000        0.00065753        0.00176347        0.00003676
     268         -0.223025        2.000000        0.00000001        0.00000004        0.00000000
     269         -0.222436        2.000000        0.00000003        0.00000007        0.00000000
     270         -0.222159        2.000000        0.00000018        0.00000065        0.00000001
     271         -0.221905        2.000000        0.00000375        0.00000998        0.00000023
     272         -0.221185        2.000000        0.00000017        0.00000136        0.00000003
     273         -0.220659        2.000000        0.00000150        0.00000398        0.00000010
     274         -0.219665        2.000000        0.00000042        0.00000111        0.00000003
     275         -0.219630        2.000000        0.00000013        0.00000097        0.00000002
     276         -0.218916        2.000000        0.00000228        0.00000595        0.00000014
     277         -0.218551        2.000000        0.00006812        0.00020983        0.00000444
     278         -0.218398        2.000000        0.00003203        0.00011843        0.00000236
     279         -0.218139        2.000000        0.00234878        0.00778513        0.00016641
     280         -0.217698        2.000000        0.00006983        0.00021570        0.00000486
     281         -0.217580        2.000000        0.00128217        0.00470870        0.00010342
     282         -0.217435        2.000000        0.00003267        0.00011804        0.00000270
     283         -0.216483        2.000000        0.00000041        0.00000246        0.00000004
     284         -0.216363        2.000000        0.00001281        0.00016006        0.00000287
     285         -0.216254        2.000000        0.00001733        0.00005295        0.00000135
     286         -0.215958        2.000000        0.00002559        0.00016722        0.00000483
     287         -0.215645        2.000000        0.00000928        0.00005881        0.00000174
     288         -0.215217        2.000000        0.00000886        0.00007656        0.00000117
     289         -0.214936        2.000000        0.00000051        0.00000204        0.00000006
     290         -0.214221        2.000000        0.00002565        0.00006726        0.00000108
     291         -0.213816        2.000000        0.00000220        0.00001622        0.00000031
     292         -0.213592        2.000000        0.00000116        0.00000438        0.00000007
     293         -0.213468        2.000000        0.00000052        0.00000704        0.00000013
     294         -0.213241        2.000000        0.00001958        0.00011418        0.00000224
     295         -0.213184        2.000000        0.00000083        0.00000338        0.00000005
     296         -0.212817        2.000000        0.00000014        0.00000086        0.00000003
     297         -0.212583        2.000000        0.00002127        0.00007293        0.00000212
     298         -0.212273        2.000000        0.00001254        0.00004015        0.00000074
     299         -0.211896        2.000000        0.00004836        0.00014156        0.00000431
     300         -0.211391        2.000000        0.00003261        0.00011457        0.00000305
     301         -0.211339        2.000000        0.00094931        0.00312679        0.00008915
     302         -0.211269        2.000000        0.00357470        0.01081224        0.00030443
     303         -0.211046        2.000000        0.00000306        0.00000972        0.00000032
     304         -0.210412        2.000000        0.00000410        0.00001919        0.00000022
     305         -0.210309        2.000000        0.00004075        0.00014904        0.00000533
     306         -0.210188        2.000000        0.00053291        0.00166138        0.00005516
     307         -0.210166        2.000000        0.00075338        0.00232083        0.00006257