# Projected DOS for atomic kind Pt at iteration step i = 0, E(Fermi) =     0.101540 a.u.
#     MO Eigenvalue [a.u.]      Occupation                 s                 p                 d
       1         -0.708367        2.000000        0.01016717        0.00808814        0.05727922
       2         -0.696979        2.000000        0.00040751        0.00020956        0.00283922
       3         -0.695301        2.000000        0.00681012        0.00479237        0.03466275
       4         -0.694902        2.000000        0.00819114        0.00648672        0.04813597
       5         -0.690081        2.000000        0.00410844        0.00200060        0.02618953
       6         -0.686805        2.000000        0.00077853        0.00042757        0.00597091
       7         -0.686571        2.000000        0.00411216        0.00234063        0.03073640
       8         -0.685003        2.000000        0.00031140        0.00019399        0.00281667
       9         -0.684036        2.000000        0.00003135        0.00001791        0.00032545
      10         -0.683920        2.000000        0.00263837        0.00128904        0.01860477
      11         -0.681735        2.000000        0.00004930        0.00002952        0.00043942
      12         -0.679408        2.000000        0.00174404        0.00091566        0.01482294
      13         -0.678932        2.000000        0.00102190        0.00046850        0.00512797
      14         -0.678381        2.000000        0.00153919        0.00093092        0.01116773
      15         -0.677963        2.000000        0.00024241        0.00018398        0.00292376
      16         -0.677540        2.000000        0.00050838        0.00036248        0.00778714
      17         -0.677381        2.000000        0.00109085        0.00048090        0.00723453
      18         -0.677246        2.000000        0.00073173        0.00049287        0.00948409
      19         -0.675827        2.000000        0.00245282        0.00203911        0.01818878
      20         -0.675724        2.000000        0.00549891        0.00394105        0.03166383
      21         -0.674932        2.000000        0.00204141        0.00105738        0.02129612
      22         -0.674380        2.000000        0.00250397        0.00137720        0.01420858
      23         -0.673393        2.000000        0.00024046        0.00012958        0.00221331
      24         -0.672924        2.000000        0.00039862        0.00028303        0.00698990
      25         -0.672289        2.000000        0.00147129        0.00082993        0.01303540
      26         -0.672227        2.000000        0.00000602        0.00000349        0.00005356
      27         -0.671275        2.000000        0.00113813        0.00098362        0.00987157
      28         -0.670770        2.000000        0.00060010        0.00034122        0.00593118
      29         -0.670400        2.000000        0.00141178        0.00080065        0.01349700
      30         -0.669922        2.000000        0.00139378        0.00079034        0.00927802
      31         -0.669606        2.000000        0.00043541        0.00022701        0.00288983
      32         -0.668947        2.000000        0.00216642        0.00120079        0.01515568
      33         -0.668931        2.000000        0.00285803        0.00152163        0.01964704
      34         -0.668431        2.000000        0.00211236        0.00145409        0.01699719
      35         -0.668008        2.000000        0.00018961        0.00013953        0.00172039
      36         -0.667083        2.000000        0.00039542        0.00027076        0.00454799
      37         -0.666996        2.000000        0.00065847        0.00045156        0.00690562
      38         -0.666939        2.000000        0.00123364        0.00081980        0.01117632
      39         -0.666646        2.000000        0.00030573        0.00020225        0.00372911
      40         -0.666363        2.000000        0.00052808        0.00031804        0.00715733
      41         -0.666281        2.000000        0.00297113        0.00188982        0.03179141
      42         -0.666129        2.000000        0.00042313        0.00028750        0.00501984
      43         -0.665867        2.000000        0.00070264        0.00042595        0.00732882
      44         -0.664404        2.000000        0.00192749        0.00150046        0.01732718
      45         -0.664061        2.000000        0.00019329        0.00012132        0.00220021
      46         -0.663948        2.000000        0.00006965        0.00004592        0.00062498
      47         -0.663550        2.000000        0.00002759        0.00001731        0.00032627
      48         -0.662943        2.000000        0.00087082        0.00049128        0.00609440
      49         -0.662627        2.000000        0.00110747        0.00088976        0.01673226
      50         -0.661965        2.000000        0.00004563        0.00003631        0.00073224
      51         -0.661528        2.000000        0.00047488        0.00029940        0.00447075
      52         -0.660900        2.000000        0.00008824        0.00006307        0.00090236
      53         -0.660166        2.000000        0.00110996        0.00072943        0.01263702
      54         -0.659683        2.000000        0.00052105        0.00033929        0.00464974
      55         -0.658835        2.000000        0.00036568        0.00026902        0.00409611
      56         -0.658814        2.000000        0.00161414        0.00098728        0.01310759
      57         -0.658691        2.000000        0.00125388        0.00075896        0.00953497
      58         -0.658084        2.000000        0.00027477        0.00016543        0.00276239
      59         -0.658073        2.000000        0.00044145        0.00026664        0.00350182
      60         -0.657975        2.000000        0.00003165        0.00002781        0.00036165
      61         -0.657678        2.000000        0.00034524        0.00028144        0.00436729
      62         -0.657592        2.000000        0.00035723        0.00022730        0.00362400
      63         -0.657226        2.000000        0.00069741        0.00036841        0.00637826
      64         -0.657087        2.000000        0.00097776        0.00077410        0.01211851
      65         -0.656742        2.000000        0.00015416        0.00010938        0.00185425
      66         -0.656449        2.000000        0.00025483        0.00017649        0.00255275
      67         -0.656215        2.000000        0.00030963        0.00021087        0.00301885
      68         -0.655700        2.000000        0.00008274        0.00005474        0.00074092
      69         -0.655174        2.000000        0.00113269        0.00069828        0.01496467
      70         -0.654827        2.000000        0.00086895        0.00056720        0.01014702
      71         -0.654660        2.000000        0.00123252        0.00072597        0.00967374
      72         -0.654406        2.000000        0.00029400        0.00021809        0.00426425
      73         -0.654250        2.000000        0.00031364        0.00020363        0.00412916
      74         -0.653619        2.000000        0.00174614        0.00133497        0.01670400
      75         -0.653105        2.000000        0.00030892        0.00020118        0.00272217
      76         -0.652904        2.000000        0.00057470        0.00036440        0.00485560
      77         -0.652612        2.000000        0.00048643        0.00038780        0.00730914
      78         -0.652411        2.000000        0.00080092        0.00056616        0.01002564
      79         -0.652213        2.000000        0.00046633        0.00035363        0.00433239
      80         -0.652083        2.000000        0.00022892        0.00017938        0.00223883
      81         -0.651807        2.000000        0.00016387        0.00014783        0.00216948
      82         -0.651706        2.000000        0.00082839        0.00074648        0.01106271
      83         -0.651237        2.000000        0.00010782        0.00008254        0.00120520
      84         -0.651053        2.000000        0.00009280        0.00006969        0.00104714
      85         -0.650411        2.000000        0.00093734        0.00065823        0.01011726
      86         -0.650326        2.000000        0.00073370        0.00052457        0.00810779
      87         -0.650219        2.000000        0.00023820        0.00020374        0.00303151
      88         -0.650130        2.000000        0.00010148        0.00007266        0.00136755
      89         -0.649849        2.000000        0.00013260        0.00010138        0.00176126
      90         -0.649510        2.000000        0.00011323        0.00010365        0.00142340
      91         -0.648737        2.000000        0.00003607        0.00002684        0.00041943
      92         -0.648608        2.000000        0.00025377        0.00017446        0.00306814
      93         -0.648509        2.000000        0.00005577        0.00004753        0.00084399
      94         -0.648091        2.000000        0.00025382        0.00019690        0.00405045
      95         -0.647956        2.000000        0.00110874        0.00088592        0.01437406
      96         -0.647875        2.000000        0.00008315        0.00005475        0.00218195
      97         -0.647628        2.000000        0.00049412        0.00043499        0.00767565
      98         -0.647248        2.000000        0.00018943        0.00009636        0.00439182
      99         -0.646997        2.000000        0.00005434        0.00003500        0.00075177
     100         -0.646893        2.000000        0.00008307        0.00004490        0.00103098
     101         -0.646794        2.000000        0.00001602        0.00000857        0.00029670
     102         -0.645843        2.000000        0.00002852        0.00002026        0.00030046
     103         -0.645519        2.000000        0.00016112        0.00012499        0.00257101
     104         -0.645232        2.000000        0.00003386        0.00002617        0.00054546
     105         -0.644964        2.000000        0.00025019        0.00019733        0.00455433
     106         -0.644451        2.000000        0.00006071        0.00004245        0.00068397
     107         -0.644170        2.000000        0.00006187        0.00004923        0.00136269
     108         -0.643891        2.000000        0.00068513        0.00052827        0.00934252
     109         -0.643862        2.000000        0.00022179        0.00017326        0.00306636
     110         -0.643478        2.000000        0.00021861        0.00017140        0.00382254
     111         -0.643325        2.000000        0.00004418        0.00003540        0.00076361
     112         -0.642934        2.000000        0.00045957        0.00031914        0.00548864
     113         -0.642899        2.000000        0.00054476        0.00049228        0.00903286
     114         -0.642460        2.000000        0.00029382        0.00012103        0.00627404
     115         -0.642175        2.000000        0.00024390        0.00018020        0.00375615
     116         -0.642120        2.000000        0.00039798        0.00031098        0.00631514
     117         -0.641851        2.000000        0.00008953        0.00006638        0.00118870
     118         -0.641683        2.000000        0.00012044        0.00009442        0.00186155
     119         -0.641305        2.000000        0.00005640        0.00004122        0.00075993
     120         -0.641072        2.000000        0.00010206        0.00006574        0.00094807
     121         -0.640960        2.000000        0.00067431        0.00050074        0.00960691
     122         -0.640793        2.000000        0.00064928        0.00047330        0.00794061
     123         -0.640578        2.000000        0.00014392        0.00011732        0.00254569
     124         -0.640464        2.000000        0.00018076        0.00016939        0.00434208
     125         -0.640169        2.000000        0.00041543        0.00030272        0.00516879
     126         -0.639736        2.000000        0.00038105        0.00030399        0.00511043
     127         -0.639499        2.000000        0.00014626        0.00011344        0.00191633
     128         -0.639154        2.000000        0.00019556        0.00021544        0.00306159
     129         -0.639060        2.000000        0.00049634        0.00040399        0.00668056
     130         -0.638976        2.000000        0.00037233        0.00039924        0.00601122
     131         -0.638593        2.000000        0.00006285        0.00005099        0.00088042
     132         -0.638261        2.000000        0.00016408        0.00012555        0.00225222
     133         -0.638059        2.000000        0.00001833        0.00001247        0.00028819
     134         -0.637912        2.000000        0.00002993        0.00002232        0.00039297
     135         -0.637762        2.000000        0.00022666        0.00015568        0.00453772
     136         -0.637584        2.000000        0.00045109        0.00029974        0.00511284
     137         -0.636804        2.000000        0.00122865        0.00091403        0.01179886
     138         -0.636640        2.000000        0.00008708        0.00007531        0.00160488
     139         -0.636429        2.000000        0.00013000        0.00010135        0.00185482
     140         -0.635515        2.000000        0.00009754        0.00006736        0.00101209
     141         -0.634989        2.000000        0.00001844        0.00001249        0.00020034
     142         -0.634462        2.000000        0.00000746        0.00000532        0.00007601
     143         -0.634132        2.000000        0.00000383        0.00000295        0.00004364
     144         -0.633763        2.000000        0.00005600        0.00004096        0.00067664
     145         -0.633531        2.000000        0.00045411        0.00032402        0.00457524
     146         -0.632585        2.000000        0.00003170        0.00002291        0.00030880
     147         -0.632333        2.000000        0.00001120        0.00000816        0.00015864
     148         -0.632031        2.000000        0.00015792        0.00015294        0.00246884
     149         -0.631841        2.000000        0.00005941        0.00004114        0.00096583
     150         -0.631318        2.000000        0.00001038        0.00000781        0.00012583
     151         -0.630640        2.000000        0.00005467        0.00003801        0.00053285
     152         -0.630519        2.000000        0.00017891        0.00012252        0.00214037
     153         -0.630490        2.000000        0.00061339        0.00041972        0.00736705
     154         -0.629959        2.000000        0.00006431        0.00004794        0.00051513
     155         -0.629452        2.000000        0.00003355        0.00002440        0.00036484
     156         -0.629210        2.000000        0.00022430        0.00015742        0.00259786
     157         -0.628856        2.000000        0.00362397        0.00349910        0.02615632
     158         -0.628516        2.000000        0.00015067        0.00011711        0.00165414
     159         -0.628511        2.000000        0.00027656        0.00024500        0.00344357
     160         -0.628382        2.000000        0.00028203        0.00025487        0.00342434
     161         -0.628242        2.000000        0.00061897        0.00036591        0.00473808
     162         -0.628026        2.000000        0.00034601        0.00023233        0.00288449
     163         -0.627712        2.000000        0.00006006        0.00004693        0.00059351
     164         -0.627438        2.000000        0.00002786        0.00001679        0.00021374
     165         -0.627281        2.000000        0.00001497        0.00001187        0.00014493
     166         -0.626983        2.000000        0.00001851        0.00001671        0.00018841
     167         -0.626804        2.000000        0.00004454        0.00003110        0.00045427
     168         -0.626588        2.000000        0.00000433        0.00000309        0.00005538
     169         -0.626019        2.000000        0.00046912        0.00042104        0.00586889
     170         -0.625843        2.000000        0.00000470        0.00000320        0.00006658
     171         -0.625019        2.000000        0.00000384        0.00000271        0.00005838
     172         -0.624831        2.000000        0.00006150        0.00004276        0.00054868
     173         -0.624166        2.000000        0.00039829        0.00028712        0.00381365
     174         -0.623906        2.000000        0.00000648        0.00000468        0.00006242
     175         -0.623799        2.000000        0.00004223        0.00003057        0.00041806
     176         -0.623716        2.000000        0.00000557        0.00000377        0.00004999
     177         -0.623382        2.000000        0.00009011        0.00006129        0.00079049
     178         -0.623067        2.000000        0.00080950        0.00064654        0.00906603
     179         -0.622801        2.000000        0.00003252        0.00002031        0.00027358
     180         -0.622617        2.000000        0.00020648        0.00012474        0.00163418
     181         -0.622499        2.000000        0.00002174        0.00001308        0.00017380
     182         -0.621672        2.000000        0.00000151        0.00000112        0.00001701
     183         -0.621151        2.000000        0.00000352        0.00000249        0.00004106
     184         -0.620781        2.000000        0.00000385        0.00000291        0.00004178
     185         -0.620579        2.000000        0.00000407        0.00000282        0.00004076
     186         -0.619930        2.000000        0.00000085        0.00000059        0.00000820
     187         -0.618694        2.000000        0.00000559        0.00000381        0.00008154
     188         -0.618461        2.000000        0.00001061        0.00000779        0.00011281
     189         -0.618211        2.000000        0.00012288        0.00008383        0.00253336
     190         -0.617957        2.000000        0.00001504        0.00001041        0.00015876
     191         -0.617770        2.000000        0.00000322        0.00000230        0.00003199
     192         -0.617636        2.000000        0.00001668        0.00001196        0.00014225
     193         -0.617200        2.000000        0.00000067        0.00000049        0.00001115
     194         -0.616810        2.000000        0.00002764        0.00001993        0.00023639
     195         -0.615618        2.000000        0.00051866        0.00037222        0.00407315
     196         -0.615377        2.000000        0.00000770        0.00000540        0.00006463
     197         -0.615228        2.000000        0.00049398        0.00035485        0.00385670
     198         -0.614941        2.000000        0.00002251        0.00001360        0.00037095
     199         -0.613862        2.000000        0.00000391        0.00000259        0.00003851
     200         -0.613167        2.000000        0.00000145        0.00000088        0.00002312
     201         -0.612937        2.000000        0.00015610        0.00008745        0.00165715
     202         -0.612465        2.000000        0.00000062        0.00000034        0.00000728
     203         -0.611371        2.000000        0.00005537        0.00004048        0.00043192
     204         -0.611273        2.000000        0.00057043        0.00041919        0.00443531
     205         -0.610903        2.000000        0.00002100        0.00001552        0.00016524
     206         -0.609912        2.000000        0.00000015        0.00000011        0.00000123
     207         -0.609442        2.000000        0.00000007        0.00000004        0.00000083
     208         -0.609149        2.000000        0.00000045        0.00000033        0.00000527
     209         -0.608882        2.000000        0.00000460        0.00000328        0.00012072
     210         -0.608562        2.000000        0.00004904        0.00003709        0.00039978
     211         -0.608012        2.000000        0.00000029        0.00000022        0.00000548
     212         -0.607014        2.000000        0.00000012        0.00000009        0.00000116
     213         -0.606300        2.000000        0.00000003        0.00000002        0.00000042
     214         -0.605948        2.000000        0.00000182        0.00000119        0.00002689
     215         -0.605403        2.000000        0.00000369        0.00000238        0.00005410
     216         -0.604664        2.000000        0.00000006        0.00000004        0.00000076
     217         -0.604080        2.000000        0.00000016        0.00000008        0.00000177
     218         -0.603538        2.000000        0.00000024        0.00000013        0.00000275
     219         -0.603145        2.000000        0.00000002        0.00000001        0.00000019
     220         -0.602213        2.000000        0.00000067        0.00000030        0.00000593
     221         -0.601871        2.000000        0.00000010        0.00000004        0.00000080
     222         -0.600521        2.000000        0.00000030        0.00000016        0.00000368
     223         -0.599848        2.000000        0.00000151        0.00000063        0.00001108
     224         -0.598111        2.000000        0.00000002        0.00000001        0.00000024
     225         -0.597286        2.000000        0.00000002        0.00000001        0.00000020
     226         -0.597121        2.000000        0.00000008        0.00000004        0.00000070
     227         -0.595585        2.000000        0.00000010        0.00000006        0.00000181
     228         -0.591103        2.000000        0.00000000        0.00000000        0.00000000
     229         -0.582585        2.000000        0.00000000        0.00000000        0.00000000
     230         -0.576283        2.000000        0.00000000        0.00000000        0.00000000
     231         -0.258156        2.000000        0.00362710        0.00297210        0.02856104
     232         -0.253473        2.000000        0.00005183        0.00002378        0.00028840
     233         -0.246233        2.000000        0.00266543        0.00087977        0.00841331
     234         -0.244651        2.000000        0.00255252        0.00166295        0.01703180
     235         -0.243092        2.000000        0.00010712        0.00004955        0.00056437
     236         -0.242544        2.000000        0.00270172        0.00207497        0.02277891
     237         -0.241048        2.000000        0.00343381        0.00185665        0.01840560
     238         -0.240546        2.000000        0.00004340        0.00001446        0.00014061
     239         -0.237982        2.000000        0.00011081        0.00000485        0.00006035
     240         -0.237798        2.000000        0.04766018        0.00171604        0.01485928
     241         -0.236566        2.000000        0.58550417        0.01080262        0.01023629
     242         -0.235920        2.000000        0.34190269        0.00895029        0.01255501
     243         -0.233145        2.000000        0.00387549        0.00126708        0.00878244
     244         -0.232785        2.000000        0.00164497        0.00058443        0.00741116
     245         -0.232224        2.000000        0.00053727        0.00025886        0.00371569
     246         -0.232174        2.000000        0.00156674        0.00068944        0.00686244
     247         -0.232015        2.000000        0.00200803        0.00068251        0.00671843
     248         -0.230744        2.000000        0.00209049        0.00102232        0.01153777
     249         -0.230697        2.000000        0.00105788        0.00059511        0.00723142
     250         -0.229959        2.000000        0.00131451        0.00018564        0.00112797
     251         -0.229741        2.000000        0.00081279        0.00032967        0.00375886
     252         -0.228898        2.000000        0.00181064        0.00079431        0.00997357
     253         -0.227939        2.000000        0.00027955        0.00011584        0.00122300
     254         -0.227542        2.000000        0.00206202        0.00109202        0.01200696
     255         -0.227010        2.000000        0.00020584        0.00010997        0.00133830
     256         -0.226860        2.000000        0.00026754        0.00012294        0.00129394
     257         -0.226780        2.000000        0.00053368        0.00021376        0.00259877
     258         -0.226656        2.000000        0.00018257        0.00007443        0.00075587
     259         -0.226503        2.000000        0.00006421        0.00002026        0.00019619
     260         -0.226036        2.000000        0.00249411        0.00107441        0.00964703
     261         -0.225667        2.000000        0.00288099        0.00121392        0.01482932
     262         -0.225511        2.000000        0.00001263        0.00000573        0.00006952
     263         -0.224716        2.000000        0.00263123        0.00064213        0.00491557
     264         -0.224218        2.000000        0.00030736        0.00012533        0.00129177
     265         -0.223677        2.000000        0.00400843        0.00100611        0.01177375
     266         -0.223438        2.000000        0.00239327        0.00049585        0.00315260
     267         -0.223292        2.000000        0.00006094        0.00001018        0.00005866
     268         -0.223025        2.000000        0.00365065        0.00083130        0.00568033
     269         -0.222436        2.000000        0.00630978        0.00119266        0.00769614
     270         -0.222159        2.000000        0.00304283        0.00171489        0.01843935
     271         -0.221905        2.000000        0.00242435        0.00039239        0.00300587
     272         -0.221185        2.000000        0.00125573        0.00024130        0.00230223
     273         -0.220659        2.000000        0.00307775        0.00052225        0.00347419
     274         -0.219665        2.000000        0.00496249        0.00067178        0.00340203
     275         -0.219630        2.000000        0.00341408        0.00089542        0.00804325
     276         -0.218916        2.000000        0.00240768        0.00035404        0.00185045
     277         -0.218551        2.000000        0.03337280        0.00259754        0.00940535
     278         -0.218398        2.000000        0.01269895        0.00248024        0.00968983
     279         -0.218139        2.000000        0.00246325        0.00045472        0.00243029
     280         -0.217698        2.000000        0.00588448        0.00043024        0.00138058
     281         -0.217580        2.000000        0.00543827        0.00075929        0.00432717
     282         -0.217435        2.000000        0.01463359        0.00231206        0.01014060
     283         -0.216483        2.000000        0.00389648        0.00022413        0.00061188
     284         -0.216363        2.000000        0.00132828        0.00022157        0.00123206
     285         -0.216254        2.000000        0.00015770        0.00003926        0.00023747
     286         -0.215958        2.000000        0.00767538        0.00087671        0.00496251
     287         -0.215645        2.000000        0.03970875        0.00252356        0.00877765
     288         -0.215217        2.000000        0.00008113        0.00001088        0.00006537
     289         -0.214936        2.000000        0.00066508        0.00011496        0.00062432
     290         -0.214221        2.000000        0.00062074        0.00008609        0.00062276
     291         -0.213816        2.000000        0.00042343        0.00002802        0.00007720
     292         -0.213592        2.000000        0.01742045        0.00222927        0.00902580
     293         -0.213468        2.000000        0.00524819        0.00072222        0.00471109
     294         -0.213241        2.000000        0.00005573        0.00001218        0.00010972
     295         -0.213184        2.000000        0.07288282        0.00468590        0.00811912
     296         -0.212817        2.000000        0.02439615        0.00186554        0.00416342
     297         -0.212583        2.000000        0.00103757        0.00017218        0.00094845
     298         -0.212273        2.000000        0.03992342        0.00325497        0.00797030
     299         -0.211896        2.000000        0.00057561        0.00006559        0.00025852
     300         -0.211391        2.000000        0.06657171        0.00509855        0.00721713
     301         -0.211339        2.000000        0.01179762        0.00096409        0.00175598
     302         -0.211269        2.000000        0.00115850        0.00010951        0.00026231
     303         -0.211046        2.000000        0.05563892        0.00442377        0.01090350
     304         -0.210412        2.000000        0.08973318        0.00683126        0.00642236
     305         -0.210309        2.000000        0.07771911        0.00710703        0.01111560
     306         -0.210188        2.000000        0.12062002        0.00954313        0.01063260
     307         -0.210166        2.000000        0.07651677        0.00620827        0.00790485