# Projected DOS for list 134 of 3 atoms, at iteration step i = 0, E(Fermi) =     0.101540 a.u.
#     MO Eigenvalue [a.u.]      Occupation                 s                 p                 d
       1         -0.708367        2.000000        0.00000001        0.00000002        0.00000000
       2         -0.696979        2.000000        0.00000195        0.00000233        0.00000001
       3         -0.695301        2.000000        0.00000001        0.00000001        0.00000000
       4         -0.694902        2.000000        0.00000000        0.00000000        0.00000000
       5         -0.690081        2.000000        0.00000000        0.00000000        0.00000000
       6         -0.686805        2.000000        0.00000179        0.00000898        0.00000003
       7         -0.686571        2.000000        0.00000110        0.00000203        0.00000004
       8         -0.685003        2.000000        0.00001272        0.00001285        0.00000012
       9         -0.684036        2.000000        0.00042253        0.00042858        0.00000290
      10         -0.683920        2.000000        0.00000000        0.00000000        0.00000000
      11         -0.681735        2.000000        0.00002874        0.00019958        0.00000091
      12         -0.679408        2.000000        0.00000751        0.00000377        0.00000016
      13         -0.678932        2.000000        0.00000000        0.00000000        0.00000000
      14         -0.678381        2.000000        0.00000049        0.00000160        0.00000003
      15         -0.677963        2.000000        0.00000570        0.00006586        0.00000043
      16         -0.677540        2.000000        0.00020030        0.00011581        0.00000068
      17         -0.677381        2.000000        0.00000000        0.00000000        0.00000000
      18         -0.677246        2.000000        0.00013063        0.00008605        0.00000053
      19         -0.675827        2.000000        0.00000819        0.00001453        0.00000005
      20         -0.675724        2.000000        0.00000000        0.00000000        0.00000000
      21         -0.674932        2.000000        0.00000000        0.00000000        0.00000000
      22         -0.674380        2.000000        0.00002334        0.00001881        0.00000007
      23         -0.673393        2.000000        0.00005521        0.00006147        0.00000074
      24         -0.672924        2.000000        0.00000000        0.00000000        0.00000000
      25         -0.672289        2.000000        0.00000633        0.00000682        0.00000003
      26         -0.672227        2.000000        0.00000423        0.00000070        0.00000002
      27         -0.671275        2.000000        0.00000000        0.00000000        0.00000000
      28         -0.670770        2.000000        0.00004302        0.00001341        0.00000006
      29         -0.670400        2.000000        0.00002463        0.00001558        0.00000029
      30         -0.669922        2.000000        0.00007285        0.00000635        0.00000025
      31         -0.669606        2.000000        0.00000003        0.00000003        0.00000000
      32         -0.668947        2.000000        0.00001714        0.00002132        0.00000051
      33         -0.668931        2.000000        0.00000959        0.00001212        0.00000029
      34         -0.668431        2.000000        0.00000946        0.00001073        0.00000008
      35         -0.668008        2.000000        0.00002634        0.00000258        0.00000008
      36         -0.667083        2.000000        0.00000432        0.00000286        0.00000005
      37         -0.666996        2.000000        0.00000000        0.00000000        0.00000000
      38         -0.666939        2.000000        0.00000090        0.00000587        0.00000008
      39         -0.666646        2.000000        0.00000483        0.00002568        0.00000035
      40         -0.666363        2.000000        0.00002559        0.00005143        0.00000047
      41         -0.666281        2.000000        0.00000002        0.00000002        0.00000000
      42         -0.666129        2.000000        0.00009358        0.00000461        0.00000015
      43         -0.665867        2.000000        0.00002491        0.00001992        0.00000014
      44         -0.664404        2.000000        0.00000021        0.00000018        0.00000000
      45         -0.664061        2.000000        0.00007571        0.00018320        0.00000310
      46         -0.663948        2.000000        0.00000005        0.00000023        0.00000000
      47         -0.663550        2.000000        0.00004976        0.00015761        0.00000286
      48         -0.662943        2.000000        0.00000005        0.00000002        0.00000000
      49         -0.662627        2.000000        0.00003032        0.00001784        0.00000025
      50         -0.661965        2.000000        0.00130958        0.00056992        0.00000549
      51         -0.661528        2.000000        0.00000002        0.00000003        0.00000000
      52         -0.660900        2.000000        0.00000163        0.00000070        0.00000001
      53         -0.660166        2.000000        0.00000536        0.00000453        0.00000009
      54         -0.659683        2.000000        0.00000003        0.00000001        0.00000000
      55         -0.658835        2.000000        0.00008778        0.00015793        0.00000222
      56         -0.658814        2.000000        0.00000028        0.00000044        0.00000001
      57         -0.658691        2.000000        0.00000004        0.00000006        0.00000000
      58         -0.658084        2.000000        0.00118826        0.00017001        0.00000545
      59         -0.658073        2.000000        0.00011995        0.00000836        0.00000050
      60         -0.657975        2.000000        0.02876747        0.00952607        0.00016896
      61         -0.657678        2.000000        0.00069434        0.00030773        0.00000498
      62         -0.657592        2.000000        0.00071978        0.00004866        0.00000278
      63         -0.657226        2.000000        0.00001391        0.00000455        0.00000008
      64         -0.657087        2.000000        0.00111575        0.00026682        0.00000652
      65         -0.656742        2.000000        0.00222187        0.00093158        0.00001561
      66         -0.656449        2.000000        0.00111530        0.00046693        0.00000737
      67         -0.656215        2.000000        0.00103619        0.00027220        0.00000645
      68         -0.655700        2.000000        0.00020361        0.00003679        0.00000098
      69         -0.655174        2.000000        0.00000028        0.00000010        0.00000000
      70         -0.654827        2.000000        0.00027674        0.00002061        0.00000118
      71         -0.654660        2.000000        0.00000106        0.00000106        0.00000001
      72         -0.654406        2.000000        0.00019232        0.00020123        0.00000234
      73         -0.654250        2.000000        0.00016506        0.00006130        0.00000114
      74         -0.653619        2.000000        0.00000357        0.00000310        0.00000007
      75         -0.653105        2.000000        0.00022292        0.00018810        0.00000392
      76         -0.652904        2.000000        0.00009443        0.00009161        0.00000191
      77         -0.652612        2.000000        0.00009557        0.00001468        0.00000059
      78         -0.652411        2.000000        0.00012192        0.00003749        0.00000046
      79         -0.652213        2.000000        0.00000044        0.00000260        0.00000003
      80         -0.652083        2.000000        0.00001193        0.00000304        0.00000022
      81         -0.651807        2.000000        0.00004430        0.00004035        0.00000200
      82         -0.651706        2.000000        0.00001389        0.00001537        0.00000064
      83         -0.651237        2.000000        0.00005602        0.00003975        0.00000074
      84         -0.651053        2.000000        0.00001939        0.00001459        0.00000024
      85         -0.650411        2.000000        0.00011655        0.00008846        0.00000036
      86         -0.650326        2.000000        0.00029315        0.00019730        0.00000099
      87         -0.650219        2.000000        0.00017068        0.00015378        0.00000106
      88         -0.650130        2.000000        0.00051213        0.00015857        0.00000046
      89         -0.649849        2.000000        0.00008117        0.00008550        0.00000063
      90         -0.649510        2.000000        0.00046730        0.00051025        0.00000733
      91         -0.648737        2.000000        0.00315603        0.00107905        0.00000408
      92         -0.648608        2.000000        0.00153972        0.00042933        0.00000305
      93         -0.648509        2.000000        0.00040580        0.00051844        0.00000243
      94         -0.648091        2.000000        0.00062244        0.00016905        0.00000297
      95         -0.647956        2.000000        0.00000757        0.00000506        0.00000002
      96         -0.647875        2.000000        0.01183791        0.00518389        0.00010609
      97         -0.647628        2.000000        0.00003099        0.00005475        0.00000029
      98         -0.647248        2.000000        0.01474773        0.00586056        0.00010727
      99         -0.646997        2.000000        0.00000416        0.00000943        0.00000006
     100         -0.646893        2.000000        0.00000029        0.00000209        0.00000002
     101         -0.646794        2.000000        0.00017399        0.00098755        0.00000902
     102         -0.645843        2.000000        0.00002908        0.00029378        0.00000448
     103         -0.645519        2.000000        0.00003792        0.00011842        0.00000399
     104         -0.645232        2.000000        0.00010463        0.00022090        0.00000417
     105         -0.644964        2.000000        0.00002924        0.00005872        0.00000208
     106         -0.644451        2.000000        0.00052771        0.00036919        0.00000967
     107         -0.644170        2.000000        0.00000346        0.00001858        0.00000018
     108         -0.643891        2.000000        0.00000407        0.00000951        0.00000012
     109         -0.643862        2.000000        0.00019712        0.00005672        0.00000232
     110         -0.643478        2.000000        0.00000239        0.00000152        0.00000001
     111         -0.643325        2.000000        0.00011442        0.00005552        0.00000200
     112         -0.642934        2.000000        0.00007996        0.00003159        0.00000121
     113         -0.642899        2.000000        0.00012418        0.00007305        0.00000067
     114         -0.642460        2.000000        0.00205650        0.00110393        0.00001237
     115         -0.642175        2.000000        0.00000757        0.00001262        0.00000034
     116         -0.642120        2.000000        0.00026749        0.00013886        0.00000095
     117         -0.641851        2.000000        0.00011612        0.00021597        0.00000590
     118         -0.641683        2.000000        0.00008008        0.00005165        0.00000072
     119         -0.641305        2.000000        0.00013383        0.00005471        0.00000220
     120         -0.641072        2.000000        0.00009154        0.00002328        0.00000050
     121         -0.640960        2.000000        0.00006526        0.00003174        0.00000059
     122         -0.640793        2.000000        0.00000576        0.00002622        0.00000047
     123         -0.640578        2.000000        0.00032935        0.00011703        0.00000113
     124         -0.640464        2.000000        0.00027320        0.00005064        0.00000078
     125         -0.640169        2.000000        0.00030032        0.00011504        0.00000140
     126         -0.639736        2.000000        0.00007437        0.00000894        0.00000022
     127         -0.639499        2.000000        0.00000376        0.00004739        0.00000078
     128         -0.639154        2.000000        0.00006985        0.00001101        0.00000053
     129         -0.639060        2.000000        0.00000263        0.00001073        0.00000010
     130         -0.638976        2.000000        0.00000348        0.00000960        0.00000024
     131         -0.638593        2.000000        0.00005775        0.00008101        0.00000035
     132         -0.638261        2.000000        0.00208810        0.00081488        0.00001083
     133         -0.638059        2.000000        0.00000742        0.00002320        0.00000011
     134         -0.637912        2.000000        0.00012716        0.00007465        0.00000038
     135         -0.637762        2.000000        0.00011490        0.00007080        0.00000101
     136         -0.637584        2.000000        0.00002768        0.00002097        0.00000026
     137         -0.636804        2.000000        0.00000116        0.00000159        0.00000004
     138         -0.636640        2.000000        0.00000419        0.00001999        0.00000031
     139         -0.636429        2.000000        0.00000223        0.00002402        0.00000061
     140         -0.635515        2.000000        0.00014273        0.00002889        0.00000110
     141         -0.634989        2.000000        0.00000313        0.00000754        0.00000009
     142         -0.634462        2.000000        0.00000575        0.00002021        0.00000019
     143         -0.634132        2.000000        0.00001021        0.00005405        0.00000113
     144         -0.633763        2.000000        0.00005503        0.00001085        0.00000033
     145         -0.633531        2.000000        0.00001628        0.00000763        0.00000024
     146         -0.632585        2.000000        0.00001956        0.00003245        0.00000025
     147         -0.632333        2.000000        0.00001499        0.00000197        0.00000005
     148         -0.632031        2.000000        0.00002671        0.00000411        0.00000007
     149         -0.631841        2.000000        0.00009750        0.00001348        0.00000028
     150         -0.631318        2.000000        0.00084209        0.00010376        0.00000312
     151         -0.630640        2.000000        0.00024673        0.00005570        0.00000042
     152         -0.630519        2.000000        0.00004084        0.00003433        0.00000010
     153         -0.630490        2.000000        0.00044516        0.00011622        0.00000115
     154         -0.629959        2.000000        0.00006923        0.00000956        0.00000016
     155         -0.629452        2.000000        0.00026292        0.00003527        0.00000068
     156         -0.629210        2.000000        0.00004622        0.00002007        0.00000014
     157         -0.628856        2.000000        0.00003602        0.00000532        0.00000008
     158         -0.628516        2.000000        0.00135907        0.00022535        0.00000250
     159         -0.628511        2.000000        0.00015107        0.00003276        0.00000081
     160         -0.628382        2.000000        0.00031959        0.00005718        0.00000094
     161         -0.628242        2.000000        0.00109842        0.00016253        0.00000310
     162         -0.628026        2.000000        0.00057876        0.00008110        0.00000164
     163         -0.627712        2.000000        0.00001908        0.00000861        0.00000026
     164         -0.627438        2.000000        0.00715495        0.00106133        0.00001832
     165         -0.627281        2.000000        0.00016159        0.00006731        0.00000070
     166         -0.626983        2.000000        0.00266752        0.00038781        0.00000616
     167         -0.626804        2.000000        0.00000477        0.00000319        0.00000004
     168         -0.626588        2.000000        0.00847042        0.00132302        0.00002040
     169         -0.626019        2.000000        0.00000477        0.00000086        0.00000001
     170         -0.625843        2.000000        0.00056360        0.00009103        0.00000142
     171         -0.625019        2.000000        0.00092580        0.00014131        0.00000241
     172         -0.624831        2.000000        0.00004462        0.00000856        0.00000011
     173         -0.624166        2.000000        0.00286121        0.00051733        0.00000845
     174         -0.623906        2.000000        0.14284203        0.02697508        0.00044780
     175         -0.623799        2.000000        0.00000410        0.00000131        0.00000001
     176         -0.623716        2.000000        0.00003017        0.00002198        0.00000034
     177         -0.623382        2.000000        0.00057965        0.00011110        0.00000142
     178         -0.623067        2.000000        0.00018698        0.00003568        0.00000076
     179         -0.622801        2.000000        0.00109800        0.00037399        0.00000569
     180         -0.622617        2.000000        0.00121401        0.00025517        0.00000379
     181         -0.622499        2.000000        0.00014056        0.00003895        0.00000026
     182         -0.621672        2.000000        0.04029095        0.00785603        0.00010556
     183         -0.621151        2.000000        0.00006879        0.00005618        0.00000022
     184         -0.620781        2.000000        0.01304290        0.00257110        0.00003848
     185         -0.620579        2.000000        0.00000257        0.00000863        0.00000008
     186         -0.619930        2.000000        0.00011427        0.00002858        0.00000053
     187         -0.618694        2.000000        0.00003923        0.00002219        0.00000004
     188         -0.618461        2.000000        0.00336038        0.00071910        0.00000807
     189         -0.618211        2.000000        0.00000020        0.00000178        0.00000002
     190         -0.617957        2.000000        0.00061483        0.00013971        0.00000261
     191         -0.617770        2.000000        0.00571944        0.00132656        0.00001157
     192         -0.617636        2.000000        0.00005194        0.00004708        0.00000050
     193         -0.617200        2.000000        0.00059815        0.00019232        0.00000203
     194         -0.616810        2.000000        0.00000358        0.00000134        0.00000001
     195         -0.615618        2.000000        0.00003630        0.00001216        0.00000009
     196         -0.615377        2.000000        0.00003385        0.00003159        0.00000027
     197         -0.615228        2.000000        0.00009164        0.00002465        0.00000020
     198         -0.614941        2.000000        0.00074045        0.00019499        0.00000131
     199         -0.613862        2.000000        0.00027216        0.00007519        0.00000057
     200         -0.613167        2.000000        0.00021040        0.00005809        0.00000036
     201         -0.612937        2.000000        0.00253251        0.00086541        0.00000322
     202         -0.612465        2.000000        0.00758390        0.00237025        0.00001227
     203         -0.611371        2.000000        0.32491669        0.10714323        0.00047591
     204         -0.611273        2.000000        0.03907469        0.01296398        0.00005673
     205         -0.610903        2.000000        0.01057095        0.00357966        0.00001484
     206         -0.609912        2.000000        0.00021801        0.00009190        0.00000038
     207         -0.609442        2.000000        0.00319875        0.00123413        0.00000397
     208         -0.609149        2.000000        0.04562624        0.01715556        0.00005679
     209         -0.608882        2.000000        0.00083796        0.00032404        0.00000100
     210         -0.608562        2.000000        0.00001625        0.00000620        0.00000002
     211         -0.608012        2.000000        0.00001861        0.00001506        0.00000005
     212         -0.607014        2.000000        0.00000115        0.00000315        0.00000001
     213         -0.606300        2.000000        0.00000609        0.00001391        0.00000004
     214         -0.605948        2.000000        0.00351675        0.00115306        0.00001256
     215         -0.605403        2.000000        0.01868878        0.00559874        0.00003707
     216         -0.604664        2.000000        0.00013958        0.00003924        0.00000035
     217         -0.604080        2.000000        0.00000702        0.00000896        0.00000010
     218         -0.603538        2.000000        0.00016094        0.00005701        0.00000030
     219         -0.603145        2.000000        0.00057128        0.00026860        0.00000050
     220         -0.602213        2.000000        0.00006957        0.00002487        0.00000015
     221         -0.601871        2.000000        0.00010379        0.00005722        0.00000014
     222         -0.600521        2.000000        0.00019220        0.00005039        0.00000154
     223         -0.599848        2.000000        0.00000590        0.00000216        0.00000002
     224         -0.598111        2.000000        0.00000105        0.00000095        0.00000000
     225         -0.597286        2.000000        0.00000010        0.00000023        0.00000000
     226         -0.597121        2.000000        0.00000161        0.00000065        0.00000000
     227         -0.595585        2.000000        0.00000004        0.00000002        0.00000000
     228         -0.591103        2.000000        0.00000437        0.00000571        0.00000002
     229         -0.582585        2.000000        0.00000000        0.00000000        0.00000000
     230         -0.576283        2.000000        0.00000000        0.00000000        0.00000000
     231         -0.258156        2.000000        0.00000000        0.00000001        0.00000000
     232         -0.253473        2.000000        0.00000084        0.00000788        0.00000027
     233         -0.246233        2.000000        0.00000033        0.00000153        0.00000002
     234         -0.244651        2.000000        0.00000018        0.00000138        0.00000004
     235         -0.243092        2.000000        0.00000001        0.00000010        0.00000000
     236         -0.242544        2.000000        0.00000000        0.00000000        0.00000000
     237         -0.241048        2.000000        0.00000127        0.00000534        0.00000005
     238         -0.240546        2.000000        0.00011144        0.00045067        0.00000722
     239         -0.237982        2.000000        0.00000877        0.00003730        0.00000056
     240         -0.237798        2.000000        0.00000001        0.00000002        0.00000000
     241         -0.236566        2.000000        0.00000069        0.00000385        0.00000007
     242         -0.235920        2.000000        0.00000134        0.00000682        0.00000012
     243         -0.233145        2.000000        0.00000000        0.00000000        0.00000000
     244         -0.232785        2.000000        0.00000330        0.00002727        0.00000102
     245         -0.232224        2.000000        0.00000580        0.00005725        0.00000190
     246         -0.232174        2.000000        0.00000000        0.00000000        0.00000000
     247         -0.232015        2.000000        0.00000000        0.00000002        0.00000000
     248         -0.230744        2.000000        0.00000001        0.00000008        0.00000000
     249         -0.230697        2.000000        0.00000307        0.00003167        0.00000099
     250         -0.229959        2.000000        0.00000001        0.00000010        0.00000000
     251         -0.229741        2.000000        0.00004672        0.00047599        0.00001372
     252         -0.228898        2.000000        0.00001141        0.00005683        0.00000092
     253         -0.227939        2.000000        0.00000392        0.00001938        0.00000033
     254         -0.227542        2.000000        0.00000108        0.00000894        0.00000029
     255         -0.227010        2.000000        0.00000679        0.00002972        0.00000014
     256         -0.226860        2.000000        0.00000000        0.00000000        0.00000000
     257         -0.226780        2.000000        0.00001772        0.00011030        0.00000164
     258         -0.226656        2.000000        0.00041280        0.00135606        0.00003377
     259         -0.226503        2.000000        0.00000001        0.00000003        0.00000000
     260         -0.226036        2.000000        0.00000533        0.00004607        0.00000119
     261         -0.225667        2.000000        0.00000000        0.00000001        0.00000000
     262         -0.225511        2.000000        0.00000016        0.00000051        0.00000001
     263         -0.224716        2.000000        0.00029708        0.00159390        0.00002603
     264         -0.224218        2.000000        0.00236220        0.01097039        0.00016950
     265         -0.223677        2.000000        0.00000121        0.00000494        0.00000007
     266         -0.223438        2.000000        0.00042540        0.00169505        0.00002581
     267         -0.223292        2.000000        0.00004977        0.00022512        0.00000400
     268         -0.223025        2.000000        0.00031734        0.00187920        0.00003267
     269         -0.222436        2.000000        0.00022942        0.00111525        0.00001762
     270         -0.222159        2.000000        0.00000000        0.00000000        0.00000000
     271         -0.221905        2.000000        0.00020421        0.00074287        0.00001104
     272         -0.221185        2.000000        0.00000014        0.00000047        0.00000001
     273         -0.220659        2.000000        0.00033535        0.00124189        0.00001876
     274         -0.219665        2.000000        0.00000294        0.00002256        0.00000069
     275         -0.219630        2.000000        0.00000012        0.00000098        0.00000003
     276         -0.218916        2.000000        0.00003949        0.00021663        0.00000355
     277         -0.218551        2.000000        0.00000130        0.00000451        0.00000013
     278         -0.218398        2.000000        0.00000136        0.00000962        0.00000021
     279         -0.218139        2.000000        0.00000006        0.00000045        0.00000001
     280         -0.217698        2.000000        0.00117935        0.00421911        0.00006713
     281         -0.217580        2.000000        0.00001792        0.00006694        0.00000105
     282         -0.217435        2.000000        0.00001846        0.00006271        0.00000103
     283         -0.216483        2.000000        0.00699904        0.02352489        0.00039565
     284         -0.216363        2.000000        0.00011121        0.00036265        0.00000621
     285         -0.216254        2.000000        0.00164045        0.00540120        0.00009198
     286         -0.215958        2.000000        0.00000705        0.00002056        0.00000038
     287         -0.215645        2.000000        0.00002026        0.00006415        0.00000112
     288         -0.215217        2.000000        0.00182085        0.00481524        0.00012461
     289         -0.214936        2.000000        0.00010465        0.00041442        0.00001106
     290         -0.214221        2.000000        0.00693505        0.01786559        0.00040426
     291         -0.213816        2.000000        0.00033727        0.00161963        0.00002054
     292         -0.213592        2.000000        0.00000618        0.00001578        0.00000039
     293         -0.213468        2.000000        0.00170339        0.00449438        0.00012141
     294         -0.213241        2.000000        0.00137779        0.00381272        0.00011080
     295         -0.213184        2.000000        0.00001871        0.00005704        0.00000164
     296         -0.212817        2.000000        0.00000151        0.00001028        0.00000024
     297         -0.212583        2.000000        0.00048484        0.00465391        0.00009182
     298         -0.212273        2.000000        0.00000111        0.00000624        0.00000009
     299         -0.211896        2.000000        0.00126035        0.00326377        0.00009110
     300         -0.211391        2.000000        0.00002107        0.00018850        0.00000394
     301         -0.211339        2.000000        0.00006683        0.00062884        0.00001250
     302         -0.211269        2.000000        0.00004446        0.00023943        0.00000696
     303         -0.211046        2.000000        0.00000442        0.00003852        0.00000061
     304         -0.210412        2.000000        0.00001531        0.00003994        0.00000085
     305         -0.210309        2.000000        0.00000249        0.00001035        0.00000016
     306         -0.210188        2.000000        0.00001430        0.00003486        0.00000093
     307         -0.210166        2.000000        0.00001333        0.00004392        0.00000133