# Projected DOS for list 45 of 3 atoms, at iteration step i = 0, E(Fermi) =     0.101540 a.u.
#     MO Eigenvalue [a.u.]      Occupation                 s                 p                 d
       1         -0.708367        2.000000        0.00000000        0.00000000        0.00000000
       2         -0.696979        2.000000        0.00000000        0.00000000        0.00000000
       3         -0.695301        2.000000        0.00000000        0.00000000        0.00000000
       4         -0.694902        2.000000        0.00000000        0.00000000        0.00000000
       5         -0.690081        2.000000        0.00000000        0.00000000        0.00000000
       6         -0.686805        2.000000        0.00000007        0.00000005        0.00000000
       7         -0.686571        2.000000        0.00000001        0.00000001        0.00000000
       8         -0.685003        2.000000        0.00000000        0.00000000        0.00000000
       9         -0.684036        2.000000        0.00000004        0.00000001        0.00000000
      10         -0.683920        2.000000        0.00000000        0.00000000        0.00000000
      11         -0.681735        2.000000        0.00000002        0.00000002        0.00000000
      12         -0.679408        2.000000        0.00000002        0.00000001        0.00000000
      13         -0.678932        2.000000        0.00000021        0.00000016        0.00000000
      14         -0.678381        2.000000        0.00000058        0.00000025        0.00000001
      15         -0.677963        2.000000        0.00000002        0.00000002        0.00000000
      16         -0.677540        2.000000        0.00000001        0.00000013        0.00000000
      17         -0.677381        2.000000        0.00000005        0.00000003        0.00000000
      18         -0.677246        2.000000        0.00000016        0.00000015        0.00000000
      19         -0.675827        2.000000        0.00000000        0.00000000        0.00000000
      20         -0.675724        2.000000        0.00000003        0.00000002        0.00000000
      21         -0.674932        2.000000        0.00000000        0.00000000        0.00000000
      22         -0.674380        2.000000        0.00000074        0.00000015        0.00000000
      23         -0.673393        2.000000        0.00000015        0.00000005        0.00000000
      24         -0.672924        2.000000        0.00000001        0.00000001        0.00000000
      25         -0.672289        2.000000        0.00000001        0.00000002        0.00000000
      26         -0.672227        2.000000        0.00001153        0.00000443        0.00000011
      27         -0.671275        2.000000        0.00000000        0.00000004        0.00000000
      28         -0.670770        2.000000        0.00000115        0.00000020        0.00000000
      29         -0.670400        2.000000        0.00000086        0.00000034        0.00000000
      30         -0.669922        2.000000        0.00000392        0.00000080        0.00000001
      31         -0.669606        2.000000        0.00008640        0.00004104        0.00000099
      32         -0.668947        2.000000        0.00003345        0.00000543        0.00000006
      33         -0.668931        2.000000        0.00000045        0.00000464        0.00000007
      34         -0.668431        2.000000        0.00003190        0.00002099        0.00000008
      35         -0.668008        2.000000        0.00011267        0.00017624        0.00000085
      36         -0.667083        2.000000        0.00001466        0.00000926        0.00000003
      37         -0.666996        2.000000        0.00000027        0.00000013        0.00000000
      38         -0.666939        2.000000        0.00000075        0.00000015        0.00000000
      39         -0.666646        2.000000        0.00000011        0.00000166        0.00000002
      40         -0.666363        2.000000        0.00000479        0.00000427        0.00000006
      41         -0.666281        2.000000        0.00000227        0.00000094        0.00000003
      42         -0.666129        2.000000        0.00000260        0.00001322        0.00000008
      43         -0.665867        2.000000        0.00000325        0.00000630        0.00000007
      44         -0.664404        2.000000        0.00000708        0.00000281        0.00000007
      45         -0.664061        2.000000        0.00000471        0.00000423        0.00000009
      46         -0.663948        2.000000        0.00064219        0.00024175        0.00000672
      47         -0.663550        2.000000        0.00004083        0.00001339        0.00000035
      48         -0.662943        2.000000        0.00000378        0.00000086        0.00000003
      49         -0.662627        2.000000        0.00002538        0.00000831        0.00000015
      50         -0.661965        2.000000        0.00072993        0.00018727        0.00000352
      51         -0.661528        2.000000        0.00001717        0.00000430        0.00000013
      52         -0.660900        2.000000        0.00000015        0.00000106        0.00000000
      53         -0.660166        2.000000        0.00000496        0.00000250        0.00000005
      54         -0.659683        2.000000        0.00000084        0.00000016        0.00000000
      55         -0.658835        2.000000        0.00000520        0.00000623        0.00000004
      56         -0.658814        2.000000        0.00000028        0.00000071        0.00000001
      57         -0.658691        2.000000        0.00000218        0.00000252        0.00000005
      58         -0.658084        2.000000        0.00009326        0.00002371        0.00000050
      59         -0.658073        2.000000        0.00005230        0.00001954        0.00000055
      60         -0.657975        2.000000        0.00285482        0.00040744        0.00000980
      61         -0.657678        2.000000        0.00023917        0.00005197        0.00000045
      62         -0.657592        2.000000        0.00010346        0.00001338        0.00000061
      63         -0.657226        2.000000        0.00000024        0.00000152        0.00000002
      64         -0.657087        2.000000        0.00068031        0.00011970        0.00000124
      65         -0.656742        2.000000        0.00902335        0.00114815        0.00002156
      66         -0.656449        2.000000        0.00335673        0.00060057        0.00001732
      67         -0.656215        2.000000        0.00293518        0.00036621        0.00001037
      68         -0.655700        2.000000        0.00077696        0.00111632        0.00000898
      69         -0.655174        2.000000        0.00001213        0.00000298        0.00000002
      70         -0.654827        2.000000        0.00000973        0.00002540        0.00000032
      71         -0.654660        2.000000        0.00001513        0.00000709        0.00000007
      72         -0.654406        2.000000        0.00007705        0.00002614        0.00000077
      73         -0.654250        2.000000        0.00001090        0.00000753        0.00000005
      74         -0.653619        2.000000        0.00053590        0.00007400        0.00000074
      75         -0.653105        2.000000        0.01909199        0.00241819        0.00003032
      76         -0.652904        2.000000        0.00498553        0.00119919        0.00000883
      77         -0.652612        2.000000        0.00058818        0.00014461        0.00000084
      78         -0.652411        2.000000        0.00026361        0.00003877        0.00000119
      79         -0.652213        2.000000        0.00004866        0.00008738        0.00000154
      80         -0.652083        2.000000        0.00212070        0.00037179        0.00000938
      81         -0.651807        2.000000        0.00099139        0.00088885        0.00001230
      82         -0.651706        2.000000        0.00034946        0.00022174        0.00000245
      83         -0.651237        2.000000        0.01177216        0.00149631        0.00002507
      84         -0.651053        2.000000        0.00363565        0.00097329        0.00000972
      85         -0.650411        2.000000        0.00193622        0.00030936        0.00002394
      86         -0.650326        2.000000        0.00116340        0.00019057        0.00001824
      87         -0.650219        2.000000        0.00226256        0.00046496        0.00000811
      88         -0.650130        2.000000        0.00057156        0.00006215        0.00000614
      89         -0.649849        2.000000        0.01018763        0.00211841        0.00008242
      90         -0.649510        2.000000        0.00105994        0.00024790        0.00001142
      91         -0.648737        2.000000        0.01157216        0.00351748        0.00007198
      92         -0.648608        2.000000        0.00016227        0.00042791        0.00000740
      93         -0.648509        2.000000        0.00417638        0.00175526        0.00003232
      94         -0.648091        2.000000        0.00005006        0.00019703        0.00000335
      95         -0.647956        2.000000        0.00013197        0.00007677        0.00000078
      96         -0.647875        2.000000        0.00135375        0.00022049        0.00000392
      97         -0.647628        2.000000        0.00000691        0.00006110        0.00000179
      98         -0.647248        2.000000        0.00210448        0.00034233        0.00000568
      99         -0.646997        2.000000        0.00000150        0.00000879        0.00000004
     100         -0.646893        2.000000        0.00001363        0.00001113        0.00000007
     101         -0.646794        2.000000        0.01221620        0.00203974        0.00002417
     102         -0.645843        2.000000        0.00402258        0.00158392        0.00001514
     103         -0.645519        2.000000        0.00217049        0.00042332        0.00000390
     104         -0.645232        2.000000        0.00247339        0.00025174        0.00000645
     105         -0.644964        2.000000        0.00098860        0.00021489        0.00000091
     106         -0.644451        2.000000        0.00582581        0.00064689        0.00001167
     107         -0.644170        2.000000        0.00039444        0.00006735        0.00000694
     108         -0.643891        2.000000        0.00027796        0.00004671        0.00000241
     109         -0.643862        2.000000        0.00005805        0.00015898        0.00000213
     110         -0.643478        2.000000        0.00058951        0.00010030        0.00000075
     111         -0.643325        2.000000        0.00147314        0.00053234        0.00000950
     112         -0.642934        2.000000        0.00021342        0.00003031        0.00000295
     113         -0.642899        2.000000        0.00002630        0.00001744        0.00000016
     114         -0.642460        2.000000        0.00011793        0.00004914        0.00000051
     115         -0.642175        2.000000        0.00482052        0.00082370        0.00000554
     116         -0.642120        2.000000        0.00016605        0.00002295        0.00000047
     117         -0.641851        2.000000        0.00427854        0.00219211        0.00003149
     118         -0.641683        2.000000        0.01342746        0.00275789        0.00001417
     119         -0.641305        2.000000        0.03096806        0.00526051        0.00008273
     120         -0.641072        2.000000        0.00042602        0.00033305        0.00000319
     121         -0.640960        2.000000        0.00006342        0.00042928        0.00000369
     122         -0.640793        2.000000        0.00374160        0.00051967        0.00001761
     123         -0.640578        2.000000        0.00012070        0.00069122        0.00001170
     124         -0.640464        2.000000        0.00798908        0.00235613        0.00001086
     125         -0.640169        2.000000        0.00066244        0.00085326        0.00001312
     126         -0.639736        2.000000        0.00129519        0.00072530        0.00000264
     127         -0.639499        2.000000        0.00712642        0.00125922        0.00000943
     128         -0.639154        2.000000        0.00009389        0.00022070        0.00000362
     129         -0.639060        2.000000        0.00149855        0.00032683        0.00000251
     130         -0.638976        2.000000        0.00043917        0.00021025        0.00000059
     131         -0.638593        2.000000        0.00878220        0.00170298        0.00001423
     132         -0.638261        2.000000        0.00000083        0.00000153        0.00000004
     133         -0.638059        2.000000        0.01092081        0.00183459        0.00002817
     134         -0.637912        2.000000        0.00437204        0.00091383        0.00001169
     135         -0.637762        2.000000        0.00097509        0.00017236        0.00000275
     136         -0.637584        2.000000        0.00383617        0.00057148        0.00000951
     137         -0.636804        2.000000        0.00023893        0.00004793        0.00000096
     138         -0.636640        2.000000        0.00469232        0.00080230        0.00001538
     139         -0.636429        2.000000        0.00503822        0.00110028        0.00001602
     140         -0.635515        2.000000        0.00001419        0.00014321        0.00000596
     141         -0.634989        2.000000        0.00092470        0.00156956        0.00005491
     142         -0.634462        2.000000        0.00009034        0.00016803        0.00000059
     143         -0.634132        2.000000        0.00061555        0.00556133        0.00018387
     144         -0.633763        2.000000        0.00002595        0.00011952        0.00000302
     145         -0.633531        2.000000        0.00000182        0.00000244        0.00000012
     146         -0.632585        2.000000        0.00021687        0.00039867        0.00000518
     147         -0.632333        2.000000        0.00021061        0.00044697        0.00000354
     148         -0.632031        2.000000        0.00001363        0.00006972        0.00000062
     149         -0.631841        2.000000        0.00001227        0.00006576        0.00000038
     150         -0.631318        2.000000        0.00009440        0.00042635        0.00000200
     151         -0.630640        2.000000        0.00082935        0.00168594        0.00001325
     152         -0.630519        2.000000        0.00008177        0.00038813        0.00000342
     153         -0.630490        2.000000        0.00005124        0.00019345        0.00000137
     154         -0.629959        2.000000        0.00000606        0.00003746        0.00000033
     155         -0.629452        2.000000        0.00001506        0.00003656        0.00000073
     156         -0.629210        2.000000        0.00000762        0.00004110        0.00000027
     157         -0.628856        2.000000        0.00000063        0.00000330        0.00000002
     158         -0.628516        2.000000        0.00045863        0.00018533        0.00000164
     159         -0.628511        2.000000        0.00071238        0.00032437        0.00000208
     160         -0.628382        2.000000        0.00039272        0.00020304        0.00000111
     161         -0.628242        2.000000        0.00011832        0.00005097        0.00000033
     162         -0.628026        2.000000        0.00263345        0.00101707        0.00000893
     163         -0.627712        2.000000        0.00213807        0.00143460        0.00000683
     164         -0.627438        2.000000        0.00038230        0.00038334        0.00000339
     165         -0.627281        2.000000        0.00009141        0.00009145        0.00000386
     166         -0.626983        2.000000        0.00001896        0.00006950        0.00000092
     167         -0.626804        2.000000        0.00006951        0.00003072        0.00000030
     168         -0.626588        2.000000        0.00019208        0.00021646        0.00000113
     169         -0.626019        2.000000        0.00000004        0.00000019        0.00000000
     170         -0.625843        2.000000        0.00007363        0.00006568        0.00000014
     171         -0.625019        2.000000        0.00018957        0.00012684        0.00000049
     172         -0.624831        2.000000        0.00030726        0.00012076        0.00000119
     173         -0.624166        2.000000        0.00019143        0.00010736        0.00000187
     174         -0.623906        2.000000        0.00003502        0.00002373        0.00000034
     175         -0.623799        2.000000        0.00006374        0.00002829        0.00000043
     176         -0.623716        2.000000        0.00167530        0.00073820        0.00000189
     177         -0.623382        2.000000        0.00029735        0.00013686        0.00000055
     178         -0.623067        2.000000        0.00001231        0.00000336        0.00000005
     179         -0.622801        2.000000        0.00229592        0.00068619        0.00000944
     180         -0.622617        2.000000        0.00215011        0.00076980        0.00000367
     181         -0.622499        2.000000        0.00489868        0.00205687        0.00000448
     182         -0.621672        2.000000        0.00002657        0.00013770        0.00000149
     183         -0.621151        2.000000        0.00151565        0.00043999        0.00000573
     184         -0.620781        2.000000        0.00201824        0.00059524        0.00000850
     185         -0.620579        2.000000        0.00455228        0.00137671        0.00001503
     186         -0.619930        2.000000        0.00213976        0.00072270        0.00000806
     187         -0.618694        2.000000        0.00000412        0.00000165        0.00000000
     188         -0.618461        2.000000        0.00004539        0.00002043        0.00000006
     189         -0.618211        2.000000        0.00002648        0.00000819        0.00000006
     190         -0.617957        2.000000        0.00300803        0.00088183        0.00000728
     191         -0.617770        2.000000        0.00336264        0.00101330        0.00000704
     192         -0.617636        2.000000        0.05224090        0.01528277        0.00012763
     193         -0.617200        2.000000        0.03785063        0.01123744        0.00008727
     194         -0.616810        2.000000        0.04507543        0.01345326        0.00010165
     195         -0.615618        2.000000        0.02168914        0.00677718        0.00004634
     196         -0.615377        2.000000        0.00127076        0.00050079        0.00000159
     197         -0.615228        2.000000        0.00347995        0.00110407        0.00000853
     198         -0.614941        2.000000        0.00008929        0.00003267        0.00000012
     199         -0.613862        2.000000        0.00183250        0.00061494        0.00000334
     200         -0.613167        2.000000        0.06057765        0.02138730        0.00009525
     201         -0.612937        2.000000        0.00037183        0.00014018        0.00000048
     202         -0.612465        2.000000        0.22545684        0.08300743        0.00032534
     203         -0.611371        2.000000        0.00383729        0.00138665        0.00000620
     204         -0.611273        2.000000        0.00056455        0.00020428        0.00000096
     205         -0.610903        2.000000        0.00348157        0.00134166        0.00000527
     206         -0.609912        2.000000        0.00706829        0.00273104        0.00001097
     207         -0.609442        2.000000        0.00027285        0.00009588        0.00000065
     208         -0.609149        2.000000        0.00144433        0.00055097        0.00000314
     209         -0.608882        2.000000        0.00013580        0.00005303        0.00000023
     210         -0.608562        2.000000        0.00000021        0.00000024        0.00000000
     211         -0.608012        2.000000        0.00045251        0.00016281        0.00000113
     212         -0.607014        2.000000        0.00075124        0.00038086        0.00000153
     213         -0.606300        2.000000        0.00122242        0.00039467        0.00000474
     214         -0.605948        2.000000        0.00002313        0.00000960        0.00000007
     215         -0.605403        2.000000        0.00001011        0.00000283        0.00000005
     216         -0.604664        2.000000        0.00479806        0.00141586        0.00002096
     217         -0.604080        2.000000        0.00047919        0.00014520        0.00000207
     218         -0.603538        2.000000        0.00225891        0.00067791        0.00001035
     219         -0.603145        2.000000        0.00004529        0.00003214        0.00000065
     220         -0.602213        2.000000        0.00052435        0.00020296        0.00000174
     221         -0.601871        2.000000        0.00007976        0.00003255        0.00000017
     222         -0.600521        2.000000        0.00042155        0.00012222        0.00000233
     223         -0.599848        2.000000        0.00003383        0.00003322        0.00000009
     224         -0.598111        2.000000        0.00018152        0.00015537        0.00000007
     225         -0.597286        2.000000        0.00008379        0.00009062        0.00000013
     226         -0.597121        2.000000        0.00000365        0.00002564        0.00000003
     227         -0.595585        2.000000        0.00000307        0.00000639        0.00000000
     228         -0.591103        2.000000        0.00000155        0.00000070        0.00000000
     229         -0.582585        2.000000        0.00000003        0.00000003        0.00000000
     230         -0.576283        2.000000        0.00000619        0.00002632        0.00000003
     231         -0.258156        2.000000        0.00000000        0.00000000        0.00000000
     232         -0.253473        2.000000        0.00000000        0.00000000        0.00000000
     233         -0.246233        2.000000        0.00000000        0.00000000        0.00000000
     234         -0.244651        2.000000        0.00000000        0.00000000        0.00000000
     235         -0.243092        2.000000        0.00000000        0.00000000        0.00000000
     236         -0.242544        2.000000        0.00000000        0.00000000        0.00000000
     237         -0.241048        2.000000        0.00000000        0.00000000        0.00000000
     238         -0.240546        2.000000        0.00000003        0.00000018        0.00000000
     239         -0.237982        2.000000        0.00000014        0.00000083        0.00000001
     240         -0.237798        2.000000        0.00000000        0.00000000        0.00000000
     241         -0.236566        2.000000        0.00000000        0.00000000        0.00000000
     242         -0.235920        2.000000        0.00000000        0.00000000        0.00000000
     243         -0.233145        2.000000        0.00000000        0.00000002        0.00000000
     244         -0.232785        2.000000        0.00000001        0.00000005        0.00000000
     245         -0.232224        2.000000        0.00000000        0.00000001        0.00000000
     246         -0.232174        2.000000        0.00000002        0.00000009        0.00000000
     247         -0.232015        2.000000        0.00000001        0.00000006        0.00000000
     248         -0.230744        2.000000        0.00000000        0.00000002        0.00000000
     249         -0.230697        2.000000        0.00000000        0.00000000        0.00000000
     250         -0.229959        2.000000        0.00000016        0.00000107        0.00000002
     251         -0.229741        2.000000        0.00000001        0.00000008        0.00000000
     252         -0.228898        2.000000        0.00000005        0.00000028        0.00000000
     253         -0.227939        2.000000        0.00000086        0.00000543        0.00000006
     254         -0.227542        2.000000        0.00000020        0.00000100        0.00000001
     255         -0.227010        2.000000        0.00000305        0.00002088        0.00000057
     256         -0.226860        2.000000        0.00000004        0.00000021        0.00000000
     257         -0.226780        2.000000        0.00000047        0.00000438        0.00000014
     258         -0.226656        2.000000        0.00000010        0.00000053        0.00000001
     259         -0.226503        2.000000        0.00000081        0.00000301        0.00000007
     260         -0.226036        2.000000        0.00000005        0.00000021        0.00000000
     261         -0.225667        2.000000        0.00000086        0.00000640        0.00000009
     262         -0.225511        2.000000        0.00024541        0.00175150        0.00002495
     263         -0.224716        2.000000        0.00000003        0.00000062        0.00000000
     264         -0.224218        2.000000        0.00000014        0.00000435        0.00000004
     265         -0.223677        2.000000        0.00000001        0.00000006        0.00000000
     266         -0.223438        2.000000        0.00000463        0.00008095        0.00000027
     267         -0.223292        2.000000        0.00011703        0.00266580        0.00000980
     268         -0.223025        2.000000        0.00000038        0.00000545        0.00000003
     269         -0.222436        2.000000        0.00000012        0.00000110        0.00000001
     270         -0.222159        2.000000        0.00000000        0.00000000        0.00000000
     271         -0.221905        2.000000        0.00000021        0.00000190        0.00000004
     272         -0.221185        2.000000        0.00000001        0.00000006        0.00000000
     273         -0.220659        2.000000        0.00000102        0.00000702        0.00000017
     274         -0.219665        2.000000        0.00000125        0.00000863        0.00000022
     275         -0.219630        2.000000        0.00000006        0.00000037        0.00000001
     276         -0.218916        2.000000        0.00000029        0.00000199        0.00000004
     277         -0.218551        2.000000        0.00000054        0.00000357        0.00000006
     278         -0.218398        2.000000        0.00000154        0.00000845        0.00000010
     279         -0.218139        2.000000        0.00003604        0.00020650        0.00000239
     280         -0.217698        2.000000        0.00000460        0.00003629        0.00000093
     281         -0.217580        2.000000        0.00002755        0.00015323        0.00000171
     282         -0.217435        2.000000        0.00000067        0.00000394        0.00000009
     283         -0.216483        2.000000        0.00000122        0.00002376        0.00000015
     284         -0.216363        2.000000        0.00000058        0.00000237        0.00000003
     285         -0.216254        2.000000        0.00000132        0.00000867        0.00000008
     286         -0.215958        2.000000        0.00000057        0.00000321        0.00000003
     287         -0.215645        2.000000        0.00000016        0.00000079        0.00000001
     288         -0.215217        2.000000        0.00009577        0.00036991        0.00000424
     289         -0.214936        2.000000        0.00000446        0.00001522        0.00000027
     290         -0.214221        2.000000        0.00007793        0.00025250        0.00000372
     291         -0.213816        2.000000        0.00000528        0.00004254        0.00000118
     292         -0.213592        2.000000        0.00000002        0.00000015        0.00000001
     293         -0.213468        2.000000        0.00001721        0.00005798        0.00000101
     294         -0.213241        2.000000        0.00000286        0.00001660        0.00000039
     295         -0.213184        2.000000        0.00000008        0.00000026        0.00000001
     296         -0.212817        2.000000        0.00000001        0.00000010        0.00000000
     297         -0.212583        2.000000        0.00000785        0.00005601        0.00000090
     298         -0.212273        2.000000        0.00000006        0.00000026        0.00000000
     299         -0.211896        2.000000        0.00001378        0.00008363        0.00000090
     300         -0.211391        2.000000        0.00000877        0.00002086        0.00000086
     301         -0.211339        2.000000        0.00006525        0.00050832        0.00000986
     302         -0.211269        2.000000        0.00053893        0.00297610        0.00003502
     303         -0.211046        2.000000        0.00000356        0.00002362        0.00000024
     304         -0.210412        2.000000        0.00003436        0.00022433        0.00000240
     305         -0.210309        2.000000        0.00000923        0.00012938        0.00000141
     306         -0.210188        2.000000        0.00019496        0.00096843        0.00001066
     307         -0.210166        2.000000        0.00011060        0.00062377        0.00000696