# Projected DOS for list 212 of 3 atoms, at iteration step i = 0, E(Fermi) =     0.101540 a.u.
#     MO Eigenvalue [a.u.]      Occupation                 s                 p                 d
       1         -0.708367        2.000000        0.00000000        0.00000000        0.00000000
       2         -0.696979        2.000000        0.00000000        0.00000000        0.00000000
       3         -0.695301        2.000000        0.00000000        0.00000000        0.00000000
       4         -0.694902        2.000000        0.00000000        0.00000000        0.00000000
       5         -0.690081        2.000000        0.00000000        0.00000000        0.00000000
       6         -0.686805        2.000000        0.00000000        0.00000001        0.00000000
       7         -0.686571        2.000000        0.00000000        0.00000000        0.00000000
       8         -0.685003        2.000000        0.00000000        0.00000000        0.00000000
       9         -0.684036        2.000000        0.00000001        0.00000001        0.00000000
      10         -0.683920        2.000000        0.00000001        0.00000001        0.00000000
      11         -0.681735        2.000000        0.00000001        0.00000001        0.00000000
      12         -0.679408        2.000000        0.00000000        0.00000000        0.00000000
      13         -0.678932        2.000000        0.00000017        0.00000008        0.00000000
      14         -0.678381        2.000000        0.00000010        0.00000009        0.00000000
      15         -0.677963        2.000000        0.00000000        0.00000000        0.00000000
      16         -0.677540        2.000000        0.00000007        0.00000008        0.00000000
      17         -0.677381        2.000000        0.00000003        0.00000001        0.00000000
      18         -0.677246        2.000000        0.00000011        0.00000011        0.00000000
      19         -0.675827        2.000000        0.00000000        0.00000000        0.00000000
      20         -0.675724        2.000000        0.00000001        0.00000001        0.00000000
      21         -0.674932        2.000000        0.00000000        0.00000000        0.00000000
      22         -0.674380        2.000000        0.00000012        0.00000008        0.00000000
      23         -0.673393        2.000000        0.00000003        0.00000003        0.00000000
      24         -0.672924        2.000000        0.00000024        0.00000017        0.00000000
      25         -0.672289        2.000000        0.00000000        0.00000000        0.00000000
      26         -0.672227        2.000000        0.00000086        0.00000018        0.00000000
      27         -0.671275        2.000000        0.00000017        0.00000003        0.00000000
      28         -0.670770        2.000000        0.00000021        0.00000013        0.00000000
      29         -0.670400        2.000000        0.00000043        0.00000025        0.00000000
      30         -0.669922        2.000000        0.00000141        0.00000070        0.00000000
      31         -0.669606        2.000000        0.00001593        0.00000396        0.00000004
      32         -0.668947        2.000000        0.00001043        0.00000421        0.00000002
      33         -0.668931        2.000000        0.00000079        0.00000159        0.00000000
      34         -0.668431        2.000000        0.00002135        0.00001713        0.00000002
      35         -0.668008        2.000000        0.00014843        0.00013389        0.00000016
      36         -0.667083        2.000000        0.00001474        0.00000849        0.00000002
      37         -0.666996        2.000000        0.00000016        0.00000025        0.00000000
      38         -0.666939        2.000000        0.00000046        0.00000016        0.00000000
      39         -0.666646        2.000000        0.00000015        0.00000062        0.00000000
      40         -0.666363        2.000000        0.00000192        0.00000226        0.00000002
      41         -0.666281        2.000000        0.00000033        0.00000008        0.00000000
      42         -0.666129        2.000000        0.00000086        0.00000706        0.00000002
      43         -0.665867        2.000000        0.00000179        0.00000291        0.00000002
      44         -0.664404        2.000000        0.00000037        0.00000060        0.00000001
      45         -0.664061        2.000000        0.00000011        0.00000084        0.00000001
      46         -0.663948        2.000000        0.00002772        0.00001252        0.00000018
      47         -0.663550        2.000000        0.00001173        0.00000581        0.00000005
      48         -0.662943        2.000000        0.00000221        0.00000020        0.00000000
      49         -0.662627        2.000000        0.00000653        0.00000406        0.00000004
      50         -0.661965        2.000000        0.00017107        0.00008615        0.00000079
      51         -0.661528        2.000000        0.00001589        0.00000362        0.00000004
      52         -0.660900        2.000000        0.00003483        0.00002028        0.00000020
      53         -0.660166        2.000000        0.00000231        0.00000101        0.00000001
      54         -0.659683        2.000000        0.00000022        0.00000029        0.00000001
      55         -0.658835        2.000000        0.00000011        0.00000090        0.00000001
      56         -0.658814        2.000000        0.00000710        0.00000106        0.00000003
      57         -0.658691        2.000000        0.00000879        0.00000398        0.00000006
      58         -0.658084        2.000000        0.00000155        0.00000316        0.00000007
      59         -0.658073        2.000000        0.00000153        0.00000298        0.00000006
      60         -0.657975        2.000000        0.00052936        0.00006949        0.00000087
      61         -0.657678        2.000000        0.00000116        0.00000444        0.00000007
      62         -0.657592        2.000000        0.00007529        0.00001157        0.00000019
      63         -0.657226        2.000000        0.00002203        0.00000284        0.00000006
      64         -0.657087        2.000000        0.00005004        0.00001358        0.00000018
      65         -0.656742        2.000000        0.00160816        0.00023426        0.00000321
      66         -0.656449        2.000000        0.00190246        0.00030518        0.00000471
      67         -0.656215        2.000000        0.00081732        0.00012057        0.00000158
      68         -0.655700        2.000000        0.00032629        0.00017719        0.00000343
      69         -0.655174        2.000000        0.00009541        0.00002732        0.00000028
      70         -0.654827        2.000000        0.00008658        0.00000755        0.00000025
      71         -0.654660        2.000000        0.00049383        0.00014506        0.00000178
      72         -0.654406        2.000000        0.00013581        0.00001125        0.00000028
      73         -0.654250        2.000000        0.00001906        0.00000421        0.00000008
      74         -0.653619        2.000000        0.00025849        0.00007316        0.00000069
      75         -0.653105        2.000000        0.00608120        0.00152750        0.00001241
      76         -0.652904        2.000000        0.00125519        0.00050325        0.00001008
      77         -0.652612        2.000000        0.00004633        0.00004192        0.00000031
      78         -0.652411        2.000000        0.00000989        0.00000538        0.00000004
      79         -0.652213        2.000000        0.00137258        0.00023389        0.00000391
      80         -0.652083        2.000000        0.00960540        0.00231792        0.00003040
      81         -0.651807        2.000000        0.00674926        0.00154519        0.00002596
      82         -0.651706        2.000000        0.00141574        0.00031919        0.00000562
      83         -0.651237        2.000000        0.00226525        0.00042249        0.00000214
      84         -0.651053        2.000000        0.00270161        0.00080715        0.00001448
      85         -0.650411        2.000000        0.00065614        0.00012925        0.00000038
      86         -0.650326        2.000000        0.00062196        0.00011532        0.00000116
      87         -0.650219        2.000000        0.00000815        0.00003660        0.00000082
      88         -0.650130        2.000000        0.00165041        0.00035939        0.00000389
      89         -0.649849        2.000000        0.00024247        0.00023316        0.00000616
      90         -0.649510        2.000000        0.00000674        0.00003947        0.00000041
      91         -0.648737        2.000000        0.00102387        0.00035356        0.00000089
      92         -0.648608        2.000000        0.00020159        0.00018767        0.00000274
      93         -0.648509        2.000000        0.00005933        0.00009661        0.00000064
      94         -0.648091        2.000000        0.00293541        0.00038809        0.00000677
      95         -0.647956        2.000000        0.00054743        0.00006627        0.00000150
      96         -0.647875        2.000000        0.00014742        0.00004326        0.00000011
      97         -0.647628        2.000000        0.00001574        0.00000328        0.00000004
      98         -0.647248        2.000000        0.00012722        0.00003979        0.00000030
      99         -0.646997        2.000000        0.00000075        0.00000200        0.00000010
     100         -0.646893        2.000000        0.00000062        0.00000257        0.00000002
     101         -0.646794        2.000000        0.00022931        0.00015656        0.00000375
     102         -0.645843        2.000000        0.00757307        0.00134776        0.00002681
     103         -0.645519        2.000000        0.00265313        0.00040948        0.00000262
     104         -0.645232        2.000000        0.00175807        0.00053995        0.00000513
     105         -0.644964        2.000000        0.00063240        0.00012268        0.00000074
     106         -0.644451        2.000000        0.00557871        0.00146520        0.00000574
     107         -0.644170        2.000000        0.00165040        0.00019052        0.00000460
     108         -0.643891        2.000000        0.00205160        0.00055425        0.00000494
     109         -0.643862        2.000000        0.00076783        0.00018179        0.00000504
     110         -0.643478        2.000000        0.00165881        0.00023226        0.00000267
     111         -0.643325        2.000000        0.00324606        0.00051888        0.00000387
     112         -0.642934        2.000000        0.00022460        0.00047355        0.00000562
     113         -0.642899        2.000000        0.00000134        0.00000079        0.00000003
     114         -0.642460        2.000000        0.00007825        0.00001572        0.00000009
     115         -0.642175        2.000000        0.00487374        0.00080639        0.00000593
     116         -0.642120        2.000000        0.00008889        0.00003076        0.00000007
     117         -0.641851        2.000000        0.00352434        0.00060551        0.00000934
     118         -0.641683        2.000000        0.00654994        0.00125487        0.00000662
     119         -0.641305        2.000000        0.00006714        0.00067894        0.00001624
     120         -0.641072        2.000000        0.01831424        0.00256836        0.00003386
     121         -0.640960        2.000000        0.01466774        0.00233605        0.00002543
     122         -0.640793        2.000000        0.00073849        0.00042063        0.00000158
     123         -0.640578        2.000000        0.01684898        0.00271972        0.00003284
     124         -0.640464        2.000000        0.00617362        0.00092113        0.00002224
     125         -0.640169        2.000000        0.04223147        0.00769195        0.00007962
     126         -0.639736        2.000000        0.00743564        0.00120931        0.00002384
     127         -0.639499        2.000000        0.00716345        0.00273130        0.00000992
     128         -0.639154        2.000000        0.00032076        0.00055356        0.00000520
     129         -0.639060        2.000000        0.00004405        0.00013454        0.00000134
     130         -0.638976        2.000000        0.00007994        0.00009348        0.00000174
     131         -0.638593        2.000000        0.00002399        0.00026145        0.00000378
     132         -0.638261        2.000000        0.00000260        0.00001958        0.00000026
     133         -0.638059        2.000000        0.00021814        0.00149100        0.00001235
     134         -0.637912        2.000000        0.00192144        0.00293214        0.00004004
     135         -0.637762        2.000000        0.00004399        0.00019778        0.00000238
     136         -0.637584        2.000000        0.00266937        0.00043844        0.00001192
     137         -0.636804        2.000000        0.00000895        0.00000428        0.00000006
     138         -0.636640        2.000000        0.00129786        0.00037875        0.00001580
     139         -0.636429        2.000000        0.00010709        0.00067450        0.00001375
     140         -0.635515        2.000000        0.00030484        0.00101316        0.00002372
     141         -0.634989        2.000000        0.00026301        0.00033380        0.00000293
     142         -0.634462        2.000000        0.00447046        0.00074156        0.00002136
     143         -0.634132        2.000000        0.00022418        0.00032698        0.00000313
     144         -0.633763        2.000000        0.00034940        0.00067077        0.00000914
     145         -0.633531        2.000000        0.00001082        0.00000174        0.00000003
     146         -0.632585        2.000000        0.00038240        0.00018325        0.00000031
     147         -0.632333        2.000000        0.02084035        0.00481742        0.00002778
     148         -0.632031        2.000000        0.00246857        0.00088937        0.00000357
     149         -0.631841        2.000000        0.00150533        0.00088665        0.00000522
     150         -0.631318        2.000000        0.01071790        0.00339781        0.00001452
     151         -0.630640        2.000000        0.06763390        0.02316977        0.00007775
     152         -0.630519        2.000000        0.00933088        0.00306294        0.00001222
     153         -0.630490        2.000000        0.00557889        0.00185791        0.00000686
     154         -0.629959        2.000000        0.00121035        0.00049501        0.00000171
     155         -0.629452        2.000000        0.00146490        0.00054224        0.00000181
     156         -0.629210        2.000000        0.00165038        0.00055691        0.00000194
     157         -0.628856        2.000000        0.00010783        0.00006024        0.00000023
     158         -0.628516        2.000000        0.00195414        0.00101268        0.00000243
     159         -0.628511        2.000000        0.00103596        0.00072937        0.00000195
     160         -0.628382        2.000000        0.00161421        0.00031690        0.00000415
     161         -0.628242        2.000000        0.00012314        0.00016714        0.00000101
     162         -0.628026        2.000000        0.01666701        0.00713269        0.00001428
     163         -0.627712        2.000000        0.00107513        0.00044092        0.00000431
     164         -0.627438        2.000000        0.00297987        0.00050022        0.00001152
     165         -0.627281        2.000000        0.00006412        0.00010116        0.00000358
     166         -0.626983        2.000000        0.00208181        0.00057872        0.00000512
     167         -0.626804        2.000000        0.00163932        0.00028926        0.00000896
     168         -0.626588        2.000000        0.00181551        0.00108160        0.00000569
     169         -0.626019        2.000000        0.00000125        0.00000985        0.00000023
     170         -0.625843        2.000000        0.00010972        0.00002751        0.00000097
     171         -0.625019        2.000000        0.00046555        0.00013894        0.00000091
     172         -0.624831        2.000000        0.00203395        0.00056743        0.00000417
     173         -0.624166        2.000000        0.00566557        0.00163770        0.00000698
     174         -0.623906        2.000000        0.00038180        0.00013372        0.00000050
     175         -0.623799        2.000000        0.00114418        0.00042106        0.00000113
     176         -0.623716        2.000000        0.00001742        0.00001913        0.00000126
     177         -0.623382        2.000000        0.00041075        0.00074776        0.00000521
     178         -0.623067        2.000000        0.00007097        0.00002340        0.00000008
     179         -0.622801        2.000000        0.01623917        0.00557575        0.00001653
     180         -0.622617        2.000000        0.00351354        0.00121083        0.00000433
     181         -0.622499        2.000000        0.00002575        0.00004140        0.00000259
     182         -0.621672        2.000000        0.00741727        0.00212635        0.00001144
     183         -0.621151        2.000000        0.00782405        0.00247623        0.00001037
     184         -0.620781        2.000000        0.01443740        0.00462001        0.00001809
     185         -0.620579        2.000000        0.01516152        0.00402662        0.00003627
     186         -0.619930        2.000000        0.00253445        0.00074967        0.00000656
     187         -0.618694        2.000000        0.00000027        0.00000035        0.00000002
     188         -0.618461        2.000000        0.00013309        0.00004070        0.00000036
     189         -0.618211        2.000000        0.00004113        0.00000844        0.00000034
     190         -0.617957        2.000000        0.00678974        0.00148222        0.00003739
     191         -0.617770        2.000000        0.00237169        0.00059482        0.00001177
     192         -0.617636        2.000000        0.06087944        0.01624997        0.00023020
     193         -0.617200        2.000000        0.02697806        0.00964949        0.00006495
     194         -0.616810        2.000000        0.02357460        0.00753742        0.00008664
     195         -0.615618        2.000000        0.00542001        0.00248487        0.00001870
     196         -0.615377        2.000000        0.00138276        0.00033147        0.00000464
     197         -0.615228        2.000000        0.00218111        0.00133140        0.00000317
     198         -0.614941        2.000000        0.00003722        0.00000831        0.00000015
     199         -0.613862        2.000000        0.00051610        0.00019815        0.00000155
     200         -0.613167        2.000000        0.02291326        0.00611032        0.00007371
     201         -0.612937        2.000000        0.00032872        0.00008841        0.00000093
     202         -0.612465        2.000000        0.14844254        0.03895102        0.00045693
     203         -0.611371        2.000000        0.00219458        0.00052049        0.00000842
     204         -0.611273        2.000000        0.00006851        0.00001667        0.00000041
     205         -0.610903        2.000000        0.00081648        0.00030014        0.00000262
     206         -0.609912        2.000000        0.00992233        0.00302745        0.00002593
     207         -0.609442        2.000000        0.00029693        0.00008867        0.00000077
     208         -0.609149        2.000000        0.00087261        0.00019069        0.00000465
     209         -0.608882        2.000000        0.00010496        0.00002764        0.00000050
     210         -0.608562        2.000000        0.00000452        0.00000327        0.00000000
     211         -0.608012        2.000000        0.00000372        0.00002267        0.00000047
     212         -0.607014        2.000000        0.00657089        0.00174789        0.00002894
     213         -0.606300        2.000000        0.00001710        0.00001936        0.00000066
     214         -0.605948        2.000000        0.00002290        0.00000963        0.00000004
     215         -0.605403        2.000000        0.00001586        0.00000685        0.00000006
     216         -0.604664        2.000000        0.00001594        0.00003778        0.00000203
     217         -0.604080        2.000000        0.00002005        0.00000626        0.00000020
     218         -0.603538        2.000000        0.00007519        0.00002761        0.00000115
     219         -0.603145        2.000000        0.00085279        0.00022251        0.00000581
     220         -0.602213        2.000000        0.00004332        0.00006343        0.00000044
     221         -0.601871        2.000000        0.00021589        0.00021363        0.00000137
     222         -0.600521        2.000000        0.00001516        0.00000543        0.00000019
     223         -0.599848        2.000000        0.00001415        0.00005847        0.00000110
     224         -0.598111        2.000000        0.00296385        0.00098347        0.00001470
     225         -0.597286        2.000000        0.00035194        0.00021253        0.00000262
     226         -0.597121        2.000000        0.00002251        0.00008744        0.00000166
     227         -0.595585        2.000000        0.00001795        0.00001629        0.00000010
     228         -0.591103        2.000000        0.00000988        0.00002206        0.00000022
     229         -0.582585        2.000000        0.00000043        0.00000034        0.00000000
     230         -0.576283        2.000000        0.00000949        0.00003074        0.00000026
     231         -0.258156        2.000000        0.00000000        0.00000000        0.00000000
     232         -0.253473        2.000000        0.00000000        0.00000000        0.00000000
     233         -0.246233        2.000000        0.00000000        0.00000000        0.00000000
     234         -0.244651        2.000000        0.00000000        0.00000000        0.00000000
     235         -0.243092        2.000000        0.00000000        0.00000000        0.00000000
     236         -0.242544        2.000000        0.00000001        0.00000003        0.00000000
     237         -0.241048        2.000000        0.00000000        0.00000000        0.00000000
     238         -0.240546        2.000000        0.00000000        0.00000000        0.00000000
     239         -0.237982        2.000000        0.00000000        0.00000000        0.00000000
     240         -0.237798        2.000000        0.00000000        0.00000000        0.00000000
     241         -0.236566        2.000000        0.00000000        0.00000000        0.00000000
     242         -0.235920        2.000000        0.00000000        0.00000000        0.00000000
     243         -0.233145        2.000000        0.00000000        0.00000000        0.00000000
     244         -0.232785        2.000000        0.00000000        0.00000000        0.00000000
     245         -0.232224        2.000000        0.00000000        0.00000000        0.00000000
     246         -0.232174        2.000000        0.00000001        0.00000004        0.00000000
     247         -0.232015        2.000000        0.00000000        0.00000001        0.00000000
     248         -0.230744        2.000000        0.00000001        0.00000013        0.00000000
     249         -0.230697        2.000000        0.00000000        0.00000000        0.00000000
     250         -0.229959        2.000000        0.00000000        0.00000001        0.00000000
     251         -0.229741        2.000000        0.00000000        0.00000000        0.00000000
     252         -0.228898        2.000000        0.00000000        0.00000000        0.00000000
     253         -0.227939        2.000000        0.00000003        0.00000011        0.00000000
     254         -0.227542        2.000000        0.00000001        0.00000003        0.00000000
     255         -0.227010        2.000000        0.00000009        0.00000045        0.00000001
     256         -0.226860        2.000000        0.00000058        0.00000181        0.00000003
     257         -0.226780        2.000000        0.00000001        0.00000005        0.00000000
     258         -0.226656        2.000000        0.00000000        0.00000002        0.00000000
     259         -0.226503        2.000000        0.00002244        0.00011340        0.00000078
     260         -0.226036        2.000000        0.00000000        0.00000000        0.00000000
     261         -0.225667        2.000000        0.00000032        0.00000154        0.00000001
     262         -0.225511        2.000000        0.00000442        0.00001524        0.00000019
     263         -0.224716        2.000000        0.00000001        0.00000010        0.00000000
     264         -0.224218        2.000000        0.00000029        0.00000144        0.00000002
     265         -0.223677        2.000000        0.00000001        0.00000003        0.00000000
     266         -0.223438        2.000000        0.00000355        0.00001875        0.00000019
     267         -0.223292        2.000000        0.00013972        0.00069067        0.00000775
     268         -0.223025        2.000000        0.00000020        0.00000104        0.00000001
     269         -0.222436        2.000000        0.00000002        0.00000013        0.00000000
     270         -0.222159        2.000000        0.00000001        0.00000003        0.00000000
     271         -0.221905        2.000000        0.00000009        0.00000036        0.00000001
     272         -0.221185        2.000000        0.00000049        0.00000135        0.00000003
     273         -0.220659        2.000000        0.00000013        0.00000047        0.00000001
     274         -0.219665        2.000000        0.00000006        0.00000032        0.00000000
     275         -0.219630        2.000000        0.00000006        0.00000018        0.00000000
     276         -0.218916        2.000000        0.00000009        0.00000042        0.00000000
     277         -0.218551        2.000000        0.00000003        0.00000012        0.00000000
     278         -0.218398        2.000000        0.00000017        0.00000053        0.00000001
     279         -0.218139        2.000000        0.00000036        0.00000117        0.00000002
     280         -0.217698        2.000000        0.00000008        0.00000057        0.00000001
     281         -0.217580        2.000000        0.00000005        0.00000058        0.00000002
     282         -0.217435        2.000000        0.00000007        0.00000023        0.00000000
     283         -0.216483        2.000000        0.00000168        0.00000724        0.00000008
     284         -0.216363        2.000000        0.00000124        0.00000331        0.00000005
     285         -0.216254        2.000000        0.00000124        0.00000398        0.00000007
     286         -0.215958        2.000000        0.00000025        0.00000213        0.00000002
     287         -0.215645        2.000000        0.00000016        0.00000062        0.00000001
     288         -0.215217        2.000000        0.00000958        0.00004769        0.00000052
     289         -0.214936        2.000000        0.00000013        0.00000061        0.00000002
     290         -0.214221        2.000000        0.00000496        0.00001474        0.00000038
     291         -0.213816        2.000000        0.00000130        0.00000424        0.00000006
     292         -0.213592        2.000000        0.00000001        0.00000004        0.00000000
     293         -0.213468        2.000000        0.00000145        0.00000407        0.00000010
     294         -0.213241        2.000000        0.00000448        0.00001344        0.00000029
     295         -0.213184        2.000000        0.00000000        0.00000005        0.00000000
     296         -0.212817        2.000000        0.00000016        0.00000046        0.00000002
     297         -0.212583        2.000000        0.00000615        0.00002076        0.00000034
     298         -0.212273        2.000000        0.00000001        0.00000008        0.00000000
     299         -0.211896        2.000000        0.00002624        0.00008704        0.00000140
     300         -0.211391        2.000000        0.00000170        0.00000794        0.00000008
     301         -0.211339        2.000000        0.00000679        0.00002674        0.00000036
     302         -0.211269        2.000000        0.00000845        0.00002073        0.00000039
     303         -0.211046        2.000000        0.00001389        0.00004150        0.00000081
     304         -0.210412        2.000000        0.00079013        0.00225841        0.00004505
     305         -0.210309        2.000000        0.00007407        0.00021827        0.00000417
     306         -0.210188        2.000000        0.00029211        0.00081348        0.00001653
     307         -0.210166        2.000000        0.00007933        0.00021497        0.00000451