# Projected DOS for list 106 of 3 atoms, at iteration step i = 0, E(Fermi) =     0.101540 a.u.
#     MO Eigenvalue [a.u.]      Occupation                 s                 p                 d
       1         -0.708367        2.000000        0.00000000        0.00000000        0.00000000
       2         -0.696979        2.000000        0.00000000        0.00000000        0.00000000
       3         -0.695301        2.000000        0.00000000        0.00000000        0.00000000
       4         -0.694902        2.000000        0.00000603        0.00000088        0.00000002
       5         -0.690081        2.000000        0.05204175        0.01514743        0.00037906
       6         -0.686805        2.000000        0.00000000        0.00000000        0.00000000
       7         -0.686571        2.000000        0.00000000        0.00000000        0.00000000
       8         -0.685003        2.000000        0.00000000        0.00000000        0.00000000
       9         -0.684036        2.000000        0.00000000        0.00000000        0.00000000
      10         -0.683920        2.000000        0.00055078        0.00288885        0.00002358
      11         -0.681735        2.000000        0.00000000        0.00000000        0.00000000
      12         -0.679408        2.000000        0.00000000        0.00000000        0.00000000
      13         -0.678932        2.000000        0.00028449        0.00006407        0.00000200
      14         -0.678381        2.000000        0.00000000        0.00000000        0.00000000
      15         -0.677963        2.000000        0.00000000        0.00000000        0.00000000
      16         -0.677540        2.000000        0.00000000        0.00000000        0.00000000
      17         -0.677381        2.000000        0.00003126        0.00000573        0.00000017
      18         -0.677246        2.000000        0.00000000        0.00000000        0.00000000
      19         -0.675827        2.000000        0.00000000        0.00000000        0.00000000
      20         -0.675724        2.000000        0.00726821        0.00132589        0.00004840
      21         -0.674932        2.000000        0.00008375        0.00003370        0.00000005
      22         -0.674380        2.000000        0.00000000        0.00000000        0.00000000
      23         -0.673393        2.000000        0.00000000        0.00000000        0.00000000
      24         -0.672924        2.000000        0.00047490        0.00260158        0.00002079
      25         -0.672289        2.000000        0.00000000        0.00000000        0.00000000
      26         -0.672227        2.000000        0.00000002        0.00000001        0.00000000
      27         -0.671275        2.000000        0.00058094        0.00124322        0.00001554
      28         -0.670770        2.000000        0.00000000        0.00000000        0.00000000
      29         -0.670400        2.000000        0.00000000        0.00000000        0.00000000
      30         -0.669922        2.000000        0.00000000        0.00000000        0.00000000
      31         -0.669606        2.000000        0.00000120        0.00000277        0.00000002
      32         -0.668947        2.000000        0.00002552        0.00001679        0.00000018
      33         -0.668931        2.000000        0.00004100        0.00003002        0.00000031
      34         -0.668431        2.000000        0.00000007        0.00000006        0.00000000
      35         -0.668008        2.000000        0.00000160        0.00000023        0.00000000
      36         -0.667083        2.000000        0.00000314        0.00000048        0.00000001
      37         -0.666996        2.000000        0.01426476        0.00287088        0.00006202
      38         -0.666939        2.000000        0.00000235        0.00000040        0.00000001
      39         -0.666646        2.000000        0.00002146        0.00000283        0.00000006
      40         -0.666363        2.000000        0.00000603        0.00000074        0.00000001
      41         -0.666281        2.000000        0.00056994        0.00005305        0.00000218
      42         -0.666129        2.000000        0.00000189        0.00000021        0.00000001
      43         -0.665867        2.000000        0.00000013        0.00000003        0.00000000
      44         -0.664404        2.000000        0.00542216        0.00116271        0.00000560
      45         -0.664061        2.000000        0.00002214        0.00000415        0.00000003
      46         -0.663948        2.000000        0.00025293        0.00004567        0.00000055
      47         -0.663550        2.000000        0.00000609        0.00000109        0.00000001
      48         -0.662943        2.000000        0.00101750        0.00020742        0.00000119
      49         -0.662627        2.000000        0.00000000        0.00000000        0.00000000
      50         -0.661965        2.000000        0.00000030        0.00000017        0.00000000
      51         -0.661528        2.000000        0.00278903        0.00080370        0.00001661
      52         -0.660900        2.000000        0.00006220        0.00004898        0.00000022
      53         -0.660166        2.000000        0.00000003        0.00000001        0.00000000
      54         -0.659683        2.000000        0.00200742        0.00035731        0.00000497
      55         -0.658835        2.000000        0.00000202        0.00000025        0.00000001
      56         -0.658814        2.000000        0.00354956        0.00059817        0.00001288
      57         -0.658691        2.000000        0.02214875        0.00509106        0.00009105
      58         -0.658084        2.000000        0.00197245        0.00045964        0.00000692
      59         -0.658073        2.000000        0.00589949        0.00137575        0.00002078
      60         -0.657975        2.000000        0.00001372        0.00000346        0.00000006
      61         -0.657678        2.000000        0.00000319        0.00000085        0.00000002
      62         -0.657592        2.000000        0.00000653        0.00000153        0.00000002
      63         -0.657226        2.000000        0.00003381        0.00019065        0.00000301
      64         -0.657087        2.000000        0.00000367        0.00000100        0.00000001
      65         -0.656742        2.000000        0.00005474        0.00001372        0.00000015
      66         -0.656449        2.000000        0.00010342        0.00002448        0.00000029
      67         -0.656215        2.000000        0.00043925        0.00010029        0.00000127
      68         -0.655700        2.000000        0.00101606        0.00022154        0.00000282
      69         -0.655174        2.000000        0.00041662        0.00049414        0.00000226
      70         -0.654827        2.000000        0.00000061        0.00000185        0.00000001
      71         -0.654660        2.000000        0.00828833        0.00308617        0.00000892
      72         -0.654406        2.000000        0.00005100        0.00001350        0.00000009
      73         -0.654250        2.000000        0.00000695        0.00000261        0.00000001
      74         -0.653619        2.000000        0.06231559        0.01175451        0.00020715
      75         -0.653105        2.000000        0.00090836        0.00029107        0.00000585
      76         -0.652904        2.000000        0.00003747        0.00025991        0.00000090
      77         -0.652612        2.000000        0.00002033        0.00000443        0.00000005
      78         -0.652411        2.000000        0.00000001        0.00000005        0.00000000
      79         -0.652213        2.000000        0.00203429        0.00043401        0.00000993
      80         -0.652083        2.000000        0.00004734        0.00001361        0.00000016
      81         -0.651807        2.000000        0.00566263        0.00139355        0.00002983
      82         -0.651706        2.000000        0.03099569        0.00700794        0.00015411
      83         -0.651237        2.000000        0.00011389        0.00004004        0.00000066
      84         -0.651053        2.000000        0.00017437        0.00004931        0.00000096
      85         -0.650411        2.000000        0.00135356        0.00035222        0.00000881
      86         -0.650326        2.000000        0.00023723        0.00008405        0.00000204
      87         -0.650219        2.000000        0.00001655        0.00000482        0.00000010
      88         -0.650130        2.000000        0.00001630        0.00001236        0.00000004
      89         -0.649849        2.000000        0.00004217        0.00003545        0.00000026
      90         -0.649510        2.000000        0.00000091        0.00000198        0.00000001
      91         -0.648737        2.000000        0.00009098        0.00003954        0.00000011
      92         -0.648608        2.000000        0.00023323        0.00011978        0.00000015
      93         -0.648509        2.000000        0.00000090        0.00000270        0.00000001
      94         -0.648091        2.000000        0.00002481        0.00016209        0.00000122
      95         -0.647956        2.000000        0.00000635        0.00010482        0.00000158
      96         -0.647875        2.000000        0.00000113        0.00000168        0.00000002
      97         -0.647628        2.000000        0.00000031        0.00000100        0.00000001
      98         -0.647248        2.000000        0.00000109        0.00000106        0.00000001
      99         -0.646997        2.000000        0.00025188        0.00059103        0.00000723
     100         -0.646893        2.000000        0.00100637        0.00121483        0.00001635
     101         -0.646794        2.000000        0.00001055        0.00000746        0.00000004
     102         -0.645843        2.000000        0.00001392        0.00005221        0.00000032
     103         -0.645519        2.000000        0.00000118        0.00000370        0.00000003
     104         -0.645232        2.000000        0.00000092        0.00000586        0.00000003
     105         -0.644964        2.000000        0.00000014        0.00000008        0.00000000
     106         -0.644451        2.000000        0.00000237        0.00001062        0.00000012
     107         -0.644170        2.000000        0.00000414        0.00000215        0.00000003
     108         -0.643891        2.000000        0.00011316        0.00007242        0.00000155
     109         -0.643862        2.000000        0.00007411        0.00004114        0.00000069
     110         -0.643478        2.000000        0.00000390        0.00001154        0.00000001
     111         -0.643325        2.000000        0.00004991        0.00011862        0.00000032
     112         -0.642934        2.000000        0.00017451        0.00010090        0.00000139
     113         -0.642899        2.000000        0.00000020        0.00000019        0.00000000
     114         -0.642460        2.000000        0.00000008        0.00000046        0.00000000
     115         -0.642175        2.000000        0.00018785        0.00130045        0.00000402
     116         -0.642120        2.000000        0.00000210        0.00001768        0.00000006
     117         -0.641851        2.000000        0.00000415        0.00000528        0.00000000
     118         -0.641683        2.000000        0.00000420        0.00004079        0.00000018
     119         -0.641305        2.000000        0.00003193        0.00024686        0.00000077
     120         -0.641072        2.000000        0.00000287        0.00001452        0.00000012
     121         -0.640960        2.000000        0.00007794        0.00044942        0.00000067
     122         -0.640793        2.000000        0.00018525        0.00015682        0.00000012
     123         -0.640578        2.000000        0.00004235        0.00001857        0.00000002
     124         -0.640464        2.000000        0.00000118        0.00001653        0.00000027
     125         -0.640169        2.000000        0.00032178        0.00025971        0.00000030
     126         -0.639736        2.000000        0.00186113        0.00110287        0.00000098
     127         -0.639499        2.000000        0.00055853        0.00033659        0.00000029
     128         -0.639154        2.000000        0.00001166        0.00007304        0.00000039
     129         -0.639060        2.000000        0.00006824        0.00062305        0.00000243
     130         -0.638976        2.000000        0.00005246        0.00010650        0.00000026
     131         -0.638593        2.000000        0.00035736        0.00018213        0.00000019
     132         -0.638261        2.000000        0.00000273        0.00000244        0.00000001
     133         -0.638059        2.000000        0.00006025        0.00002544        0.00000003
     134         -0.637912        2.000000        0.00002209        0.00001850        0.00000002
     135         -0.637762        2.000000        0.00000065        0.00000186        0.00000000
     136         -0.637584        2.000000        0.00036684        0.00047171        0.00000215
     137         -0.636804        2.000000        0.00000020        0.00000008        0.00000000
     138         -0.636640        2.000000        0.00106266        0.00025361        0.00000186
     139         -0.636429        2.000000        0.00032909        0.00011513        0.00000068
     140         -0.635515        2.000000        0.00008800        0.00009180        0.00000032
     141         -0.634989        2.000000        0.00003075        0.00001570        0.00000007
     142         -0.634462        2.000000        0.00000641        0.00000240        0.00000001
     143         -0.634132        2.000000        0.00004870        0.00001583        0.00000009
     144         -0.633763        2.000000        0.00164871        0.00052357        0.00000307
     145         -0.633531        2.000000        0.00000067        0.00000020        0.00000000
     146         -0.632585        2.000000        0.00007026        0.00002291        0.00000011
     147         -0.632333        2.000000        0.00004664        0.00003283        0.00000002
     148         -0.632031        2.000000        0.01394871        0.00510553        0.00002274
     149         -0.631841        2.000000        0.00054655        0.00020277        0.00000057
     150         -0.631318        2.000000        0.00006011        0.00002520        0.00000008
     151         -0.630640        2.000000        0.00023939        0.00010017        0.00000032
     152         -0.630519        2.000000        0.00000250        0.00000140        0.00000000
     153         -0.630490        2.000000        0.00000690        0.00000253        0.00000000
     154         -0.629959        2.000000        0.00303058        0.00099805        0.00000344
     155         -0.629452        2.000000        0.00004304        0.00001172        0.00000009
     156         -0.629210        2.000000        0.00000028        0.00000006        0.00000000
     157         -0.628856        2.000000        0.45247454        0.15469600        0.00048442
     158         -0.628516        2.000000        0.00123014        0.00043023        0.00000137
     159         -0.628511        2.000000        0.00046143        0.00015436        0.00000053
     160         -0.628382        2.000000        0.00285859        0.00096044        0.00000316
     161         -0.628242        2.000000        0.00453561        0.00162889        0.00000522
     162         -0.628026        2.000000        0.00558367        0.00197440        0.00000628
     163         -0.627712        2.000000        0.00155026        0.00054482        0.00000174
     164         -0.627438        2.000000        0.00043442        0.00014552        0.00000048
     165         -0.627281        2.000000        0.00046169        0.00016244        0.00000051
     166         -0.626983        2.000000        0.00108345        0.00038235        0.00000119
     167         -0.626804        2.000000        0.00000530        0.00001181        0.00000001
     168         -0.626588        2.000000        0.00000490        0.00000139        0.00000001
     169         -0.626019        2.000000        0.01680262        0.00664621        0.00001354
     170         -0.625843        2.000000        0.00000009        0.00000020        0.00000000
     171         -0.625019        2.000000        0.00003930        0.00001275        0.00000005
     172         -0.624831        2.000000        0.00050018        0.00018758        0.00000048
     173         -0.624166        2.000000        0.00095930        0.00046425        0.00000105
     174         -0.623906        2.000000        0.00001493        0.00000712        0.00000002
     175         -0.623799        2.000000        0.00006864        0.00003241        0.00000012
     176         -0.623716        2.000000        0.00002211        0.00000902        0.00000003
     177         -0.623382        2.000000        0.00035113        0.00014848        0.00000036
     178         -0.623067        2.000000        0.00000017        0.00000007        0.00000000
     179         -0.622801        2.000000        0.00007220        0.00002835        0.00000009
     180         -0.622617        2.000000        0.00063990        0.00024089        0.00000076
     181         -0.622499        2.000000        0.00007533        0.00002791        0.00000009
     182         -0.621672        2.000000        0.00001209        0.00000425        0.00000002
     183         -0.621151        2.000000        0.00001852        0.00000698        0.00000002
     184         -0.620781        2.000000        0.00004511        0.00001760        0.00000006
     185         -0.620579        2.000000        0.00000620        0.00000210        0.00000001
     186         -0.619930        2.000000        0.00000000        0.00000009        0.00000000
     187         -0.618694        2.000000        0.00000001        0.00000000        0.00000000
     188         -0.618461        2.000000        0.00001865        0.00000917        0.00000004
     189         -0.618211        2.000000        0.00000000        0.00000001        0.00000000
     190         -0.617957        2.000000        0.00000261        0.00000162        0.00000000
     191         -0.617770        2.000000        0.00000104        0.00000073        0.00000000
     192         -0.617636        2.000000        0.00000553        0.00000267        0.00000001
     193         -0.617200        2.000000        0.00000571        0.00000300        0.00000000
     194         -0.616810        2.000000        0.00006687        0.00003463        0.00000006
     195         -0.615618        2.000000        0.00037438        0.00019772        0.00000051
     196         -0.615377        2.000000        0.00000407        0.00000218        0.00000001
     197         -0.615228        2.000000        0.00030713        0.00016615        0.00000044
     198         -0.614941        2.000000        0.00000004        0.00000002        0.00000000
     199         -0.613862        2.000000        0.00000149        0.00000080        0.00000000
     200         -0.613167        2.000000        0.00000049        0.00000024        0.00000000
     201         -0.612937        2.000000        0.00000000        0.00000000        0.00000000
     202         -0.612465        2.000000        0.00000000        0.00000000        0.00000000
     203         -0.611371        2.000000        0.00001351        0.00000841        0.00000003
     204         -0.611273        2.000000        0.00015023        0.00009305        0.00000030
     205         -0.610903        2.000000        0.00000563        0.00000349        0.00000001
     206         -0.609912        2.000000        0.00000008        0.00000005        0.00000000
     207         -0.609442        2.000000        0.00000000        0.00000000        0.00000000
     208         -0.609149        2.000000        0.00000048        0.00000031        0.00000000
     209         -0.608882        2.000000        0.00000120        0.00000082        0.00000000
     210         -0.608562        2.000000        0.00012085        0.00008361        0.00000037
     211         -0.608012        2.000000        0.00000008        0.00000007        0.00000000
     212         -0.607014        2.000000        0.00000003        0.00000002        0.00000000
     213         -0.606300        2.000000        0.00000000        0.00000000        0.00000000
     214         -0.605948        2.000000        0.00000000        0.00000000        0.00000000
     215         -0.605403        2.000000        0.00000000        0.00000000        0.00000000
     216         -0.604664        2.000000        0.00000000        0.00000000        0.00000000
     217         -0.604080        2.000000        0.00000000        0.00000000        0.00000000
     218         -0.603538        2.000000        0.00000000        0.00000001        0.00000000
     219         -0.603145        2.000000        0.00000000        0.00000000        0.00000000
     220         -0.602213        2.000000        0.00000000        0.00000001        0.00000000
     221         -0.601871        2.000000        0.00000003        0.00000003        0.00000000
     222         -0.600521        2.000000        0.00000000        0.00000000        0.00000000
     223         -0.599848        2.000000        0.00000000        0.00000001        0.00000000
     224         -0.598111        2.000000        0.00000001        0.00000000        0.00000000
     225         -0.597286        2.000000        0.00000001        0.00000000        0.00000000
     226         -0.597121        2.000000        0.00000000        0.00000000        0.00000000
     227         -0.595585        2.000000        0.00000016        0.00000008        0.00000000
     228         -0.591103        2.000000        0.00000000        0.00000000        0.00000000
     229         -0.582585        2.000000        0.00000000        0.00000000        0.00000000
     230         -0.576283        2.000000        0.00000000        0.00000000        0.00000000
     231         -0.258156        2.000000        0.00000000        0.00000000        0.00000000
     232         -0.253473        2.000000        0.00000000        0.00000000        0.00000000
     233         -0.246233        2.000000        0.00000000        0.00000001        0.00000000
     234         -0.244651        2.000000        0.00000000        0.00000000        0.00000000
     235         -0.243092        2.000000        0.00000000        0.00000000        0.00000000
     236         -0.242544        2.000000        0.00000013        0.00000140        0.00000001
     237         -0.241048        2.000000        0.00000002        0.00000006        0.00000000
     238         -0.240546        2.000000        0.00000000        0.00000000        0.00000000
     239         -0.237982        2.000000        0.00000146        0.00000396        0.00000008
     240         -0.237798        2.000000        0.01102172        0.02977092        0.00057643
     241         -0.236566        2.000000        0.00037852        0.00099955        0.00002116
     242         -0.235920        2.000000        0.00009481        0.00025434        0.00000554
     243         -0.233145        2.000000        0.00930316        0.02501699        0.00049269
     244         -0.232785        2.000000        0.00000012        0.00000038        0.00000001
     245         -0.232224        2.000000        0.00000035        0.00000100        0.00000002
     246         -0.232174        2.000000        0.00000929        0.00003882        0.00000018
     247         -0.232015        2.000000        0.00134535        0.00366924        0.00006969
     248         -0.230744        2.000000        0.00832838        0.02072324        0.00043984
     249         -0.230697        2.000000        0.00002404        0.00005956        0.00000127
     250         -0.229959        2.000000        0.00023758        0.00058304        0.00001241
     251         -0.229741        2.000000        0.00000055        0.00000133        0.00000003
     252         -0.228898        2.000000        0.00000032        0.00000083        0.00000002
     253         -0.227939        2.000000        0.00000000        0.00000001        0.00000000
     254         -0.227542        2.000000        0.00000000        0.00000000        0.00000000
     255         -0.227010        2.000000        0.00000001        0.00000002        0.00000000
     256         -0.226860        2.000000        0.00959765        0.02284120        0.00051176
     257         -0.226780        2.000000        0.00000043        0.00000103        0.00000002
     258         -0.226656        2.000000        0.00000001        0.00000003        0.00000000
     259         -0.226503        2.000000        0.00000596        0.00002260        0.00000020
     260         -0.226036        2.000000        0.00000001        0.00000003        0.00000000
     261         -0.225667        2.000000        0.00877932        0.02176342        0.00044651
     262         -0.225511        2.000000        0.00005366        0.00013217        0.00000274
     263         -0.224716        2.000000        0.00000154        0.00000394        0.00000008
     264         -0.224218        2.000000        0.00000089        0.00000218        0.00000005
     265         -0.223677        2.000000        0.05120994        0.12336010        0.00265632
     266         -0.223438        2.000000        0.00011385        0.00027369        0.00000593
     267         -0.223292        2.000000        0.00000190        0.00000457        0.00000010
     268         -0.223025        2.000000        0.00003951        0.00009488        0.00000206
     269         -0.222436        2.000000        0.00001948        0.00004694        0.00000102
     270         -0.222159        2.000000        0.00278112        0.00658301        0.00014266
     271         -0.221905        2.000000        0.00001566        0.00003753        0.00000083
     272         -0.221185        2.000000        0.00539569        0.01249156        0.00029528
     273         -0.220659        2.000000        0.00000325        0.00000801        0.00000017
     274         -0.219665        2.000000        0.00055059        0.00124783        0.00002981
     275         -0.219630        2.000000        0.01400990        0.03133458        0.00076588
     276         -0.218916        2.000000        0.00000559        0.00001647        0.00000025
     277         -0.218551        2.000000        0.00058939        0.00175462        0.00002528
     278         -0.218398        2.000000        0.00023997        0.00076977        0.00000915
     279         -0.218139        2.000000        0.00096350        0.00234242        0.00004773
     280         -0.217698        2.000000        0.00005196        0.00012943        0.00000264
     281         -0.217580        2.000000        0.00233794        0.00600160        0.00011226
     282         -0.217435        2.000000        0.00002722        0.00008138        0.00000120
     283         -0.216483        2.000000        0.00003358        0.00008720        0.00000179
     284         -0.216363        2.000000        0.00046326        0.00126111        0.00002135
     285         -0.216254        2.000000        0.00000303        0.00000801        0.00000014
     286         -0.215958        2.000000        0.00016463        0.00057382        0.00001491
     287         -0.215645        2.000000        0.00433834        0.01108285        0.00023757
     288         -0.215217        2.000000        0.00000009        0.00000021        0.00000001
     289         -0.214936        2.000000        0.00000007        0.00000020        0.00000000
     290         -0.214221        2.000000        0.00000023        0.00000070        0.00000002
     291         -0.213816        2.000000        0.00000039        0.00000107        0.00000002
     292         -0.213592        2.000000        0.02251121        0.06197101        0.00103737
     293         -0.213468        2.000000        0.00031903        0.00091690        0.00001436
     294         -0.213241        2.000000        0.00000072        0.00000198        0.00000003
     295         -0.213184        2.000000        0.01380538        0.03942429        0.00062466
     296         -0.212817        2.000000        0.00365809        0.01065100        0.00016543
     297         -0.212583        2.000000        0.00006313        0.00017251        0.00000297
     298         -0.212273        2.000000        0.00067926        0.00156246        0.00004220
     299         -0.211896        2.000000        0.00000139        0.00000453        0.00000005
     300         -0.211391        2.000000        0.00013941        0.00057524        0.00000920
     301         -0.211339        2.000000        0.00014407        0.00045904        0.00000770
     302         -0.211269        2.000000        0.00003947        0.00011548        0.00000202
     303         -0.211046        2.000000        0.00225902        0.00624095        0.00010333
     304         -0.210412        2.000000        0.00190122        0.00514387        0.00008758
     305         -0.210309        2.000000        0.00343842        0.00949698        0.00017217
     306         -0.210188        2.000000        0.00229344        0.00654767        0.00010125
     307         -0.210166        2.000000        0.00078321        0.00244460        0.00003604