# Projected DOS for list 218 of 3 atoms, at iteration step i = 0, E(Fermi) =     0.101540 a.u.
#     MO Eigenvalue [a.u.]      Occupation                 s                 p                 d
       1         -0.708367        2.000000        0.00000000        0.00000000        0.00000000
       2         -0.696979        2.000000        0.00000093        0.00000164        0.00000001
       3         -0.695301        2.000000        0.00000001        0.00000001        0.00000000
       4         -0.694902        2.000000        0.00000000        0.00000000        0.00000000
       5         -0.690081        2.000000        0.00000000        0.00000000        0.00000000
       6         -0.686805        2.000000        0.00000490        0.00000640        0.00000004
       7         -0.686571        2.000000        0.00000021        0.00000025        0.00000000
       8         -0.685003        2.000000        0.00000368        0.00000558        0.00000005
       9         -0.684036        2.000000        0.00018330        0.00027078        0.00000217
      10         -0.683920        2.000000        0.00000000        0.00000000        0.00000000
      11         -0.681735        2.000000        0.00006122        0.00007654        0.00000053
      12         -0.679408        2.000000        0.00000001        0.00000003        0.00000000
      13         -0.678932        2.000000        0.00000000        0.00000000        0.00000000
      14         -0.678381        2.000000        0.00004283        0.00004456        0.00000037
      15         -0.677963        2.000000        0.00002595        0.00003201        0.00000028
      16         -0.677540        2.000000        0.00012604        0.00012824        0.00000106
      17         -0.677381        2.000000        0.00000000        0.00000000        0.00000000
      18         -0.677246        2.000000        0.00008480        0.00008090        0.00000067
      19         -0.675827        2.000000        0.00000094        0.00000083        0.00000001
      20         -0.675724        2.000000        0.00000000        0.00000000        0.00000000
      21         -0.674932        2.000000        0.00000000        0.00000000        0.00000000
      22         -0.674380        2.000000        0.00001043        0.00000817        0.00000008
      23         -0.673393        2.000000        0.00000022        0.00000048        0.00000000
      24         -0.672924        2.000000        0.00000005        0.00000005        0.00000000
      25         -0.672289        2.000000        0.00000156        0.00000152        0.00000001
      26         -0.672227        2.000000        0.00020686        0.00041169        0.00000146
      27         -0.671275        2.000000        0.00000009        0.00000008        0.00000000
      28         -0.670770        2.000000        0.00000169        0.00000158        0.00000001
      29         -0.670400        2.000000        0.00000014        0.00000072        0.00000000
      30         -0.669922        2.000000        0.00000047        0.00000214        0.00000000
      31         -0.669606        2.000000        0.00000071        0.00000210        0.00000001
      32         -0.668947        2.000000        0.00000659        0.00001228        0.00000014
      33         -0.668931        2.000000        0.00000331        0.00000624        0.00000006
      34         -0.668431        2.000000        0.00000564        0.00002115        0.00000022
      35         -0.668008        2.000000        0.00002674        0.00002479        0.00000037
      36         -0.667083        2.000000        0.00000378        0.00001222        0.00000012
      37         -0.666996        2.000000        0.00000000        0.00000001        0.00000000
      38         -0.666939        2.000000        0.00000079        0.00000111        0.00000001
      39         -0.666646        2.000000        0.00000005        0.00000134        0.00000002
      40         -0.666363        2.000000        0.00006085        0.00006190        0.00000058
      41         -0.666281        2.000000        0.00000000        0.00000002        0.00000000
      42         -0.666129        2.000000        0.00004286        0.00004654        0.00000041
      43         -0.665867        2.000000        0.00005598        0.00005898        0.00000054
      44         -0.664404        2.000000        0.00000006        0.00000028        0.00000001
      45         -0.664061        2.000000        0.00006496        0.00006130        0.00000064
      46         -0.663948        2.000000        0.00000455        0.00000374        0.00000007
      47         -0.663550        2.000000        0.00001147        0.00000659        0.00000009
      48         -0.662943        2.000000        0.00000004        0.00000002        0.00000000
      49         -0.662627        2.000000        0.00000097        0.00000045        0.00000000
      50         -0.661965        2.000000        0.00002067        0.00000500        0.00000007
      51         -0.661528        2.000000        0.00000017        0.00000064        0.00000001
      52         -0.660900        2.000000        0.00000676        0.00000585        0.00000014
      53         -0.660166        2.000000        0.00004011        0.00002274        0.00000030
      54         -0.659683        2.000000        0.00000079        0.00000038        0.00000002
      55         -0.658835        2.000000        0.00032904        0.00019986        0.00000270
      56         -0.658814        2.000000        0.00000083        0.00000072        0.00000001
      57         -0.658691        2.000000        0.00000028        0.00000026        0.00000000
      58         -0.658084        2.000000        0.00001671        0.00000890        0.00000006
      59         -0.658073        2.000000        0.00000158        0.00000271        0.00000001
      60         -0.657975        2.000000        0.00015943        0.00006771        0.00000098
      61         -0.657678        2.000000        0.00000432        0.00000465        0.00000005
      62         -0.657592        2.000000        0.00000072        0.00000249        0.00000002
      63         -0.657226        2.000000        0.00000020        0.00000035        0.00000002
      64         -0.657087        2.000000        0.00006892        0.00002463        0.00000026
      65         -0.656742        2.000000        0.00000641        0.00001011        0.00000003
      66         -0.656449        2.000000        0.00004508        0.00003008        0.00000045
      67         -0.656215        2.000000        0.00000958        0.00002460        0.00000012
      68         -0.655700        2.000000        0.00000569        0.00003009        0.00000010
      69         -0.655174        2.000000        0.00000145        0.00000048        0.00000001
      70         -0.654827        2.000000        0.00002407        0.00001605        0.00000024
      71         -0.654660        2.000000        0.00000475        0.00000094        0.00000001
      72         -0.654406        2.000000        0.00026980        0.00019883        0.00000262
      73         -0.654250        2.000000        0.00028510        0.00018407        0.00000256
      74         -0.653619        2.000000        0.00000183        0.00000025        0.00000000
      75         -0.653105        2.000000        0.00016088        0.00002709        0.00000001
      76         -0.652904        2.000000        0.00004732        0.00002634        0.00000012
      77         -0.652612        2.000000        0.00001238        0.00000212        0.00000001
      78         -0.652411        2.000000        0.00011171        0.00005657        0.00000096
      79         -0.652213        2.000000        0.00000111        0.00000123        0.00000000
      80         -0.652083        2.000000        0.00000076        0.00000547        0.00000002
      81         -0.651807        2.000000        0.00000929        0.00003625        0.00000064
      82         -0.651706        2.000000        0.00000618        0.00000666        0.00000009
      83         -0.651237        2.000000        0.00001944        0.00000755        0.00000039
      84         -0.651053        2.000000        0.00008037        0.00000469        0.00000039
      85         -0.650411        2.000000        0.00002713        0.00000824        0.00000010
      86         -0.650326        2.000000        0.00002913        0.00000842        0.00000007
      87         -0.650219        2.000000        0.00010045        0.00001171        0.00000027
      88         -0.650130        2.000000        0.00001478        0.00000875        0.00000003
      89         -0.649849        2.000000        0.00003740        0.00002499        0.00000038
      90         -0.649510        2.000000        0.00014126        0.00002391        0.00000034
      91         -0.648737        2.000000        0.00009799        0.00008288        0.00000134
      92         -0.648608        2.000000        0.00019615        0.00005643        0.00000036
      93         -0.648509        2.000000        0.00001344        0.00001968        0.00000015
      94         -0.648091        2.000000        0.00004830        0.00001265        0.00000009
      95         -0.647956        2.000000        0.00000005        0.00000007        0.00000000
      96         -0.647875        2.000000        0.00010441        0.00006017        0.00000139
      97         -0.647628        2.000000        0.00059358        0.00021545        0.00000316
      98         -0.647248        2.000000        0.00015974        0.00004947        0.00000046
      99         -0.646997        2.000000        0.00000012        0.00000154        0.00000005
     100         -0.646893        2.000000        0.00000180        0.00000058        0.00000004
     101         -0.646794        2.000000        0.02383147        0.00625791        0.00007968
     102         -0.645843        2.000000        0.00469061        0.00195495        0.00004639
     103         -0.645519        2.000000        0.00341458        0.00190531        0.00003666
     104         -0.645232        2.000000        0.00019996        0.00044844        0.00001067
     105         -0.644964        2.000000        0.00137652        0.00070884        0.00001223
     106         -0.644451        2.000000        0.00032128        0.00093606        0.00002478
     107         -0.644170        2.000000        0.00002347        0.00011120        0.00000079
     108         -0.643891        2.000000        0.00037750        0.00007460        0.00000056
     109         -0.643862        2.000000        0.00185739        0.00023110        0.00000867
     110         -0.643478        2.000000        0.00002673        0.00004121        0.00000072
     111         -0.643325        2.000000        0.00030310        0.00006022        0.00000292
     112         -0.642934        2.000000        0.00006987        0.00003572        0.00000101
     113         -0.642899        2.000000        0.00002468        0.00000319        0.00000009
     114         -0.642460        2.000000        0.00044381        0.00009960        0.00000151
     115         -0.642175        2.000000        0.00000774        0.00001426        0.00000020
     116         -0.642120        2.000000        0.00023872        0.00004720        0.00000052
     117         -0.641851        2.000000        0.00018310        0.00008885        0.00000037
     118         -0.641683        2.000000        0.00051927        0.00008179        0.00000088
     119         -0.641305        2.000000        0.00001822        0.00006233        0.00000076
     120         -0.641072        2.000000        0.00015247        0.00012202        0.00000496
     121         -0.640960        2.000000        0.00000638        0.00002198        0.00000046
     122         -0.640793        2.000000        0.00012684        0.00006646        0.00000028
     123         -0.640578        2.000000        0.00016592        0.00024007        0.00000495
     124         -0.640464        2.000000        0.00001156        0.00007571        0.00000127
     125         -0.640169        2.000000        0.00000714        0.00006841        0.00000144
     126         -0.639736        2.000000        0.00025768        0.00018042        0.00000187
     127         -0.639499        2.000000        0.00170446        0.00071053        0.00000515
     128         -0.639154        2.000000        0.00167507        0.00109006        0.00001648
     129         -0.639060        2.000000        0.00005971        0.00001637        0.00000006
     130         -0.638976        2.000000        0.00156441        0.00082043        0.00001008
     131         -0.638593        2.000000        0.00086363        0.00035079        0.00000191
     132         -0.638261        2.000000        0.00000268        0.00000659        0.00000014
     133         -0.638059        2.000000        0.00027212        0.00004876        0.00000062
     134         -0.637912        2.000000        0.00013477        0.00006369        0.00000050
     135         -0.637762        2.000000        0.00010785        0.00002107        0.00000017
     136         -0.637584        2.000000        0.00003034        0.00000585        0.00000008
     137         -0.636804        2.000000        0.00001744        0.00000590        0.00000005
     138         -0.636640        2.000000        0.00027392        0.00007130        0.00000023
     139         -0.636429        2.000000        0.00074941        0.00017833        0.00000043
     140         -0.635515        2.000000        0.00026426        0.00008755        0.00000110
     141         -0.634989        2.000000        0.00004313        0.00001716        0.00000012
     142         -0.634462        2.000000        0.00004351        0.00003070        0.00000059
     143         -0.634132        2.000000        0.00054861        0.00021580        0.00000157
     144         -0.633763        2.000000        0.00001733        0.00001091        0.00000059
     145         -0.633531        2.000000        0.00002407        0.00000699        0.00000003
     146         -0.632585        2.000000        0.00065661        0.00018713        0.00000070
     147         -0.632333        2.000000        0.00002160        0.00001900        0.00000035
     148         -0.632031        2.000000        0.00000521        0.00000114        0.00000007
     149         -0.631841        2.000000        0.00001418        0.00000597        0.00000005
     150         -0.631318        2.000000        0.00267219        0.00081897        0.00000402
     151         -0.630640        2.000000        0.00059592        0.00016828        0.00000009
     152         -0.630519        2.000000        0.00037846        0.00019527        0.00000020
     153         -0.630490        2.000000        0.00004745        0.00003130        0.00000006
     154         -0.629959        2.000000        0.00001069        0.00001561        0.00000003
     155         -0.629452        2.000000        0.00000662        0.00002717        0.00000025
     156         -0.629210        2.000000        0.00002733        0.00002470        0.00000027
     157         -0.628856        2.000000        0.00000286        0.00000200        0.00000001
     158         -0.628516        2.000000        0.00044059        0.00030199        0.00000195
     159         -0.628511        2.000000        0.00029961        0.00019911        0.00000161
     160         -0.628382        2.000000        0.00049304        0.00025585        0.00000132
     161         -0.628242        2.000000        0.00019630        0.00015594        0.00000122
     162         -0.628026        2.000000        0.00035273        0.00017026        0.00000119
     163         -0.627712        2.000000        0.00000668        0.00005668        0.00000201
     164         -0.627438        2.000000        0.00014331        0.00007351        0.00000353
     165         -0.627281        2.000000        0.00036672        0.00041673        0.00000145
     166         -0.626983        2.000000        0.00103833        0.00023742        0.00000077
     167         -0.626804        2.000000        0.00019014        0.00008593        0.00000038
     168         -0.626588        2.000000        0.00182728        0.00088518        0.00000228
     169         -0.626019        2.000000        0.00000026        0.00000052        0.00000004
     170         -0.625843        2.000000        0.00120659        0.00039955        0.00000463
     171         -0.625019        2.000000        0.00022920        0.00006012        0.00000206
     172         -0.624831        2.000000        0.00107341        0.00026978        0.00000640
     173         -0.624166        2.000000        0.00017655        0.00004896        0.00000009
     174         -0.623906        2.000000        0.00067745        0.00021397        0.00000313
     175         -0.623799        2.000000        0.00029792        0.00007207        0.00000047
     176         -0.623716        2.000000        0.00716309        0.00159261        0.00002904
     177         -0.623382        2.000000        0.00064957        0.00010958        0.00000502
     178         -0.623067        2.000000        0.00018498        0.00004194        0.00000026
     179         -0.622801        2.000000        0.02424378        0.00621635        0.00002803
     180         -0.622617        2.000000        0.00487963        0.00118229        0.00000632
     181         -0.622499        2.000000        0.00064965        0.00013902        0.00000055
     182         -0.621672        2.000000        0.03979654        0.00648791        0.00012611
     183         -0.621151        2.000000        0.00567615        0.00154388        0.00002255
     184         -0.620781        2.000000        0.00086575        0.00045695        0.00001859
     185         -0.620579        2.000000        0.00009140        0.00012429        0.00000982
     186         -0.619930        2.000000        0.00074749        0.00015077        0.00000120
     187         -0.618694        2.000000        0.00010752        0.00002686        0.00000033
     188         -0.618461        2.000000        0.02766953        0.00867986        0.00008634
     189         -0.618211        2.000000        0.00010508        0.00002348        0.00000026
     190         -0.617957        2.000000        0.01674847        0.00478867        0.00005226
     191         -0.617770        2.000000        0.04884001        0.01498081        0.00013310
     192         -0.617636        2.000000        0.00004723        0.00008834        0.00000415
     193         -0.617200        2.000000        0.00268458        0.00105540        0.00002684
     194         -0.616810        2.000000        0.00000030        0.00000350        0.00000025
     195         -0.615618        2.000000        0.00017747        0.00006611        0.00000200
     196         -0.615377        2.000000        0.00007008        0.00002232        0.00000116
     197         -0.615228        2.000000        0.00075054        0.00015547        0.00000179
     198         -0.614941        2.000000        0.00000076        0.00000018        0.00000001
     199         -0.613862        2.000000        0.00070596        0.00024090        0.00000712
     200         -0.613167        2.000000        0.00134594        0.00035063        0.00000677
     201         -0.612937        2.000000        0.00000155        0.00000209        0.00000003
     202         -0.612465        2.000000        0.00352038        0.00080482        0.00000728
     203         -0.611371        2.000000        0.00266362        0.00039273        0.00001280
     204         -0.611273        2.000000        0.00055448        0.00009026        0.00000215
     205         -0.610903        2.000000        0.00179107        0.00038931        0.00000394
     206         -0.609912        2.000000        0.19993002        0.04215712        0.00055317
     207         -0.609442        2.000000        0.00094716        0.00020858        0.00000310
     208         -0.609149        2.000000        0.00406186        0.00094702        0.00001391
     209         -0.608882        2.000000        0.00017065        0.00003610        0.00000070
     210         -0.608562        2.000000        0.00031678        0.00009191        0.00000061
     211         -0.608012        2.000000        0.00116087        0.00021547        0.00000494
     212         -0.607014        2.000000        0.00929917        0.00192043        0.00003581
     213         -0.606300        2.000000        0.00031008        0.00008134        0.00000386
     214         -0.605948        2.000000        0.00000849        0.00000418        0.00000009
     215         -0.605403        2.000000        0.00000034        0.00000153        0.00000003
     216         -0.604664        2.000000        0.00029411        0.00010417        0.00000032
     217         -0.604080        2.000000        0.00244945        0.00056434        0.00000792
     218         -0.603538        2.000000        0.00005997        0.00018565        0.00000447
     219         -0.603145        2.000000        0.00907024        0.00203440        0.00004878
     220         -0.602213        2.000000        0.00464051        0.00114154        0.00001239
     221         -0.601871        2.000000        0.08940126        0.02968470        0.00013320
     222         -0.600521        2.000000        0.00047097        0.00012880        0.00000107
     223         -0.599848        2.000000        0.00061956        0.00027712        0.00000049
     224         -0.598111        2.000000        0.00906662        0.00261346        0.00009126
     225         -0.597286        2.000000        0.02215772        0.00578822        0.00019476
     226         -0.597121        2.000000        0.00368695        0.00150016        0.00005408
     227         -0.595585        2.000000        0.00008446        0.00002343        0.00000026
     228         -0.591103        2.000000        0.16143648        0.05920448        0.00031825
     229         -0.582585        2.000000        0.00000690        0.00000161        0.00000010
     230         -0.576283        2.000000        0.00000159        0.00000059        0.00000001
     231         -0.258156        2.000000        0.00000000        0.00000000        0.00000000
     232         -0.253473        2.000000        0.00000001        0.00000008        0.00000000
     233         -0.246233        2.000000        0.00000000        0.00000000        0.00000000
     234         -0.244651        2.000000        0.00000001        0.00000002        0.00000000
     235         -0.243092        2.000000        0.00000002        0.00000005        0.00000000
     236         -0.242544        2.000000        0.00000000        0.00000000        0.00000000
     237         -0.241048        2.000000        0.00000025        0.00000060        0.00000001
     238         -0.240546        2.000000        0.00000853        0.00002434        0.00000050
     239         -0.237982        2.000000        0.00000387        0.00000905        0.00000022
     240         -0.237798        2.000000        0.00000000        0.00000000        0.00000000
     241         -0.236566        2.000000        0.00000002        0.00000004        0.00000000
     242         -0.235920        2.000000        0.00000001        0.00000001        0.00000000
     243         -0.233145        2.000000        0.00000000        0.00000001        0.00000000
     244         -0.232785        2.000000        0.00000259        0.00000536        0.00000014
     245         -0.232224        2.000000        0.00000210        0.00000445        0.00000011
     246         -0.232174        2.000000        0.00000000        0.00000000        0.00000000
     247         -0.232015        2.000000        0.00000000        0.00000000        0.00000000
     248         -0.230744        2.000000        0.00000000        0.00000001        0.00000000
     249         -0.230697        2.000000        0.00000189        0.00000404        0.00000010
     250         -0.229959        2.000000        0.00000001        0.00000001        0.00000000
     251         -0.229741        2.000000        0.00003216        0.00007329        0.00000162
     252         -0.228898        2.000000        0.00000430        0.00001079        0.00000021
     253         -0.227939        2.000000        0.00000042        0.00000116        0.00000002
     254         -0.227542        2.000000        0.00000005        0.00000010        0.00000000
     255         -0.227010        2.000000        0.00000161        0.00000638        0.00000010
     256         -0.226860        2.000000        0.00000005        0.00000027        0.00000000
     257         -0.226780        2.000000        0.00000253        0.00000645        0.00000012
     258         -0.226656        2.000000        0.00002280        0.00004578        0.00000123
     259         -0.226503        2.000000        0.00000000        0.00000001        0.00000000
     260         -0.226036        2.000000        0.00000075        0.00000182        0.00000004
     261         -0.225667        2.000000        0.00000000        0.00000000        0.00000000
     262         -0.225511        2.000000        0.00000002        0.00000007        0.00000000
     263         -0.224716        2.000000        0.00000633        0.00001501        0.00000036
     264         -0.224218        2.000000        0.00000316        0.00001006        0.00000018
     265         -0.223677        2.000000        0.00000004        0.00000009        0.00000000
     266         -0.223438        2.000000        0.00001226        0.00002596        0.00000067
     267         -0.223292        2.000000        0.00000204        0.00000936        0.00000024
     268         -0.223025        2.000000        0.00000291        0.00000762        0.00000017
     269         -0.222436        2.000000        0.00000000        0.00000010        0.00000000
     270         -0.222159        2.000000        0.00000000        0.00000000        0.00000000
     271         -0.221905        2.000000        0.00001122        0.00002416        0.00000059
     272         -0.221185        2.000000        0.00000001        0.00000005        0.00000000
     273         -0.220659        2.000000        0.00000740        0.00001580        0.00000039
     274         -0.219665        2.000000        0.00002865        0.00006394        0.00000147
     275         -0.219630        2.000000        0.00000130        0.00000304        0.00000006
     276         -0.218916        2.000000        0.00106228        0.00236863        0.00005569
     277         -0.218551        2.000000        0.00008085        0.00018045        0.00000427
     278         -0.218398        2.000000        0.00005780        0.00012883        0.00000303
     279         -0.218139        2.000000        0.00000038        0.00000094        0.00000002
     280         -0.217698        2.000000        0.00000176        0.00000579        0.00000008
     281         -0.217580        2.000000        0.00000012        0.00000034        0.00000001
     282         -0.217435        2.000000        0.00000002        0.00000017        0.00000000
     283         -0.216483        2.000000        0.00014755        0.00036173        0.00000759
     284         -0.216363        2.000000        0.00000773        0.00001749        0.00000041
     285         -0.216254        2.000000        0.00147530        0.00337188        0.00007698
     286         -0.215958        2.000000        0.00000004        0.00000011        0.00000000
     287         -0.215645        2.000000        0.00000035        0.00000086        0.00000002
     288         -0.215217        2.000000        0.00000355        0.00001192        0.00000021
     289         -0.214936        2.000000        0.00000624        0.00001441        0.00000033
     290         -0.214221        2.000000        0.00001391        0.00003923        0.00000070
     291         -0.213816        2.000000        0.00000760        0.00004230        0.00000028
     292         -0.213592        2.000000        0.00000001        0.00000005        0.00000000
     293         -0.213468        2.000000        0.00000530        0.00003843        0.00000008
     294         -0.213241        2.000000        0.00007176        0.00052068        0.00000224
     295         -0.213184        2.000000        0.00000010        0.00000046        0.00000000
     296         -0.212817        2.000000        0.00000010        0.00000031        0.00000000
     297         -0.212583        2.000000        0.00002600        0.00006812        0.00000102
     298         -0.212273        2.000000        0.00000011        0.00000050        0.00000001
     299         -0.211896        2.000000        0.00002771        0.00010048        0.00000160
     300         -0.211391        2.000000        0.00000096        0.00000276        0.00000006
     301         -0.211339        2.000000        0.00000205        0.00000722        0.00000009
     302         -0.211269        2.000000        0.00002056        0.00007996        0.00000105
     303         -0.211046        2.000000        0.00000911        0.00001909        0.00000039
     304         -0.210412        2.000000        0.00011080        0.00023094        0.00000457
     305         -0.210309        2.000000        0.00001845        0.00004043        0.00000077
     306         -0.210188        2.000000        0.00000210        0.00000720        0.00000010
     307         -0.210166        2.000000        0.00000329        0.00001360        0.00000030