# Projected DOS for list 217 of 3 atoms, at iteration step i = 0, E(Fermi) =     0.101540 a.u.
#     MO Eigenvalue [a.u.]      Occupation                 s                 p                 d
       1         -0.708367        2.000000        0.00000000        0.00000000        0.00000000
       2         -0.696979        2.000000        0.00000000        0.00000000        0.00000000
       3         -0.695301        2.000000        0.00000000        0.00000000        0.00000000
       4         -0.694902        2.000000        0.00000000        0.00000000        0.00000000
       5         -0.690081        2.000000        0.00000000        0.00000000        0.00000000
       6         -0.686805        2.000000        0.00000007        0.00000002        0.00000000
       7         -0.686571        2.000000        0.00000000        0.00000000        0.00000000
       8         -0.685003        2.000000        0.00000001        0.00000001        0.00000000
       9         -0.684036        2.000000        0.00000034        0.00000014        0.00000000
      10         -0.683920        2.000000        0.00000000        0.00000000        0.00000000
      11         -0.681735        2.000000        0.00000029        0.00000008        0.00000000
      12         -0.679408        2.000000        0.00000004        0.00000002        0.00000000
      13         -0.678932        2.000000        0.00000001        0.00000001        0.00000000
      14         -0.678381        2.000000        0.00000118        0.00000055        0.00000000
      15         -0.677963        2.000000        0.00000001        0.00000003        0.00000000
      16         -0.677540        2.000000        0.00000050        0.00000128        0.00000000
      17         -0.677381        2.000000        0.00000000        0.00000000        0.00000000
      18         -0.677246        2.000000        0.00000104        0.00000139        0.00000001
      19         -0.675827        2.000000        0.00000001        0.00000006        0.00000000
      20         -0.675724        2.000000        0.00000000        0.00000000        0.00000000
      21         -0.674932        2.000000        0.00000000        0.00000000        0.00000000
      22         -0.674380        2.000000        0.00000193        0.00000045        0.00000000
      23         -0.673393        2.000000        0.00000034        0.00000014        0.00000000
      24         -0.672924        2.000000        0.00000001        0.00000000        0.00000000
      25         -0.672289        2.000000        0.00000001        0.00000003        0.00000000
      26         -0.672227        2.000000        0.00000502        0.00000050        0.00000001
      27         -0.671275        2.000000        0.00000001        0.00000001        0.00000000
      28         -0.670770        2.000000        0.00000709        0.00000222        0.00000002
      29         -0.670400        2.000000        0.00000783        0.00000350        0.00000003
      30         -0.669922        2.000000        0.00002638        0.00000901        0.00000008
      31         -0.669606        2.000000        0.00001398        0.00000327        0.00000008
      32         -0.668947        2.000000        0.00004871        0.00001087        0.00000009
      33         -0.668931        2.000000        0.00001391        0.00000608        0.00000005
      34         -0.668431        2.000000        0.00004206        0.00001038        0.00000008
      35         -0.668008        2.000000        0.00014075        0.00004627        0.00000024
      36         -0.667083        2.000000        0.00004221        0.00001208        0.00000009
      37         -0.666996        2.000000        0.00000012        0.00000002        0.00000000
      38         -0.666939        2.000000        0.00000351        0.00000084        0.00000001
      39         -0.666646        2.000000        0.00000032        0.00000019        0.00000000
      40         -0.666363        2.000000        0.00008101        0.00003453        0.00000029
      41         -0.666281        2.000000        0.00000038        0.00000012        0.00000000
      42         -0.666129        2.000000        0.00005305        0.00002427        0.00000026
      43         -0.665867        2.000000        0.00009103        0.00003538        0.00000033
      44         -0.664404        2.000000        0.00000237        0.00000044        0.00000001
      45         -0.664061        2.000000        0.00000179        0.00000179        0.00000003
      46         -0.663948        2.000000        0.00018595        0.00004077        0.00000067
      47         -0.663550        2.000000        0.00036746        0.00008037        0.00000098
      48         -0.662943        2.000000        0.00000189        0.00000032        0.00000000
      49         -0.662627        2.000000        0.00020625        0.00004056        0.00000050
      50         -0.661965        2.000000        0.00496363        0.00089415        0.00001130
      51         -0.661528        2.000000        0.00000482        0.00000151        0.00000002
      52         -0.660900        2.000000        0.00000008        0.00000032        0.00000000
      53         -0.660166        2.000000        0.00005581        0.00000973        0.00000013
      54         -0.659683        2.000000        0.00000100        0.00000027        0.00000000
      55         -0.658835        2.000000        0.00000999        0.00000325        0.00000006
      56         -0.658814        2.000000        0.00000413        0.00000079        0.00000001
      57         -0.658691        2.000000        0.00000009        0.00000038        0.00000001
      58         -0.658084        2.000000        0.00012980        0.00002176        0.00000035
      59         -0.658073        2.000000        0.00001449        0.00000506        0.00000006
      60         -0.657975        2.000000        0.01210425        0.00141082        0.00002464
      61         -0.657678        2.000000        0.00037417        0.00005122        0.00000082
      62         -0.657592        2.000000        0.00044193        0.00013475        0.00000071
      63         -0.657226        2.000000        0.00000510        0.00000173        0.00000001
      64         -0.657087        2.000000        0.00083107        0.00016986        0.00000122
      65         -0.656742        2.000000        0.01912042        0.00345321        0.00002835
      66         -0.656449        2.000000        0.01785564        0.00356727        0.00003004
      67         -0.656215        2.000000        0.00944784        0.00165862        0.00001485
      68         -0.655700        2.000000        0.00171627        0.00090566        0.00001103
      69         -0.655174        2.000000        0.00000067        0.00000319        0.00000004
      70         -0.654827        2.000000        0.00029302        0.00007300        0.00000070
      71         -0.654660        2.000000        0.00000202        0.00000150        0.00000001
      72         -0.654406        2.000000        0.00069050        0.00012344        0.00000138
      73         -0.654250        2.000000        0.00000546        0.00001011        0.00000006
      74         -0.653619        2.000000        0.00041516        0.00010166        0.00000106
      75         -0.653105        2.000000        0.02376587        0.00488452        0.00005003
      76         -0.652904        2.000000        0.00861440        0.00159400        0.00001738
      77         -0.652612        2.000000        0.00018548        0.00009704        0.00000112
      78         -0.652411        2.000000        0.00062520        0.00010111        0.00000121
      79         -0.652213        2.000000        0.00047024        0.00005768        0.00000111
      80         -0.652083        2.000000        0.00037174        0.00024216        0.00000241
      81         -0.651807        2.000000        0.00054391        0.00018717        0.00000179
      82         -0.651706        2.000000        0.00049561        0.00010466        0.00000106
      83         -0.651237        2.000000        0.02488583        0.00471717        0.00004521
      84         -0.651053        2.000000        0.01066564        0.00186338        0.00001940
      85         -0.650411        2.000000        0.00544024        0.00106449        0.00001016
      86         -0.650326        2.000000        0.00273405        0.00057112        0.00000507
      87         -0.650219        2.000000        0.01025486        0.00173780        0.00001971
      88         -0.650130        2.000000        0.00182911        0.00035941        0.00000365
      89         -0.649849        2.000000        0.04867773        0.00856960        0.00009608
      90         -0.649510        2.000000        0.00163459        0.00059342        0.00000290
      91         -0.648737        2.000000        0.08590708        0.01563515        0.00017309
      92         -0.648608        2.000000        0.00483271        0.00091476        0.00001090
      93         -0.648509        2.000000        0.04109818        0.00696527        0.00008498
      94         -0.648091        2.000000        0.00001264        0.00001386        0.00000007
      95         -0.647956        2.000000        0.00108937        0.00018499        0.00000230
      96         -0.647875        2.000000        0.00382131        0.00084028        0.00000673
      97         -0.647628        2.000000        0.00044302        0.00007155        0.00000100
      98         -0.647248        2.000000        0.00558430        0.00127610        0.00000927
      99         -0.646997        2.000000        0.00001879        0.00000441        0.00000006
     100         -0.646893        2.000000        0.00004784        0.00001027        0.00000009
     101         -0.646794        2.000000        0.02058001        0.00527515        0.00003583
     102         -0.645843        2.000000        0.01787387        0.00358915        0.00003579
     103         -0.645519        2.000000        0.00019040        0.00045245        0.00000343
     104         -0.645232        2.000000        0.00327003        0.00090097        0.00000632
     105         -0.644964        2.000000        0.00006680        0.00023948        0.00000173
     106         -0.644451        2.000000        0.00467900        0.00197785        0.00000818
     107         -0.644170        2.000000        0.00083887        0.00044674        0.00000150
     108         -0.643891        2.000000        0.00036947        0.00033916        0.00000085
     109         -0.643862        2.000000        0.00051777        0.00026857        0.00000183
     110         -0.643478        2.000000        0.00008496        0.00010203        0.00000082
     111         -0.643325        2.000000        0.00016312        0.00015532        0.00000434
     112         -0.642934        2.000000        0.00084000        0.00018303        0.00000196
     113         -0.642899        2.000000        0.00002406        0.00000407        0.00000015
     114         -0.642460        2.000000        0.00005396        0.00001641        0.00000048
     115         -0.642175        2.000000        0.00045976        0.00069866        0.00000614
     116         -0.642120        2.000000        0.00011923        0.00005287        0.00000025
     117         -0.641851        2.000000        0.00376170        0.00078466        0.00002445
     118         -0.641683        2.000000        0.00091910        0.00204120        0.00001883
     119         -0.641305        2.000000        0.03115348        0.01300929        0.00005849
     120         -0.641072        2.000000        0.00010272        0.00006345        0.00000090
     121         -0.640960        2.000000        0.00010460        0.00008302        0.00000056
     122         -0.640793        2.000000        0.00603852        0.00217759        0.00000973
     123         -0.640578        2.000000        0.00615540        0.00121911        0.00001329
     124         -0.640464        2.000000        0.00548184        0.00299336        0.00001328
     125         -0.640169        2.000000        0.00011002        0.00018868        0.00000138
     126         -0.639736        2.000000        0.00069265        0.00082715        0.00000250
     127         -0.639499        2.000000        0.00078099        0.00148002        0.00001072
     128         -0.639154        2.000000        0.00295106        0.00079415        0.00000452
     129         -0.639060        2.000000        0.00109812        0.00058562        0.00000254
     130         -0.638976        2.000000        0.00024916        0.00008115        0.00000197
     131         -0.638593        2.000000        0.00485279        0.00287441        0.00001241
     132         -0.638261        2.000000        0.00000345        0.00000771        0.00000003
     133         -0.638059        2.000000        0.01443463        0.00784462        0.00002189
     134         -0.637912        2.000000        0.00658715        0.00418228        0.00000795
     135         -0.637762        2.000000        0.00152105        0.00080428        0.00000199
     136         -0.637584        2.000000        0.00375827        0.00203998        0.00000718
     137         -0.636804        2.000000        0.00060963        0.00026526        0.00000093
     138         -0.636640        2.000000        0.00776938        0.00363665        0.00001388
     139         -0.636429        2.000000        0.00987188        0.00426237        0.00001866
     140         -0.635515        2.000000        0.00118669        0.00041480        0.00000182
     141         -0.634989        2.000000        0.02666478        0.00837712        0.00005120
     142         -0.634462        2.000000        0.00033427        0.00084431        0.00000256
     143         -0.634132        2.000000        0.06826600        0.02351955        0.00011317
     144         -0.633763        2.000000        0.00120727        0.00044633        0.00000171
     145         -0.633531        2.000000        0.00003991        0.00001165        0.00000012
     146         -0.632585        2.000000        0.00340273        0.00091797        0.00000820
     147         -0.632333        2.000000        0.00094498        0.00032057        0.00000238
     148         -0.632031        2.000000        0.00002184        0.00000559        0.00000006
     149         -0.631841        2.000000        0.00002136        0.00001145        0.00000009
     150         -0.631318        2.000000        0.00000263        0.00001776        0.00000047
     151         -0.630640        2.000000        0.00427018        0.00126747        0.00000891
     152         -0.630519        2.000000        0.00340433        0.00137276        0.00000530
     153         -0.630490        2.000000        0.00132361        0.00049683        0.00000224
     154         -0.629959        2.000000        0.00000063        0.00000330        0.00000002
     155         -0.629452        2.000000        0.00002272        0.00001502        0.00000005
     156         -0.629210        2.000000        0.00008188        0.00010262        0.00000003
     157         -0.628856        2.000000        0.00000190        0.00000566        0.00000001
     158         -0.628516        2.000000        0.00051541        0.00024880        0.00000310
     159         -0.628511        2.000000        0.00086299        0.00050048        0.00000218
     160         -0.628382        2.000000        0.00080979        0.00052410        0.00000190
     161         -0.628242        2.000000        0.00009364        0.00008033        0.00000053
     162         -0.628026        2.000000        0.00253002        0.00077628        0.00000932
     163         -0.627712        2.000000        0.00338586        0.00079895        0.00001405
     164         -0.627438        2.000000        0.00232851        0.00074671        0.00000637
     165         -0.627281        2.000000        0.00168456        0.00099512        0.00000139
     166         -0.626983        2.000000        0.00005580        0.00027103        0.00000104
     167         -0.626804        2.000000        0.00010373        0.00006413        0.00000051
     168         -0.626588        2.000000        0.00007626        0.00025659        0.00000121
     169         -0.626019        2.000000        0.00000002        0.00000017        0.00000000
     170         -0.625843        2.000000        0.00026578        0.00014307        0.00000115
     171         -0.625019        2.000000        0.00018330        0.00006207        0.00000101
     172         -0.624831        2.000000        0.00040442        0.00009230        0.00000160
     173         -0.624166        2.000000        0.00017089        0.00004321        0.00000068
     174         -0.623906        2.000000        0.00011723        0.00010856        0.00000062
     175         -0.623799        2.000000        0.00004819        0.00001423        0.00000017
     176         -0.623716        2.000000        0.00136470        0.00039478        0.00000609
     177         -0.623382        2.000000        0.00007996        0.00003607        0.00000056
     178         -0.623067        2.000000        0.00000362        0.00000117        0.00000002
     179         -0.622801        2.000000        0.00091912        0.00030466        0.00000458
     180         -0.622617        2.000000        0.00168955        0.00044621        0.00000741
     181         -0.622499        2.000000        0.00314939        0.00086441        0.00001509
     182         -0.621672        2.000000        0.00003431        0.00003299        0.00000009
     183         -0.621151        2.000000        0.00064826        0.00019318        0.00000412
     184         -0.620781        2.000000        0.00094299        0.00027783        0.00000466
     185         -0.620579        2.000000        0.00202187        0.00052280        0.00001181
     186         -0.619930        2.000000        0.00081162        0.00021487        0.00000577
     187         -0.618694        2.000000        0.00000406        0.00000630        0.00000002
     188         -0.618461        2.000000        0.00000448        0.00000241        0.00000011
     189         -0.618211        2.000000        0.00000961        0.00000260        0.00000008
     190         -0.617957        2.000000        0.00115821        0.00030462        0.00000797
     191         -0.617770        2.000000        0.00110255        0.00028533        0.00000851
     192         -0.617636        2.000000        0.01754466        0.00472661        0.00012317
     193         -0.617200        2.000000        0.01229493        0.00349982        0.00008440
     194         -0.616810        2.000000        0.01343111        0.00380255        0.00009837
     195         -0.615618        2.000000        0.00781298        0.00215873        0.00005107
     196         -0.615377        2.000000        0.00029903        0.00009615        0.00000251
     197         -0.615228        2.000000        0.00195750        0.00054977        0.00001010
     198         -0.614941        2.000000        0.00002371        0.00000685        0.00000019
     199         -0.613862        2.000000        0.00020311        0.00007617        0.00000303
     200         -0.613167        2.000000        0.01181486        0.00355896        0.00011707
     201         -0.612937        2.000000        0.00007796        0.00002215        0.00000075
     202         -0.612465        2.000000        0.04917464        0.01422041        0.00045804
     203         -0.611371        2.000000        0.00067614        0.00029605        0.00000624
     204         -0.611273        2.000000        0.00021851        0.00007810        0.00000106
     205         -0.610903        2.000000        0.00177179        0.00062236        0.00000708
     206         -0.609912        2.000000        0.00092159        0.00033819        0.00001107
     207         -0.609442        2.000000        0.00002432        0.00003862        0.00000076
     208         -0.609149        2.000000        0.00016223        0.00028857        0.00000145
     209         -0.608882        2.000000        0.00002108        0.00001446        0.00000018
     210         -0.608562        2.000000        0.00000007        0.00000061        0.00000000
     211         -0.608012        2.000000        0.00008407        0.00003407        0.00000085
     212         -0.607014        2.000000        0.00000835        0.00006452        0.00000143
     213         -0.606300        2.000000        0.00020079        0.00006159        0.00000202
     214         -0.605948        2.000000        0.00000184        0.00000077        0.00000003
     215         -0.605403        2.000000        0.00000555        0.00000221        0.00000004
     216         -0.604664        2.000000        0.00070995        0.00020951        0.00000876
     217         -0.604080        2.000000        0.00001361        0.00000990        0.00000047
     218         -0.603538        2.000000        0.00028991        0.00009605        0.00000343
     219         -0.603145        2.000000        0.00001240        0.00013247        0.00000053
     220         -0.602213        2.000000        0.00009696        0.00003038        0.00000104
     221         -0.601871        2.000000        0.00000549        0.00000509        0.00000013
     222         -0.600521        2.000000        0.00003319        0.00001282        0.00000044
     223         -0.599848        2.000000        0.00000188        0.00000145        0.00000006
     224         -0.598111        2.000000        0.00003166        0.00000952        0.00000026
     225         -0.597286        2.000000        0.00000991        0.00000585        0.00000012
     226         -0.597121        2.000000        0.00000103        0.00000431        0.00000003
     227         -0.595585        2.000000        0.00000030        0.00000009        0.00000000
     228         -0.591103        2.000000        0.00000151        0.00000070        0.00000001
     229         -0.582585        2.000000        0.00000004        0.00000002        0.00000000
     230         -0.576283        2.000000        0.00000013        0.00000008        0.00000001
     231         -0.258156        2.000000        0.00000000        0.00000000        0.00000000
     232         -0.253473        2.000000        0.00000000        0.00000000        0.00000000
     233         -0.246233        2.000000        0.00000000        0.00000000        0.00000000
     234         -0.244651        2.000000        0.00000000        0.00000000        0.00000000
     235         -0.243092        2.000000        0.00000000        0.00000000        0.00000000
     236         -0.242544        2.000000        0.00000000        0.00000000        0.00000000
     237         -0.241048        2.000000        0.00000000        0.00000000        0.00000000
     238         -0.240546        2.000000        0.00000021        0.00000066        0.00000002
     239         -0.237982        2.000000        0.00000019        0.00000069        0.00000001
     240         -0.237798        2.000000        0.00000000        0.00000000        0.00000000
     241         -0.236566        2.000000        0.00000000        0.00000000        0.00000000
     242         -0.235920        2.000000        0.00000000        0.00000000        0.00000000
     243         -0.233145        2.000000        0.00000000        0.00000000        0.00000000
     244         -0.232785        2.000000        0.00000001        0.00000003        0.00000000
     245         -0.232224        2.000000        0.00000001        0.00000002        0.00000000
     246         -0.232174        2.000000        0.00000000        0.00000001        0.00000000
     247         -0.232015        2.000000        0.00000000        0.00000001        0.00000000
     248         -0.230744        2.000000        0.00000000        0.00000001        0.00000000
     249         -0.230697        2.000000        0.00000000        0.00000001        0.00000000
     250         -0.229959        2.000000        0.00000003        0.00000013        0.00000000
     251         -0.229741        2.000000        0.00000004        0.00000013        0.00000000
     252         -0.228898        2.000000        0.00000000        0.00000001        0.00000000
     253         -0.227939        2.000000        0.00000036        0.00000148        0.00000001
     254         -0.227542        2.000000        0.00000003        0.00000017        0.00000000
     255         -0.227010        2.000000        0.00000101        0.00000275        0.00000006
     256         -0.226860        2.000000        0.00000004        0.00000012        0.00000000
     257         -0.226780        2.000000        0.00000146        0.00000418        0.00000008
     258         -0.226656        2.000000        0.00000009        0.00000025        0.00000000
     259         -0.226503        2.000000        0.00000276        0.00000771        0.00000017
     260         -0.226036        2.000000        0.00000042        0.00000113        0.00000002
     261         -0.225667        2.000000        0.00000182        0.00000511        0.00000009
     262         -0.225511        2.000000        0.00031283        0.00090319        0.00001645
     263         -0.224716        2.000000        0.00000470        0.00001274        0.00000025
     264         -0.224218        2.000000        0.00015167        0.00040526        0.00000808
     265         -0.223677        2.000000        0.00000042        0.00000112        0.00000002
     266         -0.223438        2.000000        0.00239550        0.00638343        0.00012898
     267         -0.223292        2.000000        0.08477263        0.22585672        0.00455992
     268         -0.223025        2.000000        0.00014864        0.00039581        0.00000804
     269         -0.222436        2.000000        0.00001824        0.00004871        0.00000100
     270         -0.222159        2.000000        0.00000004        0.00000011        0.00000000
     271         -0.221905        2.000000        0.00002097        0.00005613        0.00000113
     272         -0.221185        2.000000        0.00000004        0.00000012        0.00000000
     273         -0.220659        2.000000        0.00001055        0.00002825        0.00000058
     274         -0.219665        2.000000        0.00000066        0.00000170        0.00000004
     275         -0.219630        2.000000        0.00000006        0.00000016        0.00000000
     276         -0.218916        2.000000        0.00000088        0.00000225        0.00000006
     277         -0.218551        2.000000        0.00000004        0.00000033        0.00000001
     278         -0.218398        2.000000        0.00000007        0.00000051        0.00000001
     279         -0.218139        2.000000        0.00000248        0.00001996        0.00000042
     280         -0.217698        2.000000        0.00004526        0.00012147        0.00000249
     281         -0.217580        2.000000        0.00000145        0.00001377        0.00000032
     282         -0.217435        2.000000        0.00000194        0.00000600        0.00000012
     283         -0.216483        2.000000        0.00048190        0.00132965        0.00002633
     284         -0.216363        2.000000        0.00000449        0.00001294        0.00000027
     285         -0.216254        2.000000        0.00009033        0.00024223        0.00000490
     286         -0.215958        2.000000        0.00000014        0.00000078        0.00000001
     287         -0.215645        2.000000        0.00000552        0.00001458        0.00000031
     288         -0.215217        2.000000        0.00035163        0.00160355        0.00002670
     289         -0.214936        2.000000        0.00010047        0.00026409        0.00000538
     290         -0.214221        2.000000        0.00242978        0.00629011        0.00013410
     291         -0.213816        2.000000        0.00003667        0.00009281        0.00000238
     292         -0.213592        2.000000        0.00000353        0.00000894        0.00000020
     293         -0.213468        2.000000        0.00100714        0.00258665        0.00005640
     294         -0.213241        2.000000        0.00052873        0.00141216        0.00002862
     295         -0.213184        2.000000        0.00001025        0.00002676        0.00000057
     296         -0.212817        2.000000        0.00000195        0.00000532        0.00000011
     297         -0.212583        2.000000        0.00021539        0.00065430        0.00001108
     298         -0.212273        2.000000        0.00000091        0.00000222        0.00000006
     299         -0.211896        2.000000        0.00109620        0.00277798        0.00006729
     300         -0.211391        2.000000        0.00036390        0.00087872        0.00002062
     301         -0.211339        2.000000        0.00093869        0.00227278        0.00005333
     302         -0.211269        2.000000        0.00073420        0.00202249        0.00004728
     303         -0.211046        2.000000        0.00005281        0.00012975        0.00000323
     304         -0.210412        2.000000        0.00004417        0.00011490        0.00000183
     305         -0.210309        2.000000        0.00001114        0.00003674        0.00000080
     306         -0.210188        2.000000        0.00037746        0.00102856        0.00002129
     307         -0.210166        2.000000        0.00014711        0.00042346        0.00000868