# Projected DOS for atomic kind H at iteration step i = 0, E(Fermi) =     0.101540 a.u.
#     MO Eigenvalue [a.u.]      Occupation                 s                 p
       1         -0.708367        2.000000        0.19644385        0.15708995
       2         -0.696979        2.000000        0.23494342        0.14713610
       3         -0.695301        2.000000        0.21442279        0.13845409
       4         -0.694902        2.000000        0.19127899        0.15994730
       5         -0.690081        2.000000        0.21089267        0.16320401
       6         -0.686805        2.000000        0.22016562        0.16464865
       7         -0.686571        2.000000        0.21405812        0.15769525
       8         -0.685003        2.000000        0.22912972        0.17545001
       9         -0.684036        2.000000        0.22278229        0.16823829
      10         -0.683920        2.000000        0.21670822        0.16206566
      11         -0.681735        2.000000        0.22273492        0.16855789
      12         -0.679408        2.000000        0.21694728        0.16868118
      13         -0.678932        2.000000        0.23135130        0.15318479
      14         -0.678381        2.000000        0.20244817        0.18241075
      15         -0.677963        2.000000        0.21167679        0.17981738
      16         -0.677540        2.000000        0.21259429        0.18116928
      17         -0.677381        2.000000        0.21958730        0.17126824
      18         -0.677246        2.000000        0.20677780        0.18668350
      19         -0.675827        2.000000        0.20382926        0.18183317
      20         -0.675724        2.000000        0.19644626        0.16501876
      21         -0.674932        2.000000        0.21496623        0.17215711
      22         -0.674380        2.000000        0.19740244        0.18603343
      23         -0.673393        2.000000        0.21917016        0.17415094
      24         -0.672924        2.000000        0.22057959        0.17340521
      25         -0.672289        2.000000        0.20485726        0.18848391
      26         -0.672227        2.000000        0.22606447        0.17426538
      27         -0.671275        2.000000        0.21168893        0.17368117
      28         -0.670770        2.000000        0.20933647        0.17611014
      29         -0.670400        2.000000        0.21267698        0.16070407
      30         -0.669922        2.000000        0.20947020        0.17163496
      31         -0.669606        2.000000        0.22189837        0.15828659
      32         -0.668947        2.000000        0.21011024        0.16290872
      33         -0.668931        2.000000        0.20503910        0.16593556
      34         -0.668431        2.000000        0.20749575        0.16588991
      35         -0.668008        2.000000        0.21927005        0.17131014
      36         -0.667083        2.000000        0.21376133        0.17310644
      37         -0.666996        2.000000        0.20806815        0.19692065
      38         -0.666939        2.000000        0.20999119        0.17387662
      39         -0.666646        2.000000        0.21534505        0.17525040
      40         -0.666363        2.000000        0.20910060        0.17757633
      41         -0.666281        2.000000        0.19659291        0.16833071
      42         -0.666129        2.000000        0.20874855        0.17965526
      43         -0.665867        2.000000        0.20327743        0.18614788
      44         -0.664404        2.000000        0.20753353        0.17456154
      45         -0.664061        2.000000        0.20498899        0.18929365
      46         -0.663948        2.000000        0.21960051        0.17248353
      47         -0.663550        2.000000        0.20932170        0.18718005
      48         -0.662943        2.000000        0.21676788        0.17921737
      49         -0.662627        2.000000        0.20297669        0.19082571
      50         -0.661965        2.000000        0.22017879        0.17371577
      51         -0.661528        2.000000        0.22658592        0.16266335
      52         -0.660900        2.000000        0.22600924        0.16785513
      53         -0.660166        2.000000        0.18886753        0.20193951
      54         -0.659683        2.000000        0.21678445        0.18240047
      55         -0.658835        2.000000        0.19834256        0.19333144
      56         -0.658814        2.000000        0.21511736        0.16444458
      57         -0.658691        2.000000        0.21496625        0.16711455
      58         -0.658084        2.000000        0.20908355        0.18330730
      59         -0.658073        2.000000        0.21609510        0.17426222
      60         -0.657975        2.000000        0.21727873        0.16763285
      61         -0.657678        2.000000        0.20057206        0.19080340
      62         -0.657592        2.000000        0.20127866        0.19053549
      63         -0.657226        2.000000        0.21016245        0.18117624
      64         -0.657087        2.000000        0.19291792        0.19049462
      65         -0.656742        2.000000        0.20971630        0.17419005
      66         -0.656449        2.000000        0.20598602        0.18407035
      67         -0.656215        2.000000        0.20582753        0.18521256
      68         -0.655700        2.000000        0.21489061        0.17563419
      69         -0.655174        2.000000        0.20118768        0.18060462
      70         -0.654827        2.000000        0.18858469        0.19666727
      71         -0.654660        2.000000        0.20854951        0.17679997
      72         -0.654406        2.000000        0.19244271        0.20145234
      73         -0.654250        2.000000        0.19277750        0.20141717
      74         -0.653619        2.000000        0.19340044        0.18529051
      75         -0.653105        2.000000        0.21745604        0.16525635
      76         -0.652904        2.000000        0.21176977        0.17482569
      77         -0.652612        2.000000        0.19949237        0.18817330
      78         -0.652411        2.000000        0.18556106        0.20302241
      79         -0.652213        2.000000        0.21120673        0.17636639
      80         -0.652083        2.000000        0.21630405        0.16842245
      81         -0.651807        2.000000        0.21212175        0.17301635
      82         -0.651706        2.000000        0.19495545        0.19185135
      83         -0.651237        2.000000        0.21064080        0.18245711
      84         -0.651053        2.000000        0.21010650        0.18552346
      85         -0.650411        2.000000        0.20366284        0.17897671
      86         -0.650326        2.000000        0.20445471        0.17927276
      87         -0.650219        2.000000        0.20558765        0.18811269
      88         -0.650130        2.000000        0.20596633        0.18558936
      89         -0.649849        2.000000        0.20795333        0.18093631
      90         -0.649510        2.000000        0.19971733        0.18603400
      91         -0.648737        2.000000        0.20614107        0.18434732
      92         -0.648608        2.000000        0.20834351        0.18159818
      93         -0.648509        2.000000        0.19699529        0.19593646
      94         -0.648091        2.000000        0.20330742        0.18714601
      95         -0.647956        2.000000        0.19364776        0.19150549
      96         -0.647875        2.000000        0.19256769        0.19491944
      97         -0.647628        2.000000        0.18398898        0.20499516
      98         -0.647248        2.000000        0.19247090        0.19327884
      99         -0.646997        2.000000        0.20344607        0.18986068
     100         -0.646893        2.000000        0.20104968        0.19309007
     101         -0.646794        2.000000        0.21454624        0.17423726
     102         -0.645843        2.000000        0.22300556        0.16381646
     103         -0.645519        2.000000        0.19920449        0.18859375
     104         -0.645232        2.000000        0.20614763        0.19247154
     105         -0.644964        2.000000        0.18563210        0.20714502
     106         -0.644451        2.000000        0.20828377        0.18562187
     107         -0.644170        2.000000        0.19126836        0.20795728
     108         -0.643891        2.000000        0.19439952        0.19725954
     109         -0.643862        2.000000        0.19556291        0.20166192
     110         -0.643478        2.000000        0.18208983        0.21299565
     111         -0.643325        2.000000        0.20217082        0.19491638
     112         -0.642934        2.000000        0.20217884        0.19014923
     113         -0.642899        2.000000        0.17460539        0.22080757
     114         -0.642460        2.000000        0.18180457        0.21480228
     115         -0.642175        2.000000        0.20098989        0.18815853
     116         -0.642120        2.000000        0.18205127        0.21060955
     117         -0.641851        2.000000        0.20369985        0.18768732
     118         -0.641683        2.000000        0.19284201        0.20459720
     119         -0.641305        2.000000        0.20505989        0.19153442
     120         -0.641072        2.000000        0.19702781        0.19809273
     121         -0.640960        2.000000        0.18516892        0.20740691
     122         -0.640793        2.000000        0.19180212        0.20142656
     123         -0.640578        2.000000        0.19296152        0.20227815
     124         -0.640464        2.000000        0.19417395        0.20290202
     125         -0.640169        2.000000        0.19845884        0.19276609
     126         -0.639736        2.000000        0.19452779        0.19802805
     127         -0.639499        2.000000        0.20337587        0.19059490
     128         -0.639154        2.000000        0.19621136        0.20069903
     129         -0.639060        2.000000        0.18436156        0.21232078
     130         -0.638976        2.000000        0.18594523        0.20781767
     131         -0.638593        2.000000        0.19780659        0.19171154
     132         -0.638261        2.000000        0.18348831        0.21226871
     133         -0.638059        2.000000        0.19080183        0.21312597
     134         -0.637912        2.000000        0.19771370        0.20179901
     135         -0.637762        2.000000        0.17549856        0.22302965
     136         -0.637584        2.000000        0.19455604        0.19737214
     137         -0.636804        2.000000        0.18326361        0.21272936
     138         -0.636640        2.000000        0.19749019        0.19806362
     139         -0.636429        2.000000        0.19644594        0.19999967
     140         -0.635515        2.000000        0.20286987        0.19144447
     141         -0.634989        2.000000        0.20182512        0.19775831
     142         -0.634462        2.000000        0.20782410        0.19063661
     143         -0.634132        2.000000        0.19605817        0.20488640
     144         -0.633763        2.000000        0.19419347        0.20558915
     145         -0.633531        2.000000        0.16772030        0.23004493
     146         -0.632585        2.000000        0.20400184        0.19143269
     147         -0.632333        2.000000        0.19460684        0.19182961
     148         -0.632031        2.000000        0.18763578        0.20795554
     149         -0.631841        2.000000        0.20361004        0.18604505
     150         -0.631318        2.000000        0.20253841        0.18989623
     151         -0.630640        2.000000        0.20021291        0.19645940
     152         -0.630519        2.000000        0.19614877        0.20055308
     153         -0.630490        2.000000        0.17335568        0.22479372
     154         -0.629959        2.000000        0.19236491        0.20706720
     155         -0.629452        2.000000        0.19225926        0.20535315
     156         -0.629210        2.000000        0.18160555        0.20669327
     157         -0.628856        2.000000        0.15614774        0.21423192
     158         -0.628516        2.000000        0.18393231        0.21194921
     159         -0.628511        2.000000        0.18280472        0.21849016
     160         -0.628382        2.000000        0.17777707        0.22391229
     161         -0.628242        2.000000        0.18178313        0.21781693
     162         -0.628026        2.000000        0.18673451        0.21128440
     163         -0.627712        2.000000        0.18861735        0.20661234
     164         -0.627438        2.000000        0.19773128        0.20120135
     165         -0.627281        2.000000        0.18291736        0.21865879
     166         -0.626983        2.000000        0.19288997        0.20635478
     167         -0.626804        2.000000        0.20385468        0.19202475
     168         -0.626588        2.000000        0.19011965        0.21014142
     169         -0.626019        2.000000        0.17630221        0.21982888
     170         -0.625843        2.000000        0.18357506        0.21287727
     171         -0.625019        2.000000        0.18440127        0.21212789
     172         -0.624831        2.000000        0.19754261        0.20406631
     173         -0.624166        2.000000        0.18060219        0.21367661
     174         -0.623906        2.000000        0.19442841        0.19670804
     175         -0.623799        2.000000        0.19715107        0.18670696
     176         -0.623716        2.000000        0.19470979        0.20155022
     177         -0.623382        2.000000        0.18965189        0.21071877
     178         -0.623067        2.000000        0.17091775        0.21864968
     179         -0.622801        2.000000        0.19563452        0.20684250
     180         -0.622617        2.000000        0.18191464        0.21972772
     181         -0.622499        2.000000        0.18481740        0.21495972
     182         -0.621672        2.000000        0.18713560        0.20882652
     183         -0.621151        2.000000        0.17975091        0.21744350
     184         -0.620781        2.000000        0.18225636        0.21913856
     185         -0.620579        2.000000        0.18309908        0.22152261
     186         -0.619930        2.000000        0.17033641        0.22565219
     187         -0.618694        2.000000        0.18612450        0.19877437
     188         -0.618461        2.000000        0.19397056        0.20415966
     189         -0.618211        2.000000        0.16196914        0.22578045
     190         -0.617957        2.000000        0.18624670        0.20622104
     191         -0.617770        2.000000        0.19098147        0.20703246
     192         -0.617636        2.000000        0.18417805        0.21575862
     193         -0.617200        2.000000        0.18808127        0.21319925
     194         -0.616810        2.000000        0.18892946        0.21268389
     195         -0.615618        2.000000        0.17000140        0.23034071
     196         -0.615377        2.000000        0.18387511        0.21434355
     197         -0.615228        2.000000        0.16956824        0.23013911
     198         -0.614941        2.000000        0.17621908        0.21576433
     199         -0.613862        2.000000        0.18894901        0.21540612
     200         -0.613167        2.000000        0.19013561        0.21087960
     201         -0.612937        2.000000        0.16287270        0.23745434
     202         -0.612465        2.000000        0.18281355        0.22529356
     203         -0.611371        2.000000        0.17923392        0.22203062
     204         -0.611273        2.000000        0.16124064        0.24127814
     205         -0.610903        2.000000        0.17308292        0.22649796
     206         -0.609912        2.000000        0.18569344        0.20396289
     207         -0.609442        2.000000        0.16802295        0.22360582
     208         -0.609149        2.000000        0.18023695        0.21319878
     209         -0.608882        2.000000        0.16225941        0.21750921
     210         -0.608562        2.000000        0.17092550        0.24192293
     211         -0.608012        2.000000        0.18043428        0.21845947
     212         -0.607014        2.000000        0.17874880        0.22654409
     213         -0.606300        2.000000        0.17601773        0.22966258
     214         -0.605948        2.000000        0.17049562        0.21244667
     215         -0.605403        2.000000        0.17020023        0.21421826
     216         -0.604664        2.000000        0.18283916        0.21809199
     217         -0.604080        2.000000        0.17919372        0.23636291
     218         -0.603538        2.000000        0.17782438        0.22524748
     219         -0.603145        2.000000        0.17553951        0.22725712
     220         -0.602213        2.000000        0.18020723        0.22434672
     221         -0.601871        2.000000        0.17896103        0.21399763
     222         -0.600521        2.000000        0.17002160        0.21786470
     223         -0.599848        2.000000        0.17783344        0.22584279
     224         -0.598111        2.000000        0.16869655        0.23510176
     225         -0.597286        2.000000        0.17431982        0.22880840
     226         -0.597121        2.000000        0.17393346        0.23260996
     227         -0.595585        2.000000        0.17390656        0.22784471
     228         -0.591103        2.000000        0.16920990        0.22663157
     229         -0.582585        2.000000        0.18560977        0.20627493
     230         -0.576283        2.000000        0.15481438        0.23776863
     231         -0.258156        2.000000        0.23784876        0.03171087
     232         -0.253473        2.000000        0.24243488        0.04788278
     233         -0.246233        2.000000        0.24664571        0.04201503
     234         -0.244651        2.000000        0.23262742        0.04548592
     235         -0.243092        2.000000        0.25087224        0.03652983
     236         -0.242544        2.000000        0.23224859        0.03063234
     237         -0.241048        2.000000        0.23306300        0.04260988
     238         -0.240546        2.000000        0.24389809        0.04590186
     239         -0.237982        2.000000        0.25659162        0.03598001
     240         -0.237798        2.000000        0.22471335        0.03996462
     241         -0.236566        2.000000        0.10106845        0.01272038
     242         -0.235920        2.000000        0.16488732        0.01832606
     243         -0.233145        2.000000        0.23969914        0.04485683
     244         -0.232785        2.000000        0.23772270        0.04374014
     245         -0.232224        2.000000        0.24533449        0.03974602
     246         -0.232174        2.000000        0.24358967        0.04027295
     247         -0.232015        2.000000        0.24491060        0.03877128
     248         -0.230744        2.000000        0.23578315        0.04202693
     249         -0.230697        2.000000        0.24500329        0.03439667
     250         -0.229959        2.000000        0.24603306        0.04166218
     251         -0.229741        2.000000        0.24186635        0.04238109
     252         -0.228898        2.000000        0.23740137        0.03669474
     253         -0.227939        2.000000        0.24567893        0.04335623
     254         -0.227542        2.000000        0.23851452        0.03789016
     255         -0.227010        2.000000        0.24454721        0.04089857
     256         -0.226860        2.000000        0.24912111        0.03589744
     257         -0.226780        2.000000        0.24592602        0.03853905
     258         -0.226656        2.000000        0.24409007        0.04026356
     259         -0.226503        2.000000        0.26296005        0.03251889
     260         -0.226036        2.000000        0.23821726        0.04464271
     261         -0.225667        2.000000        0.24639892        0.03537970
     262         -0.225511        2.000000        0.25287423        0.03784145
     263         -0.224716        2.000000        0.24012979        0.04138646
     264         -0.224218        2.000000        0.24789595        0.04027777
     265         -0.223677        2.000000        0.24342564        0.03567878
     266         -0.223438        2.000000        0.24318426        0.04191054
     267         -0.223292        2.000000        0.24745433        0.04463378
     268         -0.223025        2.000000        0.24588798        0.03771773
     269         -0.222436        2.000000        0.24920222        0.03354244
     270         -0.222159        2.000000        0.24040379        0.03320849
     271         -0.221905        2.000000        0.24572927        0.03916020
     272         -0.221185        2.000000        0.25487617        0.03397573
     273         -0.220659        2.000000        0.24004528        0.04458028
     274         -0.219665        2.000000        0.24259697        0.04086836
     275         -0.219630        2.000000        0.24310362        0.04083195
     276         -0.218916        2.000000        0.23794738        0.04185481
     277         -0.218551        2.000000        0.23180583        0.04099445
     278         -0.218398        2.000000        0.23655651        0.04146771
     279         -0.218139        2.000000        0.24460830        0.03943514
     280         -0.217698        2.000000        0.24896011        0.03558558
     281         -0.217580        2.000000        0.24370774        0.03768325
     282         -0.217435        2.000000        0.24012623        0.03524394
     283         -0.216483        2.000000        0.25292018        0.03173011
     284         -0.216363        2.000000        0.25048263        0.03726926
     285         -0.216254        2.000000        0.24410794        0.04019525
     286         -0.215958        2.000000        0.24875740        0.03497416
     287         -0.215645        2.000000        0.23776379        0.03385319
     288         -0.215217        2.000000        0.25033044        0.04211735
     289         -0.214936        2.000000        0.24923499        0.03718346
     290         -0.214221        2.000000        0.24672544        0.03924235
     291         -0.213816        2.000000        0.24514288        0.03973275
     292         -0.213592        2.000000        0.23433561        0.04417770
     293         -0.213468        2.000000        0.23807432        0.04248023
     294         -0.213241        2.000000        0.24538920        0.03658593
     295         -0.213184        2.000000        0.22618713        0.03852265
     296         -0.212817        2.000000        0.24204852        0.03677263
     297         -0.212583        2.000000        0.25000766        0.03475598
     298         -0.212273        2.000000        0.22746757        0.04573663
     299         -0.211896        2.000000        0.24379548        0.04193016
     300         -0.211391        2.000000        0.23013089        0.03622732
     301         -0.211339        2.000000        0.24744320        0.03619527
     302         -0.211269        2.000000        0.24608898        0.04109034
     303         -0.211046        2.000000        0.22595217        0.03704248
     304         -0.210412        2.000000        0.21440061        0.03980339
     305         -0.210309        2.000000        0.22209397        0.04031502
     306         -0.210188        2.000000        0.21233019        0.03367705
     307         -0.210166        2.000000        0.22547448        0.03684402
     308         -0.209966        2.000000        0.22709233        0.03821561
     309         -0.209833        2.000000        0.24976748        0.03289287
     310         -0.208916        2.000000        0.21736044        0.03479474
     311         -0.208704        2.000000        0.24278175        0.03562347
     312         -0.207928        2.000000        0.23324089        0.04104324
     313         -0.207765        2.000000        0.23487692        0.03537468
     314         -0.207635        2.000000        0.24467780        0.04042229
     315         -0.207240        2.000000        0.22827754        0.03645385
     316         -0.207154        2.000000        0.12997379        0.02224304
     317         -0.207053        2.000000        0.18146367        0.02793303
     318         -0.206905        2.000000        0.21538231        0.03402054
     319         -0.206709        2.000000        0.24550994        0.03789789
     320         -0.206583        2.000000        0.20851979        0.03138560
     321         -0.206406        2.000000        0.20010829        0.03155425
     322         -0.206313        2.000000        0.08942195        0.01383591
     323         -0.205977        2.000000        0.22776954        0.03656217
     324         -0.205765        2.000000        0.20937381        0.03491570
     325         -0.205731        2.000000        0.23442600        0.03430017
     326         -0.205036        2.000000        0.05308981        0.00853645
     327         -0.204858        2.000000        0.10092794        0.01537379
     328         -0.204650        2.000000        0.24063027        0.03465271
     329         -0.204524        2.000000        0.07230852        0.01126382
     330         -0.204464        2.000000        0.19182448        0.02940516
     331         -0.204302        2.000000        0.21396684        0.03027671
     332         -0.203990        2.000000        0.24761635        0.03801279
     333         -0.203592        2.000000        0.22487756        0.03442683
     334         -0.203417        2.000000        0.23822984        0.03832231
     335         -0.203247        2.000000        0.24210441        0.03659410
     336         -0.202995        2.000000        0.08045868        0.01454764
     337         -0.202690        2.000000        0.19154189        0.03290130
     338         -0.202587        2.000000        0.24304575        0.03462078
     339         -0.202448        2.000000        0.24137684        0.04170266
     340         -0.202242        2.000000        0.24264936        0.04121997
     341         -0.202041        2.000000        0.24756726        0.03980068
     342         -0.201965        2.000000        0.21266196        0.03232412
     343         -0.201537        2.000000        0.23679651        0.03427561
     344         -0.201345        2.000000        0.24413698        0.03813025
     345         -0.201106        2.000000        0.25043959        0.03397630
     346         -0.201067        2.000000        0.24673011        0.03606986
     347         -0.200815        2.000000        0.24965810        0.03239397
     348         -0.200450        2.000000        0.25192546        0.03372962
     349         -0.199885        2.000000        0.24520628        0.03801695
     350         -0.199511        2.000000        0.24640391        0.03682574
     351         -0.199343        2.000000        0.23985961        0.03868956
     352         -0.198991        2.000000        0.24559034        0.03844269
     353         -0.198765        2.000000        0.24514677        0.03250209
     354         -0.198727        2.000000        0.24389169        0.03869334
     355         -0.198429        2.000000        0.24158823        0.04295098
     356         -0.198237        2.000000        0.23631277        0.04368859
     357         -0.198144        2.000000        0.24005595        0.04109786
     358         -0.197914        2.000000        0.23526269        0.03538503
     359         -0.197746        2.000000        0.24713642        0.03443578
     360         -0.197411        2.000000        0.24125301        0.03907959
     361         -0.197306        2.000000        0.25256233        0.03442623
     362         -0.196874        2.000000        0.24053604        0.04097544
     363         -0.196738        2.000000        0.24044469        0.03958540
     364         -0.196549        2.000000        0.25107960        0.03501907
     365         -0.196216        2.000000        0.23412909        0.03919203
     366         -0.196204        2.000000        0.23130313        0.04271572
     367         -0.196080        2.000000        0.24122837        0.03676106
     368         -0.196013        2.000000        0.24303170        0.03868751
     369         -0.195620        2.000000        0.23933371        0.04159001
     370         -0.195353        2.000000        0.24374814        0.03860008
     371         -0.193957        2.000000        0.23545245        0.04607613
     372         -0.193799        2.000000        0.23774153        0.03594534
     373         -0.193741        2.000000        0.23734094        0.03541387
     374         -0.192979        2.000000        0.23896070        0.04183890
     375         -0.192814        2.000000        0.24369179        0.04029863
     376         -0.192682        2.000000        0.24621620        0.03957744
     377         -0.192575        2.000000        0.24838811        0.03690162