# Projected DOS for list 190 of 3 atoms, at iteration step i = 0, E(Fermi) =     0.101540 a.u.
#     MO Eigenvalue [a.u.]      Occupation                 s                 p                 d
       1         -0.708367        2.000000        0.00000000        0.00000000        0.00000000
       2         -0.696979        2.000000        0.00000000        0.00000000        0.00000000
       3         -0.695301        2.000000        0.00000000        0.00000000        0.00000000
       4         -0.694902        2.000000        0.00005498        0.00004161        0.00000025
       5         -0.690081        2.000000        0.00475709        0.00139712        0.00001581
       6         -0.686805        2.000000        0.00000000        0.00000000        0.00000000
       7         -0.686571        2.000000        0.00000000        0.00000000        0.00000000
       8         -0.685003        2.000000        0.00000000        0.00000000        0.00000000
       9         -0.684036        2.000000        0.00000000        0.00000000        0.00000000
      10         -0.683920        2.000000        0.00065814        0.00022739        0.00000212
      11         -0.681735        2.000000        0.00000000        0.00000000        0.00000000
      12         -0.679408        2.000000        0.00000000        0.00000000        0.00000000
      13         -0.678932        2.000000        0.00285173        0.00061154        0.00000345
      14         -0.678381        2.000000        0.00000000        0.00000000        0.00000000
      15         -0.677963        2.000000        0.00000000        0.00000000        0.00000000
      16         -0.677540        2.000000        0.00000000        0.00000000        0.00000000
      17         -0.677381        2.000000        0.00051682        0.00023486        0.00000068
      18         -0.677246        2.000000        0.00000000        0.00000000        0.00000000
      19         -0.675827        2.000000        0.00000001        0.00000000        0.00000000
      20         -0.675724        2.000000        0.11770925        0.02710537        0.00013556
      21         -0.674932        2.000000        0.01793934        0.00375761        0.00002123
      22         -0.674380        2.000000        0.00000000        0.00000000        0.00000000
      23         -0.673393        2.000000        0.00000000        0.00000000        0.00000000
      24         -0.672924        2.000000        0.01371192        0.00271982        0.00004134
      25         -0.672289        2.000000        0.00000000        0.00000000        0.00000000
      26         -0.672227        2.000000        0.00000014        0.00000005        0.00000000
      27         -0.671275        2.000000        0.00067179        0.00093455        0.00008185
      28         -0.670770        2.000000        0.00000000        0.00000000        0.00000000
      29         -0.670400        2.000000        0.00000000        0.00000000        0.00000000
      30         -0.669922        2.000000        0.00000002        0.00000000        0.00000000
      31         -0.669606        2.000000        0.00000036        0.00000712        0.00000069
      32         -0.668947        2.000000        0.00001724        0.00002757        0.00000063
      33         -0.668931        2.000000        0.00004535        0.00005290        0.00000127
      34         -0.668431        2.000000        0.00000239        0.00000050        0.00000002
      35         -0.668008        2.000000        0.00001040        0.00000196        0.00000008
      36         -0.667083        2.000000        0.00000200        0.00000037        0.00000002
      37         -0.666996        2.000000        0.00000468        0.00002590        0.00000261
      38         -0.666939        2.000000        0.00000049        0.00000009        0.00000000
      39         -0.666646        2.000000        0.00005360        0.00000913        0.00000032
      40         -0.666363        2.000000        0.00003084        0.00000547        0.00000017
      41         -0.666281        2.000000        0.00005135        0.00006686        0.00000297
      42         -0.666129        2.000000        0.00000648        0.00000129        0.00000004
      43         -0.665867        2.000000        0.00000277        0.00000042        0.00000001
      44         -0.664404        2.000000        0.17693005        0.02720350        0.00066632
      45         -0.664061        2.000000        0.00050525        0.00007537        0.00000182
      46         -0.663948        2.000000        0.00210105        0.00029268        0.00000733
      47         -0.663550        2.000000        0.00008410        0.00001183        0.00000030
      48         -0.662943        2.000000        0.01024222        0.00109946        0.00005221
      49         -0.662627        2.000000        0.00000001        0.00000000        0.00000000
      50         -0.661965        2.000000        0.00000438        0.00000065        0.00000002
      51         -0.661528        2.000000        0.00130993        0.00030478        0.00000588
      52         -0.660900        2.000000        0.01050887        0.00155749        0.00003649
      53         -0.660166        2.000000        0.00000102        0.00000015        0.00000000
      54         -0.659683        2.000000        0.01212613        0.00255845        0.00003359
      55         -0.658835        2.000000        0.00000012        0.00000015        0.00000000
      56         -0.658814        2.000000        0.00089125        0.00027233        0.00000275
      57         -0.658691        2.000000        0.00013208        0.00056104        0.00000587
      58         -0.658084        2.000000        0.00043647        0.00012602        0.00000482
      59         -0.658073        2.000000        0.00123049        0.00036558        0.00001385
      60         -0.657975        2.000000        0.00000039        0.00000042        0.00000001
      61         -0.657678        2.000000        0.00000333        0.00000057        0.00000003
      62         -0.657592        2.000000        0.00000094        0.00000048        0.00000002
      63         -0.657226        2.000000        0.01381411        0.00285207        0.00016931
      64         -0.657087        2.000000        0.00000011        0.00000065        0.00000001
      65         -0.656742        2.000000        0.00000443        0.00000883        0.00000012
      66         -0.656449        2.000000        0.00000896        0.00001207        0.00000047
      67         -0.656215        2.000000        0.00001851        0.00004005        0.00000104
      68         -0.655700        2.000000        0.00004421        0.00009306        0.00000177
      69         -0.655174        2.000000        0.02621298        0.01239245        0.00009669
      70         -0.654827        2.000000        0.00001283        0.00001061        0.00000016
      71         -0.654660        2.000000        0.00128420        0.00623308        0.00010910
      72         -0.654406        2.000000        0.00000567        0.00001739        0.00000026
      73         -0.654250        2.000000        0.00000162        0.00000557        0.00000008
      74         -0.653619        2.000000        0.00978742        0.00359769        0.00002811
      75         -0.653105        2.000000        0.00010619        0.00024951        0.00000215
      76         -0.652904        2.000000        0.00163793        0.00110169        0.00000754
      77         -0.652612        2.000000        0.00002282        0.00000767        0.00000005
      78         -0.652411        2.000000        0.00000060        0.00000038        0.00000000
      79         -0.652213        2.000000        0.00017481        0.00039161        0.00000537
      80         -0.652083        2.000000        0.00007004        0.00001934        0.00000036
      81         -0.651807        2.000000        0.00007406        0.00054218        0.00001026
      82         -0.651706        2.000000        0.00080859        0.00233740        0.00007277
      83         -0.651237        2.000000        0.00000451        0.00000549        0.00000004
      84         -0.651053        2.000000        0.00000593        0.00000947        0.00000037
      85         -0.650411        2.000000        0.00035830        0.00156251        0.00001312
      86         -0.650326        2.000000        0.00082983        0.00098217        0.00001703
      87         -0.650219        2.000000        0.00000822        0.00001785        0.00000018
      88         -0.650130        2.000000        0.00034710        0.00008561        0.00000429
      89         -0.649849        2.000000        0.00018641        0.00011878        0.00000199
      90         -0.649510        2.000000        0.00001152        0.00000567        0.00000011
      91         -0.648737        2.000000        0.00001477        0.00009545        0.00000066
      92         -0.648608        2.000000        0.00184098        0.00109711        0.00001453
      93         -0.648509        2.000000        0.00007838        0.00002547        0.00000051
      94         -0.648091        2.000000        0.00243154        0.00063513        0.00001381
      95         -0.647956        2.000000        0.00713552        0.00582081        0.00007385
      96         -0.647875        2.000000        0.00001422        0.00000298        0.00000008
      97         -0.647628        2.000000        0.00000502        0.00000119        0.00000003
      98         -0.647248        2.000000        0.00000085        0.00000128        0.00000001
      99         -0.646997        2.000000        0.00000731        0.00004996        0.00000088
     100         -0.646893        2.000000        0.00032432        0.00019208        0.00000054
     101         -0.646794        2.000000        0.00001349        0.00001989        0.00000009
     102         -0.645843        2.000000        0.00035041        0.00017192        0.00000078
     103         -0.645519        2.000000        0.00002802        0.00000716        0.00000011
     104         -0.645232        2.000000        0.00002630        0.00000716        0.00000039
     105         -0.644964        2.000000        0.00000467        0.00000207        0.00000001
     106         -0.644451        2.000000        0.00073186        0.00028131        0.00000102
     107         -0.644170        2.000000        0.00009211        0.00003002        0.00000018
     108         -0.643891        2.000000        0.00624518        0.00215545        0.00001139
     109         -0.643862        2.000000        0.00251841        0.00087266        0.00000433
     110         -0.643478        2.000000        0.00005973        0.00002608        0.00000016
     111         -0.643325        2.000000        0.00141774        0.00051964        0.00000281
     112         -0.642934        2.000000        0.00688864        0.00285036        0.00000846
     113         -0.642899        2.000000        0.00001096        0.00000439        0.00000001
     114         -0.642460        2.000000        0.00000076        0.00000019        0.00000001
     115         -0.642175        2.000000        0.01205248        0.00331518        0.00003875
     116         -0.642120        2.000000        0.00041244        0.00014043        0.00000083
     117         -0.641851        2.000000        0.00097358        0.00047406        0.00000105
     118         -0.641683        2.000000        0.00140585        0.00047317        0.00000273
     119         -0.641305        2.000000        0.01050721        0.00358581        0.00002053
     120         -0.641072        2.000000        0.00535444        0.00216439        0.00000740
     121         -0.640960        2.000000        0.00166648        0.00057826        0.00000892
     122         -0.640793        2.000000        0.03363745        0.01325978        0.00005466
     123         -0.640578        2.000000        0.00288908        0.00118405        0.00000422
     124         -0.640464        2.000000        0.00100725        0.00038616        0.00000202
     125         -0.640169        2.000000        0.02198913        0.00845829        0.00003177
     126         -0.639736        2.000000        0.10011342        0.03612675        0.00017066
     127         -0.639499        2.000000        0.02469466        0.00843367        0.00004859
     128         -0.639154        2.000000        0.00158492        0.00071749        0.00000194
     129         -0.639060        2.000000        0.02596887        0.01123393        0.00003058
     130         -0.638976        2.000000        0.00861785        0.00349023        0.00001151
     131         -0.638593        2.000000        0.01272239        0.00440740        0.00002665
     132         -0.638261        2.000000        0.00001054        0.00000298        0.00000005
     133         -0.638059        2.000000        0.00147730        0.00051173        0.00000314
     134         -0.637912        2.000000        0.00120034        0.00044923        0.00000206
     135         -0.637762        2.000000        0.00008942        0.00003452        0.00000014
     136         -0.637584        2.000000        0.00165728        0.00088685        0.00000148
     137         -0.636804        2.000000        0.00000109        0.00000042        0.00000000
     138         -0.636640        2.000000        0.00004254        0.00002573        0.00000008
     139         -0.636429        2.000000        0.00050176        0.00016302        0.00000169
     140         -0.635515        2.000000        0.00077279        0.00022311        0.00000334
     141         -0.634989        2.000000        0.00000613        0.00000187        0.00000002
     142         -0.634462        2.000000        0.00000728        0.00000424        0.00000001
     143         -0.634132        2.000000        0.00001033        0.00000379        0.00000004
     144         -0.633763        2.000000        0.00033953        0.00013294        0.00000080
     145         -0.633531        2.000000        0.00000108        0.00000037        0.00000000
     146         -0.632585        2.000000        0.00000361        0.00000173        0.00000001
     147         -0.632333        2.000000        0.00241387        0.00078088        0.00001139
     148         -0.632031        2.000000        0.00017697        0.00005716        0.00000119
     149         -0.631841        2.000000        0.00262369        0.00085407        0.00001325
     150         -0.631318        2.000000        0.00007867        0.00003249        0.00000037
     151         -0.630640        2.000000        0.00040433        0.00013385        0.00000208
     152         -0.630519        2.000000        0.00009528        0.00003184        0.00000049
     153         -0.630490        2.000000        0.00005300        0.00001746        0.00000028
     154         -0.629959        2.000000        0.00000074        0.00000520        0.00000006
     155         -0.629452        2.000000        0.00074041        0.00026147        0.00000384
     156         -0.629210        2.000000        0.00002036        0.00000725        0.00000011
     157         -0.628856        2.000000        0.00063618        0.00053921        0.00000114
     158         -0.628516        2.000000        0.00007217        0.00003042        0.00000047
     159         -0.628511        2.000000        0.00001492        0.00001256        0.00000002
     160         -0.628382        2.000000        0.00019263        0.00007421        0.00000060
     161         -0.628242        2.000000        0.00000712        0.00001667        0.00000009
     162         -0.628026        2.000000        0.00003546        0.00002252        0.00000010
     163         -0.627712        2.000000        0.00012544        0.00004425        0.00000067
     164         -0.627438        2.000000        0.00040881        0.00013134        0.00000251
     165         -0.627281        2.000000        0.00010838        0.00003628        0.00000065
     166         -0.626983        2.000000        0.00054037        0.00017772        0.00000334
     167         -0.626804        2.000000        0.00010460        0.00003133        0.00000113
     168         -0.626588        2.000000        0.00021138        0.00006660        0.00000153
     169         -0.626019        2.000000        0.00034917        0.00015531        0.00000079
     170         -0.625843        2.000000        0.00006408        0.00002041        0.00000048
     171         -0.625019        2.000000        0.00046543        0.00015146        0.00000357
     172         -0.624831        2.000000        0.00060103        0.00020048        0.00000424
     173         -0.624166        2.000000        0.00389773        0.00128310        0.00003362
     174         -0.623906        2.000000        0.00003584        0.00001195        0.00000032
     175         -0.623799        2.000000        0.00015615        0.00005280        0.00000131
     176         -0.623716        2.000000        0.00002296        0.00000745        0.00000018
     177         -0.623382        2.000000        0.00005543        0.00001822        0.00000040
     178         -0.623067        2.000000        0.00000026        0.00000009        0.00000000
     179         -0.622801        2.000000        0.00045369        0.00014994        0.00000381
     180         -0.622617        2.000000        0.00722766        0.00239672        0.00006337
     181         -0.622499        2.000000        0.00101654        0.00033760        0.00000900
     182         -0.621672        2.000000        0.00027121        0.00009167        0.00000258
     183         -0.621151        2.000000        0.00022948        0.00007763        0.00000228
     184         -0.620781        2.000000        0.00043242        0.00014633        0.00000443
     185         -0.620579        2.000000        0.00059116        0.00020645        0.00000584
     186         -0.619930        2.000000        0.00006048        0.00002193        0.00000059
     187         -0.618694        2.000000        0.00000005        0.00000002        0.00000000
     188         -0.618461        2.000000        0.00017476        0.00006029        0.00000286
     189         -0.618211        2.000000        0.00000067        0.00000026        0.00000001
     190         -0.617957        2.000000        0.00000150        0.00000131        0.00000005
     191         -0.617770        2.000000        0.00003327        0.00001187        0.00000062
     192         -0.617636        2.000000        0.00000947        0.00000450        0.00000008
     193         -0.617200        2.000000        0.00000144        0.00000160        0.00000004
     194         -0.616810        2.000000        0.00001204        0.00000513        0.00000028
     195         -0.615618        2.000000        0.00000162        0.00000081        0.00000002
     196         -0.615377        2.000000        0.00000180        0.00000067        0.00000003
     197         -0.615228        2.000000        0.00002873        0.00001064        0.00000037
     198         -0.614941        2.000000        0.00000004        0.00000002        0.00000000
     199         -0.613862        2.000000        0.00000085        0.00000369        0.00000001
     200         -0.613167        2.000000        0.00000055        0.00000321        0.00000001
     201         -0.612937        2.000000        0.00000000        0.00000000        0.00000000
     202         -0.612465        2.000000        0.00000003        0.00000029        0.00000000
     203         -0.611371        2.000000        0.00000021        0.00000012        0.00000001
     204         -0.611273        2.000000        0.00000398        0.00000158        0.00000008
     205         -0.610903        2.000000        0.00000040        0.00000016        0.00000001
     206         -0.609912        2.000000        0.00000008        0.00000003        0.00000000
     207         -0.609442        2.000000        0.00000000        0.00000000        0.00000000
     208         -0.609149        2.000000        0.00000006        0.00000005        0.00000000
     209         -0.608882        2.000000        0.00000061        0.00000043        0.00000001
     210         -0.608562        2.000000        0.00000057        0.00000258        0.00000002
     211         -0.608012        2.000000        0.00000283        0.00000108        0.00000005
     212         -0.607014        2.000000        0.00000001        0.00000001        0.00000000
     213         -0.606300        2.000000        0.00000013        0.00000009        0.00000000
     214         -0.605948        2.000000        0.00000013        0.00000006        0.00000000
     215         -0.605403        2.000000        0.00000014        0.00000006        0.00000000
     216         -0.604664        2.000000        0.00000291        0.00000124        0.00000006
     217         -0.604080        2.000000        0.00000004        0.00000013        0.00000000
     218         -0.603538        2.000000        0.00000142        0.00000079        0.00000003
     219         -0.603145        2.000000        0.00000037        0.00000017        0.00000001
     220         -0.602213        2.000000        0.00000074        0.00000114        0.00000001
     221         -0.601871        2.000000        0.00000002        0.00000010        0.00000000
     222         -0.600521        2.000000        0.00000003        0.00000004        0.00000000
     223         -0.599848        2.000000        0.00000039        0.00000119        0.00000001
     224         -0.598111        2.000000        0.00000082        0.00000040        0.00000002
     225         -0.597286        2.000000        0.00000728        0.00000354        0.00000020
     226         -0.597121        2.000000        0.00000916        0.00000448        0.00000026
     227         -0.595585        2.000000        0.00019915        0.00010032        0.00000561
     228         -0.591103        2.000000        0.00000000        0.00000000        0.00000000
     229         -0.582585        2.000000        0.00000000        0.00000000        0.00000000
     230         -0.576283        2.000000        0.00000000        0.00000000        0.00000000
     231         -0.258156        2.000000        0.00000000        0.00000000        0.00000000
     232         -0.253473        2.000000        0.00000000        0.00000000        0.00000000
     233         -0.246233        2.000000        0.00000000        0.00000001        0.00000000
     234         -0.244651        2.000000        0.00000000        0.00000000        0.00000000
     235         -0.243092        2.000000        0.00000000        0.00000000        0.00000000
     236         -0.242544        2.000000        0.00006120        0.00015493        0.00000337
     237         -0.241048        2.000000        0.00000006        0.00000016        0.00000000
     238         -0.240546        2.000000        0.00000000        0.00000001        0.00000000
     239         -0.237982        2.000000        0.00000457        0.00001308        0.00000022
     240         -0.237798        2.000000        0.03511687        0.10104092        0.00165061
     241         -0.236566        2.000000        0.00132330        0.00396799        0.00006093
     242         -0.235920        2.000000        0.00035987        0.00110880        0.00001642
     243         -0.233145        2.000000        0.10063053        0.26473147        0.00506937
     244         -0.232785        2.000000        0.00000203        0.00000562        0.00000010
     245         -0.232224        2.000000        0.00000465        0.00001252        0.00000022
     246         -0.232174        2.000000        0.00166483        0.00435149        0.00008478
     247         -0.232015        2.000000        0.01117700        0.02930130        0.00056372
     248         -0.230744        2.000000        0.00173101        0.00463059        0.00008590
     249         -0.230697        2.000000        0.00000547        0.00001436        0.00000028
     250         -0.229959        2.000000        0.00012202        0.00044916        0.00001113
     251         -0.229741        2.000000        0.00000000        0.00000002        0.00000000
     252         -0.228898        2.000000        0.00000005        0.00000024        0.00000001
     253         -0.227939        2.000000        0.00000000        0.00000001        0.00000000
     254         -0.227542        2.000000        0.00000000        0.00000000        0.00000000
     255         -0.227010        2.000000        0.00000001        0.00000003        0.00000000
     256         -0.226860        2.000000        0.00479184        0.01225621        0.00029139
     257         -0.226780        2.000000        0.00000015        0.00000041        0.00000001
     258         -0.226656        2.000000        0.00000001        0.00000002        0.00000000
     259         -0.226503        2.000000        0.00025147        0.00065780        0.00001639
     260         -0.226036        2.000000        0.00000001        0.00000002        0.00000000
     261         -0.225667        2.000000        0.01265762        0.03317356        0.00083485
     262         -0.225511        2.000000        0.00004735        0.00012563        0.00000323
     263         -0.224716        2.000000        0.00000073        0.00000267        0.00000007
     264         -0.224218        2.000000        0.00000027        0.00000088        0.00000002
     265         -0.223677        2.000000        0.01092489        0.03111112        0.00082094
     266         -0.223438        2.000000        0.00001898        0.00005196        0.00000136
     267         -0.223292        2.000000        0.00000037        0.00000098        0.00000003
     268         -0.223025        2.000000        0.00000412        0.00001068        0.00000026
     269         -0.222436        2.000000        0.00000060        0.00000186        0.00000003
     270         -0.222159        2.000000        0.00108421        0.00329415        0.00008370
     271         -0.221905        2.000000        0.00000043        0.00000144        0.00000002
     272         -0.221185        2.000000        0.00238961        0.00960795        0.00021895
     273         -0.220659        2.000000        0.00000053        0.00000141        0.00000003
     274         -0.219665        2.000000        0.00003984        0.00038263        0.00000474
     275         -0.219630        2.000000        0.00130388        0.01202282        0.00015582
     276         -0.218916        2.000000        0.00000040        0.00000176        0.00000002
     277         -0.218551        2.000000        0.00010386        0.00064586        0.00000510
     278         -0.218398        2.000000        0.00011016        0.00072479        0.00000564
     279         -0.218139        2.000000        0.00014570        0.00038485        0.00000989
     280         -0.217698        2.000000        0.00000103        0.00000511        0.00000012
     281         -0.217580        2.000000        0.00062074        0.00156120        0.00003357
     282         -0.217435        2.000000        0.00006240        0.00016121        0.00000317
     283         -0.216483        2.000000        0.00003064        0.00007814        0.00000181
     284         -0.216363        2.000000        0.00022722        0.00063471        0.00001349
     285         -0.216254        2.000000        0.00000026        0.00000127        0.00000002
     286         -0.215958        2.000000        0.00767035        0.01932593        0.00046209
     287         -0.215645        2.000000        0.01055074        0.02684568        0.00065954
     288         -0.215217        2.000000        0.00000131        0.00000335        0.00000008
     289         -0.214936        2.000000        0.00000001        0.00000002        0.00000000
     290         -0.214221        2.000000        0.00000583        0.00001495        0.00000037
     291         -0.213816        2.000000        0.00000373        0.00000989        0.00000025
     292         -0.213592        2.000000        0.00099755        0.00425925        0.00005395
     293         -0.213468        2.000000        0.00007501        0.00019103        0.00000456
     294         -0.213241        2.000000        0.00000037        0.00000212        0.00000005
     295         -0.213184        2.000000        0.00178653        0.00463268        0.00012183
     296         -0.212817        2.000000        0.00017575        0.00072497        0.00001547
     297         -0.212583        2.000000        0.00000439        0.00004723        0.00000083
     298         -0.212273        2.000000        0.00253804        0.02998159        0.00056325
     299         -0.211896        2.000000        0.00000293        0.00003067        0.00000066
     300         -0.211391        2.000000        0.00103305        0.00441915        0.00012551
     301         -0.211339        2.000000        0.00026720        0.00103961        0.00003078
     302         -0.211269        2.000000        0.00003018        0.00019201        0.00000536
     303         -0.211046        2.000000        0.00005844        0.00018258        0.00000265
     304         -0.210412        2.000000        0.00058214        0.00149169        0.00003736
     305         -0.210309        2.000000        0.00189245        0.00494019        0.00012624
     306         -0.210188        2.000000        0.00023287        0.00082622        0.00001296
     307         -0.210166        2.000000        0.00006302        0.00039803        0.00000118