# Projected DOS for list 3 of 3 atoms, at iteration step i = 0, E(Fermi) =     0.101540 a.u.
#     MO Eigenvalue [a.u.]      Occupation                 s                 p                 d
       1         -0.708367        2.000000        0.00000000        0.00000000        0.00000000
       2         -0.696979        2.000000        0.00000117        0.00000149        0.00000001
       3         -0.695301        2.000000        0.00000002        0.00000007        0.00000000
       4         -0.694902        2.000000        0.00000000        0.00000000        0.00000000
       5         -0.690081        2.000000        0.00000000        0.00000000        0.00000000
       6         -0.686805        2.000000        0.00002091        0.00001938        0.00000005
       7         -0.686571        2.000000        0.00000060        0.00000045        0.00000000
       8         -0.685003        2.000000        0.00000117        0.00000109        0.00000000
       9         -0.684036        2.000000        0.00006346        0.00005760        0.00000010
      10         -0.683920        2.000000        0.00000000        0.00000000        0.00000000
      11         -0.681735        2.000000        0.00033030        0.00031861        0.00000047
      12         -0.679408        2.000000        0.00000155        0.00000091        0.00000000
      13         -0.678932        2.000000        0.00000000        0.00000000        0.00000000
      14         -0.678381        2.000000        0.00000584        0.00000141        0.00000001
      15         -0.677963        2.000000        0.00005916        0.00006149        0.00000006
      16         -0.677540        2.000000        0.00016425        0.00023330        0.00000024
      17         -0.677381        2.000000        0.00000000        0.00000000        0.00000000
      18         -0.677246        2.000000        0.00006462        0.00009789        0.00000009
      19         -0.675827        2.000000        0.00001368        0.00002275        0.00000003
      20         -0.675724        2.000000        0.00000000        0.00000000        0.00000000
      21         -0.674932        2.000000        0.00000000        0.00000000        0.00000000
      22         -0.674380        2.000000        0.00005492        0.00005021        0.00000004
      23         -0.673393        2.000000        0.00000498        0.00000404        0.00000004
      24         -0.672924        2.000000        0.00000005        0.00000002        0.00000000
      25         -0.672289        2.000000        0.00000061        0.00000051        0.00000001
      26         -0.672227        2.000000        0.00001564        0.00000981        0.00000001
      27         -0.671275        2.000000        0.00000025        0.00000008        0.00000000
      28         -0.670770        2.000000        0.00013770        0.00010229        0.00000008
      29         -0.670400        2.000000        0.00000299        0.00001491        0.00000004
      30         -0.669922        2.000000        0.00008298        0.00011002        0.00000011
      31         -0.669606        2.000000        0.00000650        0.00000081        0.00000000
      32         -0.668947        2.000000        0.00057721        0.00015741        0.00000078
      33         -0.668931        2.000000        0.00029524        0.00009014        0.00000043
      34         -0.668431        2.000000        0.00039069        0.00008033        0.00000097
      35         -0.668008        2.000000        0.00007691        0.00011857        0.00000027
      36         -0.667083        2.000000        0.00000730        0.00002156        0.00000009
      37         -0.666996        2.000000        0.00000081        0.00000049        0.00000000
      38         -0.666939        2.000000        0.00002095        0.00000317        0.00000001
      39         -0.666646        2.000000        0.00060248        0.00044831        0.00000154
      40         -0.666363        2.000000        0.00047084        0.00015653        0.00000064
      41         -0.666281        2.000000        0.00000009        0.00000039        0.00000000
      42         -0.666129        2.000000        0.00005822        0.00023771        0.00000095
      43         -0.665867        2.000000        0.00013295        0.00005015        0.00000012
      44         -0.664404        2.000000        0.00000221        0.00000091        0.00000001
      45         -0.664061        2.000000        0.00002389        0.00015152        0.00000030
      46         -0.663948        2.000000        0.00003303        0.00002701        0.00000003
      47         -0.663550        2.000000        0.00006571        0.00008287        0.00000011
      48         -0.662943        2.000000        0.00000012        0.00000006        0.00000000
      49         -0.662627        2.000000        0.00000131        0.00000523        0.00000000
      50         -0.661965        2.000000        0.00002777        0.00004356        0.00000009
      51         -0.661528        2.000000        0.00000453        0.00000203        0.00000001
      52         -0.660900        2.000000        0.00001164        0.00001781        0.00000025
      53         -0.660166        2.000000        0.00003834        0.00000838        0.00000006
      54         -0.659683        2.000000        0.00000119        0.00000060        0.00000001
      55         -0.658835        2.000000        0.00078461        0.00017617        0.00000100
      56         -0.658814        2.000000        0.00000058        0.00000028        0.00000000
      57         -0.658691        2.000000        0.00000182        0.00000058        0.00000000
      58         -0.658084        2.000000        0.00170333        0.00028181        0.00000225
      59         -0.658073        2.000000        0.00018655        0.00002888        0.00000037
      60         -0.657975        2.000000        0.00000415        0.00001785        0.00000017
      61         -0.657678        2.000000        0.00468800        0.00064311        0.00000846
      62         -0.657592        2.000000        0.00311420        0.00056387        0.00000456
      63         -0.657226        2.000000        0.00001915        0.00000504        0.00000002
      64         -0.657087        2.000000        0.00112866        0.00019487        0.00000206
      65         -0.656742        2.000000        0.00253541        0.00054017        0.00000166
      66         -0.656449        2.000000        0.00002971        0.00003855        0.00000008
      67         -0.656215        2.000000        0.00175979        0.00034336        0.00000265
      68         -0.655700        2.000000        0.00192283        0.00056083        0.00000101
      69         -0.655174        2.000000        0.00000009        0.00000012        0.00000000
      70         -0.654827        2.000000        0.00337569        0.00060149        0.00000437
      71         -0.654660        2.000000        0.00001847        0.00000358        0.00000002
      72         -0.654406        2.000000        0.00083513        0.00010237        0.00000166
      73         -0.654250        2.000000        0.00594818        0.00101150        0.00000960
      74         -0.653619        2.000000        0.00095513        0.00021237        0.00000101
      75         -0.653105        2.000000        0.06230207        0.01391749        0.00007005
      76         -0.652904        2.000000        0.03569013        0.00794680        0.00004078
      77         -0.652612        2.000000        0.00017900        0.00005141        0.00000057
      78         -0.652411        2.000000        0.00353224        0.00079299        0.00000506
      79         -0.652213        2.000000        0.02323331        0.00506894        0.00002902
      80         -0.652083        2.000000        0.11369049        0.02459162        0.00014431
      81         -0.651807        2.000000        0.08812304        0.01893865        0.00011660
      82         -0.651706        2.000000        0.00548647        0.00116643        0.00000742
      83         -0.651237        2.000000        0.07903520        0.01634379        0.00010985
      84         -0.651053        2.000000        0.02966380        0.00613970        0.00004146
      85         -0.650411        2.000000        0.02784944        0.00577015        0.00004496
      86         -0.650326        2.000000        0.00868167        0.00183016        0.00001501
      87         -0.650219        2.000000        0.00414337        0.00081027        0.00000569
      88         -0.650130        2.000000        0.01297212        0.00261611        0.00001966
      89         -0.649849        2.000000        0.04015860        0.00800395        0.00007126
      90         -0.649510        2.000000        0.00719718        0.00171239        0.00001050
      91         -0.648737        2.000000        0.03218734        0.00684215        0.00005479
      92         -0.648608        2.000000        0.00505240        0.00111838        0.00000827
      93         -0.648509        2.000000        0.00074528        0.00038732        0.00000142
      94         -0.648091        2.000000        0.00096505        0.00018535        0.00000205
      95         -0.647956        2.000000        0.00000060        0.00000017        0.00000000
      96         -0.647875        2.000000        0.00101980        0.00027295        0.00000143
      97         -0.647628        2.000000        0.00351219        0.00085143        0.00000487
      98         -0.647248        2.000000        0.00105108        0.00020813        0.00000200
      99         -0.646997        2.000000        0.00010225        0.00002067        0.00000028
     100         -0.646893        2.000000        0.00022231        0.00004388        0.00000055
     101         -0.646794        2.000000        0.00129274        0.00019276        0.00000498
     102         -0.645843        2.000000        0.00352444        0.00076611        0.00000693
     103         -0.645519        2.000000        0.00226640        0.00059258        0.00000329
     104         -0.645232        2.000000        0.00065124        0.00010446        0.00000323
     105         -0.644964        2.000000        0.00183670        0.00100180        0.00000159
     106         -0.644451        2.000000        0.00334891        0.00078830        0.00000632
     107         -0.644170        2.000000        0.00521892        0.00262237        0.00000520
     108         -0.643891        2.000000        0.00144393        0.00048684        0.00000169
     109         -0.643862        2.000000        0.00766641        0.00254697        0.00000906
     110         -0.643478        2.000000        0.00005776        0.00006988        0.00000022
     111         -0.643325        2.000000        0.00005360        0.00002296        0.00000024
     112         -0.642934        2.000000        0.00125021        0.00026602        0.00000352
     113         -0.642899        2.000000        0.00013486        0.00004894        0.00000016
     114         -0.642460        2.000000        0.00000588        0.00003774        0.00000025
     115         -0.642175        2.000000        0.00087900        0.00019888        0.00000248
     116         -0.642120        2.000000        0.00000717        0.00003313        0.00000047
     117         -0.641851        2.000000        0.00003427        0.00005742        0.00000105
     118         -0.641683        2.000000        0.00010498        0.00005946        0.00000027
     119         -0.641305        2.000000        0.01018561        0.00177553        0.00003919
     120         -0.641072        2.000000        0.00216499        0.00079801        0.00000372
     121         -0.640960        2.000000        0.00016961        0.00013201        0.00000029
     122         -0.640793        2.000000        0.00300175        0.00070980        0.00000757
     123         -0.640578        2.000000        0.00358860        0.00130664        0.00000528
     124         -0.640464        2.000000        0.00025441        0.00003619        0.00000196
     125         -0.640169        2.000000        0.00032945        0.00006750        0.00000126
     126         -0.639736        2.000000        0.00055060        0.00014111        0.00000152
     127         -0.639499        2.000000        0.00249231        0.00053235        0.00000825
     128         -0.639154        2.000000        0.00074565        0.00017870        0.00000190
     129         -0.639060        2.000000        0.00002875        0.00000614        0.00000018
     130         -0.638976        2.000000        0.00119100        0.00029180        0.00000336
     131         -0.638593        2.000000        0.00037771        0.00015374        0.00000181
     132         -0.638261        2.000000        0.00006329        0.00005996        0.00000017
     133         -0.638059        2.000000        0.00083288        0.00144697        0.00000717
     134         -0.637912        2.000000        0.00602140        0.00240323        0.00000950
     135         -0.637762        2.000000        0.00000420        0.00002715        0.00000057
     136         -0.637584        2.000000        0.00111892        0.00028061        0.00000395
     137         -0.636804        2.000000        0.00053301        0.00014401        0.00000144
     138         -0.636640        2.000000        0.00422753        0.00089727        0.00001779
     139         -0.636429        2.000000        0.00621675        0.00133245        0.00002656
     140         -0.635515        2.000000        0.00073635        0.00014787        0.00000390
     141         -0.634989        2.000000        0.00247670        0.00055597        0.00000942
     142         -0.634462        2.000000        0.00013069        0.00002478        0.00000102
     143         -0.634132        2.000000        0.00002780        0.00008459        0.00000139
     144         -0.633763        2.000000        0.00014698        0.00002909        0.00000100
     145         -0.633531        2.000000        0.00004740        0.00003591        0.00000006
     146         -0.632585        2.000000        0.00008631        0.00003462        0.00000017
     147         -0.632333        2.000000        0.00027723        0.00007076        0.00000262
     148         -0.632031        2.000000        0.00002807        0.00000939        0.00000010
     149         -0.631841        2.000000        0.00002185        0.00001236        0.00000005
     150         -0.631318        2.000000        0.00089936        0.00049218        0.00000170
     151         -0.630640        2.000000        0.00005944        0.00006256        0.00000019
     152         -0.630519        2.000000        0.00007191        0.00007620        0.00000022
     153         -0.630490        2.000000        0.00004127        0.00003518        0.00000011
     154         -0.629959        2.000000        0.00000040        0.00000288        0.00000006
     155         -0.629452        2.000000        0.00000594        0.00002510        0.00000025
     156         -0.629210        2.000000        0.00002409        0.00001003        0.00000033
     157         -0.628856        2.000000        0.00000142        0.00000130        0.00000001
     158         -0.628516        2.000000        0.00047114        0.00015029        0.00000311
     159         -0.628511        2.000000        0.00086408        0.00081835        0.00000175
     160         -0.628382        2.000000        0.00183555        0.00141786        0.00000312
     161         -0.628242        2.000000        0.00000727        0.00000296        0.00000009
     162         -0.628026        2.000000        0.00010129        0.00029129        0.00000275
     163         -0.627712        2.000000        0.00680861        0.00649530        0.00001442
     164         -0.627438        2.000000        0.00013629        0.00029976        0.00000188
     165         -0.627281        2.000000        0.00144328        0.00057898        0.00000647
     166         -0.626983        2.000000        0.00085297        0.00069459        0.00000157
     167         -0.626804        2.000000        0.00007087        0.00003364        0.00000022
     168         -0.626588        2.000000        0.00019954        0.00009638        0.00000817
     169         -0.626019        2.000000        0.00000145        0.00000107        0.00000006
     170         -0.625843        2.000000        0.00026374        0.00187945        0.00002941
     171         -0.625019        2.000000        0.00073889        0.00260337        0.00002305
     172         -0.624831        2.000000        0.00045000        0.00028508        0.00000083
     173         -0.624166        2.000000        0.00063004        0.00066466        0.00000150
     174         -0.623906        2.000000        0.00010502        0.00010486        0.00000306
     175         -0.623799        2.000000        0.00000117        0.00000109        0.00000010
     176         -0.623716        2.000000        0.00385459        0.00125390        0.00004105
     177         -0.623382        2.000000        0.00151835        0.00137425        0.00000347
     178         -0.623067        2.000000        0.00000027        0.00000085        0.00000001
     179         -0.622801        2.000000        0.00013129        0.00004424        0.00000047
     180         -0.622617        2.000000        0.00112192        0.00117895        0.00000260
     181         -0.622499        2.000000        0.01672137        0.01498394        0.00003803
     182         -0.621672        2.000000        0.00007730        0.00007412        0.00000036
     183         -0.621151        2.000000        0.00000775        0.00004340        0.00000053
     184         -0.620781        2.000000        0.00047077        0.00028569        0.00000140
     185         -0.620579        2.000000        0.00000796        0.00005360        0.00000102
     186         -0.619930        2.000000        0.00014171        0.00025335        0.00000080
     187         -0.618694        2.000000        0.00002476        0.00002806        0.00000010
     188         -0.618461        2.000000        0.00039282        0.00015484        0.00000467
     189         -0.618211        2.000000        0.00000212        0.00000293        0.00000001
     190         -0.617957        2.000000        0.00012197        0.00005250        0.00000213
     191         -0.617770        2.000000        0.00052623        0.00019909        0.00000746
     192         -0.617636        2.000000        0.00007537        0.00003337        0.00000044
     193         -0.617200        2.000000        0.00013483        0.00004778        0.00000293
     194         -0.616810        2.000000        0.00000688        0.00000281        0.00000017
     195         -0.615618        2.000000        0.00000238        0.00000509        0.00000017
     196         -0.615377        2.000000        0.00000894        0.00000442        0.00000013
     197         -0.615228        2.000000        0.00000164        0.00000416        0.00000025
     198         -0.614941        2.000000        0.00000290        0.00000832        0.00000005
     199         -0.613862        2.000000        0.00002466        0.00001135        0.00000049
     200         -0.613167        2.000000        0.00000695        0.00000320        0.00000014
     201         -0.612937        2.000000        0.00000044        0.00000140        0.00000007
     202         -0.612465        2.000000        0.00017579        0.00009083        0.00000378
     203         -0.611371        2.000000        0.00000772        0.00016077        0.00001621
     204         -0.611273        2.000000        0.00000417        0.00001377        0.00000099
     205         -0.610903        2.000000        0.00001823        0.00005211        0.00000091
     206         -0.609912        2.000000        0.00010612        0.00020211        0.00002458
     207         -0.609442        2.000000        0.00039136        0.00197244        0.00003698
     208         -0.609149        2.000000        0.00124669        0.00177248        0.00012028
     209         -0.608882        2.000000        0.00009871        0.00008111        0.00000513
     210         -0.608562        2.000000        0.00000085        0.00000216        0.00000021
     211         -0.608012        2.000000        0.00056834        0.00025946        0.00001415
     212         -0.607014        2.000000        0.00983159        0.00360518        0.00016714
     213         -0.606300        2.000000        0.00032497        0.00012434        0.00000706
     214         -0.605948        2.000000        0.00001402        0.00000752        0.00000016
     215         -0.605403        2.000000        0.00000070        0.00000142        0.00000013
     216         -0.604664        2.000000        0.00029090        0.00011069        0.00000829
     217         -0.604080        2.000000        0.00228003        0.00082263        0.00003349
     218         -0.603538        2.000000        0.00145687        0.00055717        0.00001832
     219         -0.603145        2.000000        0.01262996        0.00447478        0.00020556
     220         -0.602213        2.000000        0.00011399        0.00004850        0.00000132
     221         -0.601871        2.000000        0.00107268        0.00039380        0.00001907
     222         -0.600521        2.000000        0.00001214        0.00000656        0.00000007
     223         -0.599848        2.000000        0.00003626        0.00001364        0.00000080
     224         -0.598111        2.000000        0.00076687        0.00029969        0.00001720
     225         -0.597286        2.000000        0.00277497        0.00108918        0.00005921
     226         -0.597121        2.000000        0.00113654        0.00044508        0.00002447
     227         -0.595585        2.000000        0.00000161        0.00000066        0.00000004
     228         -0.591103        2.000000        0.00038975        0.00016560        0.00000975
     229         -0.582585        2.000000        0.00000000        0.00000000        0.00000000
     230         -0.576283        2.000000        0.00000008        0.00000006        0.00000000
     231         -0.258156        2.000000        0.00000000        0.00000000        0.00000000
     232         -0.253473        2.000000        0.00000114        0.00000351        0.00000007
     233         -0.246233        2.000000        0.00000007        0.00000022        0.00000001
     234         -0.244651        2.000000        0.00000012        0.00000038        0.00000001
     235         -0.243092        2.000000        0.00000009        0.00000028        0.00000001
     236         -0.242544        2.000000        0.00000000        0.00000000        0.00000000
     237         -0.241048        2.000000        0.00000209        0.00000644        0.00000015
     238         -0.240546        2.000000        0.00042751        0.00130928        0.00002990
     239         -0.237982        2.000000        0.00029227        0.00102550        0.00001319
     240         -0.237798        2.000000        0.00000007        0.00000022        0.00000000
     241         -0.236566        2.000000        0.00000013        0.00000040        0.00000001
     242         -0.235920        2.000000        0.00000005        0.00000022        0.00000000
     243         -0.233145        2.000000        0.00000000        0.00000000        0.00000000
     244         -0.232785        2.000000        0.00003400        0.00009592        0.00000231
     245         -0.232224        2.000000        0.00000826        0.00002635        0.00000048
     246         -0.232174        2.000000        0.00000000        0.00000000        0.00000000
     247         -0.232015        2.000000        0.00000000        0.00000001        0.00000000
     248         -0.230744        2.000000        0.00000000        0.00000001        0.00000000
     249         -0.230697        2.000000        0.00000131        0.00000494        0.00000002
     250         -0.229959        2.000000        0.00000000        0.00000002        0.00000000
     251         -0.229741        2.000000        0.00001676        0.00005618        0.00000067
     252         -0.228898        2.000000        0.00002947        0.00008505        0.00000171
     253         -0.227939        2.000000        0.00117148        0.00317658        0.00007674
     254         -0.227542        2.000000        0.00004857        0.00014382        0.00000286
     255         -0.227010        2.000000        0.00015118        0.00037586        0.00001040
     256         -0.226860        2.000000        0.00000000        0.00000000        0.00000000
     257         -0.226780        2.000000        0.00024302        0.00065506        0.00001637
     258         -0.226656        2.000000        0.00171735        0.00512409        0.00009888
     259         -0.226503        2.000000        0.00000002        0.00000005        0.00000000
     260         -0.226036        2.000000        0.00004511        0.00013114        0.00000240
     261         -0.225667        2.000000        0.00000004        0.00000011        0.00000000
     262         -0.225511        2.000000        0.00001033        0.00002968        0.00000075
     263         -0.224716        2.000000        0.00001806        0.00006367        0.00000123
     264         -0.224218        2.000000        0.00011657        0.00031463        0.00000638
     265         -0.223677        2.000000        0.00000013        0.00000043        0.00000001
     266         -0.223438        2.000000        0.00001895        0.00007097        0.00000127
     267         -0.223292        2.000000        0.00000423        0.00002285        0.00000028
     268         -0.223025        2.000000        0.00001022        0.00002703        0.00000068
     269         -0.222436        2.000000        0.00000022        0.00000117        0.00000001
     270         -0.222159        2.000000        0.00000000        0.00000000        0.00000000
     271         -0.221905        2.000000        0.00000371        0.00002674        0.00000027
     272         -0.221185        2.000000        0.00000000        0.00000002        0.00000000
     273         -0.220659        2.000000        0.00001671        0.00006629        0.00000099
     274         -0.219665        2.000000        0.00002241        0.00007879        0.00000135
     275         -0.219630        2.000000        0.00000064        0.00000255        0.00000004
     276         -0.218916        2.000000        0.00000658        0.00002240        0.00000041
     277         -0.218551        2.000000        0.00000083        0.00000705        0.00000004
     278         -0.218398        2.000000        0.00000271        0.00000956        0.00000018
     279         -0.218139        2.000000        0.00000140        0.00000371        0.00000010
     280         -0.217698        2.000000        0.00005586        0.00015000        0.00000356
     281         -0.217580        2.000000        0.00000412        0.00001087        0.00000028
     282         -0.217435        2.000000        0.00000463        0.00001422        0.00000030
     283         -0.216483        2.000000        0.00006726        0.00021716        0.00000369
     284         -0.216363        2.000000        0.00000028        0.00000206        0.00000002
     285         -0.216254        2.000000        0.00007637        0.00019021        0.00000510
     286         -0.215958        2.000000        0.00000023        0.00000134        0.00000001
     287         -0.215645        2.000000        0.00000004        0.00000014        0.00000000
     288         -0.215217        2.000000        0.00053883        0.00373207        0.00003416
     289         -0.214936        2.000000        0.00015220        0.00043805        0.00001012
     290         -0.214221        2.000000        0.00162749        0.00514357        0.00008732
     291         -0.213816        2.000000        0.00004962        0.00015455        0.00000224
     292         -0.213592        2.000000        0.00000046        0.00000161        0.00000002
     293         -0.213468        2.000000        0.00006415        0.00032182        0.00000335
     294         -0.213241        2.000000        0.00000015        0.00000553        0.00000004
     295         -0.213184        2.000000        0.00000075        0.00000330        0.00000006
     296         -0.212817        2.000000        0.00000142        0.00000391        0.00000008
     297         -0.212583        2.000000        0.00009846        0.00025870        0.00000513
     298         -0.212273        2.000000        0.00000060        0.00000157        0.00000004
     299         -0.211896        2.000000        0.00017336        0.00044726        0.00001089
     300         -0.211391        2.000000        0.00017018        0.00045748        0.00001030
     301         -0.211339        2.000000        0.00252671        0.00679243        0.00015469
     302         -0.211269        2.000000        0.00384694        0.01070339        0.00023985
     303         -0.211046        2.000000        0.00000227        0.00000876        0.00000016
     304         -0.210412        2.000000        0.00002424        0.00009097        0.00000138
     305         -0.210309        2.000000        0.00014723        0.00038633        0.00000837
     306         -0.210188        2.000000        0.00081038        0.00210030        0.00004541
     307         -0.210166        2.000000        0.00045734        0.00123487        0.00002046