# Projected DOS for list 142 of 3 atoms, at iteration step i = 0, E(Fermi) =     0.101540 a.u.
#     MO Eigenvalue [a.u.]      Occupation                 s                 p                 d
       1         -0.708367        2.000000        0.00000101        0.00000155        0.00000000
       2         -0.696979        2.000000        0.00003010        0.00002623        0.00000028
       3         -0.695301        2.000000        0.00000004        0.00000097        0.00000001
       4         -0.694902        2.000000        0.00000000        0.00000000        0.00000000
       5         -0.690081        2.000000        0.00000000        0.00000000        0.00000000
       6         -0.686805        2.000000        0.00047636        0.00021466        0.00000249
       7         -0.686571        2.000000        0.00004631        0.00002150        0.00000025
       8         -0.685003        2.000000        0.00002759        0.00000965        0.00000006
       9         -0.684036        2.000000        0.00002671        0.00001292        0.00000006
      10         -0.683920        2.000000        0.00000000        0.00000000        0.00000000
      11         -0.681735        2.000000        0.00002862        0.00005102        0.00000038
      12         -0.679408        2.000000        0.00067657        0.00010610        0.00000051
      13         -0.678932        2.000000        0.00000000        0.00000000        0.00000000
      14         -0.678381        2.000000        0.00085616        0.00031960        0.00000341
      15         -0.677963        2.000000        0.00000804        0.00001309        0.00000016
      16         -0.677540        2.000000        0.00009550        0.00001505        0.00000008
      17         -0.677381        2.000000        0.00000000        0.00000000        0.00000000
      18         -0.677246        2.000000        0.00012588        0.00003631        0.00000029
      19         -0.675827        2.000000        0.00030318        0.00006332        0.00000083
      20         -0.675724        2.000000        0.00000000        0.00000000        0.00000000
      21         -0.674932        2.000000        0.00000000        0.00000000        0.00000000
      22         -0.674380        2.000000        0.00001105        0.00006016        0.00000061
      23         -0.673393        2.000000        0.04886213        0.00870995        0.00006193
      24         -0.672924        2.000000        0.00000000        0.00000000        0.00000000
      25         -0.672289        2.000000        0.00637658        0.00127059        0.00000797
      26         -0.672227        2.000000        0.00000140        0.00000381        0.00000007
      27         -0.671275        2.000000        0.00000002        0.00000000        0.00000000
      28         -0.670770        2.000000        0.00032890        0.00010834        0.00000061
      29         -0.670400        2.000000        0.00064683        0.00018282        0.00000070
      30         -0.669922        2.000000        0.00424878        0.00091290        0.00000670
      31         -0.669606        2.000000        0.00002037        0.00000373        0.00000003
      32         -0.668947        2.000000        0.01060251        0.00170670        0.00001812
      33         -0.668931        2.000000        0.00569952        0.00090799        0.00000986
      34         -0.668431        2.000000        0.04402631        0.00874310        0.00006027
      35         -0.668008        2.000000        0.00019381        0.00010652        0.00000060
      36         -0.667083        2.000000        0.23752909        0.04526404        0.00032907
      37         -0.666996        2.000000        0.00008714        0.00001626        0.00000013
      38         -0.666939        2.000000        0.01147884        0.00225394        0.00001468
      39         -0.666646        2.000000        0.01348323        0.00248608        0.00001944
      40         -0.666363        2.000000        0.00124000        0.00030060        0.00000127
      41         -0.666281        2.000000        0.00000642        0.00000116        0.00000001
      42         -0.666129        2.000000        0.02414647        0.00436631        0.00003816
      43         -0.665867        2.000000        0.01173703        0.00242566        0.00001464
      44         -0.664404        2.000000        0.00001606        0.00000290        0.00000003
      45         -0.664061        2.000000        0.00428099        0.00087729        0.00000629
      46         -0.663948        2.000000        0.00013053        0.00002947        0.00000015
      47         -0.663550        2.000000        0.00016871        0.00018977        0.00000168
      48         -0.662943        2.000000        0.00000049        0.00000009        0.00000000
      49         -0.662627        2.000000        0.00000091        0.00000055        0.00000001
      50         -0.661965        2.000000        0.00090999        0.00036825        0.00000064
      51         -0.661528        2.000000        0.00000261        0.00000045        0.00000002
      52         -0.660900        2.000000        0.00007094        0.00001164        0.00000036
      53         -0.660166        2.000000        0.00075552        0.00018609        0.00000154
      54         -0.659683        2.000000        0.00000027        0.00000007        0.00000000
      55         -0.658835        2.000000        0.01108529        0.00314679        0.00001458
      56         -0.658814        2.000000        0.00004204        0.00001169        0.00000006
      57         -0.658691        2.000000        0.00000356        0.00000141        0.00000000
      58         -0.658084        2.000000        0.00177470        0.00045717        0.00002362
      59         -0.658073        2.000000        0.00047320        0.00011534        0.00000585
      60         -0.657975        2.000000        0.00013666        0.00019392        0.00000926
      61         -0.657678        2.000000        0.01172039        0.00316902        0.00016231
      62         -0.657592        2.000000        0.00255272        0.00103073        0.00005094
      63         -0.657226        2.000000        0.00000120        0.00000018        0.00000001
      64         -0.657087        2.000000        0.00269292        0.00101272        0.00004456
      65         -0.656742        2.000000        0.00002205        0.00004548        0.00000123
      66         -0.656449        2.000000        0.00167622        0.00028946        0.00001085
      67         -0.656215        2.000000        0.00306390        0.00059041        0.00003124
      68         -0.655700        2.000000        0.00098831        0.00025261        0.00001488
      69         -0.655174        2.000000        0.00000137        0.00000023        0.00000001
      70         -0.654827        2.000000        0.00082694        0.00013045        0.00000506
      71         -0.654660        2.000000        0.00000042        0.00000013        0.00000000
      72         -0.654406        2.000000        0.00017512        0.00028350        0.00001038
      73         -0.654250        2.000000        0.00614825        0.00171744        0.00004570
      74         -0.653619        2.000000        0.00000119        0.00000168        0.00000006
      75         -0.653105        2.000000        0.00003587        0.00019822        0.00000442
      76         -0.652904        2.000000        0.00004325        0.00019370        0.00000486
      77         -0.652612        2.000000        0.00112958        0.00134801        0.00000873
      78         -0.652411        2.000000        0.00086841        0.00021037        0.00000296
      79         -0.652213        2.000000        0.00001068        0.00003340        0.00000111
      80         -0.652083        2.000000        0.00003028        0.00013957        0.00000431
      81         -0.651807        2.000000        0.00003551        0.00020102        0.00000053
      82         -0.651706        2.000000        0.00000582        0.00002876        0.00000015
      83         -0.651237        2.000000        0.00016223        0.00068022        0.00000863
      84         -0.651053        2.000000        0.00021320        0.00083210        0.00000725
      85         -0.650411        2.000000        0.00047761        0.00076334        0.00000112
      86         -0.650326        2.000000        0.00073345        0.00119844        0.00000155
      87         -0.650219        2.000000        0.00118950        0.00314068        0.00001862
      88         -0.650130        2.000000        0.00027333        0.00077170        0.00000160
      89         -0.649849        2.000000        0.00168531        0.00092707        0.00000392
      90         -0.649510        2.000000        0.00460885        0.00183674        0.00000550
      91         -0.648737        2.000000        0.00005836        0.00004901        0.00000239
      92         -0.648608        2.000000        0.00000936        0.00000616        0.00000034
      93         -0.648509        2.000000        0.00232419        0.00079826        0.00000441
      94         -0.648091        2.000000        0.00010849        0.00004484        0.00000010
      95         -0.647956        2.000000        0.00000010        0.00000009        0.00000000
      96         -0.647875        2.000000        0.00019592        0.00003905        0.00000113
      97         -0.647628        2.000000        0.00385640        0.00158541        0.00000423
      98         -0.647248        2.000000        0.00002621        0.00001154        0.00000046
      99         -0.646997        2.000000        0.00000108        0.00000113        0.00000001
     100         -0.646893        2.000000        0.00000085        0.00000127        0.00000001
     101         -0.646794        2.000000        0.00080610        0.00094433        0.00000561
     102         -0.645843        2.000000        0.00024929        0.00022563        0.00000084
     103         -0.645519        2.000000        0.00206545        0.00115920        0.00000225
     104         -0.645232        2.000000        0.00021398        0.00026417        0.00000133
     105         -0.644964        2.000000        0.02117738        0.01112575        0.00002296
     106         -0.644451        2.000000        0.00149545        0.00091347        0.00000190
     107         -0.644170        2.000000        0.04177901        0.02498687        0.00005935
     108         -0.643891        2.000000        0.00403712        0.00224692        0.00000516
     109         -0.643862        2.000000        0.02228423        0.01229905        0.00002922
     110         -0.643478        2.000000        0.00154207        0.00103951        0.00000198
     111         -0.643325        2.000000        0.00004195        0.00004925        0.00000025
     112         -0.642934        2.000000        0.00050178        0.00024991        0.00000071
     113         -0.642899        2.000000        0.00066031        0.00052458        0.00000129
     114         -0.642460        2.000000        0.00068121        0.00041698        0.00000100
     115         -0.642175        2.000000        0.00029650        0.00015131        0.00000039
     116         -0.642120        2.000000        0.00034636        0.00040991        0.00000197
     117         -0.641851        2.000000        0.00000704        0.00001359        0.00000057
     118         -0.641683        2.000000        0.00000979        0.00005121        0.00000051
     119         -0.641305        2.000000        0.00440565        0.00176227        0.00000888
     120         -0.641072        2.000000        0.00011823        0.00003988        0.00000226
     121         -0.640960        2.000000        0.00032711        0.00009015        0.00000158
     122         -0.640793        2.000000        0.00001627        0.00004512        0.00000042
     123         -0.640578        2.000000        0.00232746        0.00064522        0.00001205
     124         -0.640464        2.000000        0.00106984        0.00037941        0.00000353
     125         -0.640169        2.000000        0.00002178        0.00001559        0.00000005
     126         -0.639736        2.000000        0.00003129        0.00001808        0.00000007
     127         -0.639499        2.000000        0.00033311        0.00015843        0.00000054
     128         -0.639154        2.000000        0.00001643        0.00002273        0.00000088
     129         -0.639060        2.000000        0.00000058        0.00000500        0.00000006
     130         -0.638976        2.000000        0.00001622        0.00001300        0.00000019
     131         -0.638593        2.000000        0.00207514        0.00079122        0.00000680
     132         -0.638261        2.000000        0.00315360        0.00135860        0.00000960
     133         -0.638059        2.000000        0.07889001        0.03002991        0.00024144
     134         -0.637912        2.000000        0.05024797        0.01929378        0.00016387
     135         -0.637762        2.000000        0.00134372        0.00056402        0.00000375
     136         -0.637584        2.000000        0.00117650        0.00044696        0.00000426
     137         -0.636804        2.000000        0.00134546        0.00057557        0.00000358
     138         -0.636640        2.000000        0.00102199        0.00036501        0.00000409
     139         -0.636429        2.000000        0.00167204        0.00059059        0.00000653
     140         -0.635515        2.000000        0.00051061        0.00017474        0.00000187
     141         -0.634989        2.000000        0.00004899        0.00001530        0.00000024
     142         -0.634462        2.000000        0.00005015        0.00001594        0.00000028
     143         -0.634132        2.000000        0.00000272        0.00000379        0.00000013
     144         -0.633763        2.000000        0.00003179        0.00000975        0.00000013
     145         -0.633531        2.000000        0.00141790        0.00082496        0.00000345
     146         -0.632585        2.000000        0.00095087        0.00035713        0.00000488
     147         -0.632333        2.000000        0.00000046        0.00000029        0.00000001
     148         -0.632031        2.000000        0.00000003        0.00000011        0.00000000
     149         -0.631841        2.000000        0.00000351        0.00000150        0.00000002
     150         -0.631318        2.000000        0.00019457        0.00008266        0.00000099
     151         -0.630640        2.000000        0.00001654        0.00000862        0.00000006
     152         -0.630519        2.000000        0.00000735        0.00000478        0.00000010
     153         -0.630490        2.000000        0.00001612        0.00001161        0.00000004
     154         -0.629959        2.000000        0.00000008        0.00000016        0.00000001
     155         -0.629452        2.000000        0.00000786        0.00000747        0.00000007
     156         -0.629210        2.000000        0.00143487        0.00111233        0.00000427
     157         -0.628856        2.000000        0.00000021        0.00000010        0.00000000
     158         -0.628516        2.000000        0.00023662        0.00020545        0.00000073
     159         -0.628511        2.000000        0.00025340        0.00022593        0.00000077
     160         -0.628382        2.000000        0.00043270        0.00037092        0.00000126
     161         -0.628242        2.000000        0.00044315        0.00033771        0.00000123
     162         -0.628026        2.000000        0.00043483        0.00031791        0.00000126
     163         -0.627712        2.000000        0.00000776        0.00001902        0.00000093
     164         -0.627438        2.000000        0.00015351        0.00006098        0.00000083
     165         -0.627281        2.000000        0.00002952        0.00002665        0.00000032
     166         -0.626983        2.000000        0.00000257        0.00000813        0.00000025
     167         -0.626804        2.000000        0.00000270        0.00000338        0.00000002
     168         -0.626588        2.000000        0.00001743        0.00002155        0.00000096
     169         -0.626019        2.000000        0.00000037        0.00000012        0.00000000
     170         -0.625843        2.000000        0.00053517        0.00020482        0.00000314
     171         -0.625019        2.000000        0.00000930        0.00006049        0.00000239
     172         -0.624831        2.000000        0.00000681        0.00000802        0.00000007
     173         -0.624166        2.000000        0.00000194        0.00000340        0.00000016
     174         -0.623906        2.000000        0.00000540        0.00000158        0.00000005
     175         -0.623799        2.000000        0.00000129        0.00000074        0.00000001
     176         -0.623716        2.000000        0.00003470        0.00003470        0.00000048
     177         -0.623382        2.000000        0.00000131        0.00000906        0.00000028
     178         -0.623067        2.000000        0.00000298        0.00000120        0.00000006
     179         -0.622801        2.000000        0.00005133        0.00002050        0.00000062
     180         -0.622617        2.000000        0.00000091        0.00001053        0.00000032
     181         -0.622499        2.000000        0.00007169        0.00007572        0.00000355
     182         -0.621672        2.000000        0.00002029        0.00000717        0.00000066
     183         -0.621151        2.000000        0.00000220        0.00000452        0.00000019
     184         -0.620781        2.000000        0.00004094        0.00003020        0.00000057
     185         -0.620579        2.000000        0.00000826        0.00000271        0.00000009
     186         -0.619930        2.000000        0.00012130        0.00006716        0.00000283
     187         -0.618694        2.000000        0.00008389        0.00009068        0.00000035
     188         -0.618461        2.000000        0.00006473        0.00003060        0.00000139
     189         -0.618211        2.000000        0.00003518        0.00020465        0.00000140
     190         -0.617957        2.000000        0.00195423        0.00084735        0.00003475
     191         -0.617770        2.000000        0.00016589        0.00006761        0.00000315
     192         -0.617636        2.000000        0.00069986        0.00027923        0.00001273
     193         -0.617200        2.000000        0.00020996        0.00009468        0.00000420
     194         -0.616810        2.000000        0.00000020        0.00000044        0.00000002
     195         -0.615618        2.000000        0.00000052        0.00000101        0.00000005
     196         -0.615377        2.000000        0.00053936        0.00030612        0.00001611
     197         -0.615228        2.000000        0.00000721        0.00000285        0.00000006
     198         -0.614941        2.000000        0.00000698        0.00000376        0.00000012
     199         -0.613862        2.000000        0.00000979        0.00000523        0.00000029
     200         -0.613167        2.000000        0.00000190        0.00000060        0.00000007
     201         -0.612937        2.000000        0.00000079        0.00000053        0.00000005
     202         -0.612465        2.000000        0.00000343        0.00000133        0.00000014
     203         -0.611371        2.000000        0.00002513        0.00001471        0.00000063
     204         -0.611273        2.000000        0.00000092        0.00000097        0.00000008
     205         -0.610903        2.000000        0.00001196        0.00000974        0.00000011
     206         -0.609912        2.000000        0.00000603        0.00000380        0.00000004
     207         -0.609442        2.000000        0.00045936        0.00051544        0.00000671
     208         -0.609149        2.000000        0.00009545        0.00006988        0.00000065
     209         -0.608882        2.000000        0.00000359        0.00000228        0.00000001
     210         -0.608562        2.000000        0.00000001        0.00000001        0.00000000
     211         -0.608012        2.000000        0.00003432        0.00002573        0.00000074
     212         -0.607014        2.000000        0.00001848        0.00002679        0.00000179
     213         -0.606300        2.000000        0.00067214        0.00045301        0.00002347
     214         -0.605948        2.000000        0.00585378        0.00334934        0.00018837
     215         -0.605403        2.000000        0.00294069        0.00170677        0.00009580
     216         -0.604664        2.000000        0.00042552        0.00014837        0.00000789
     217         -0.604080        2.000000        0.00000953        0.00000388        0.00000014
     218         -0.603538        2.000000        0.00001921        0.00001407        0.00000064
     219         -0.603145        2.000000        0.00000008        0.00000209        0.00000010
     220         -0.602213        2.000000        0.00000104        0.00000372        0.00000018
     221         -0.601871        2.000000        0.00000103        0.00000036        0.00000001
     222         -0.600521        2.000000        0.00000438        0.00000201        0.00000009
     223         -0.599848        2.000000        0.00000011        0.00000030        0.00000001
     224         -0.598111        2.000000        0.00000002        0.00000003        0.00000000
     225         -0.597286        2.000000        0.00000031        0.00000018        0.00000000
     226         -0.597121        2.000000        0.00000001        0.00000002        0.00000000
     227         -0.595585        2.000000        0.00000000        0.00000000        0.00000000
     228         -0.591103        2.000000        0.00000001        0.00000001        0.00000000
     229         -0.582585        2.000000        0.00000000        0.00000000        0.00000000
     230         -0.576283        2.000000        0.00000001        0.00000004        0.00000000
     231         -0.258156        2.000000        0.00000023        0.00000132        0.00000000
     232         -0.253473        2.000000        0.00000104        0.00000378        0.00000008
     233         -0.246233        2.000000        0.00000056        0.00000363        0.00000001
     234         -0.244651        2.000000        0.00000062        0.00000229        0.00000003
     235         -0.243092        2.000000        0.00000891        0.00002830        0.00000064
     236         -0.242544        2.000000        0.00000000        0.00000000        0.00000000
     237         -0.241048        2.000000        0.00000006        0.00000079        0.00000000
     238         -0.240546        2.000000        0.00000360        0.00001337        0.00000013
     239         -0.237982        2.000000        0.00000642        0.00001940        0.00000038
     240         -0.237798        2.000000        0.00000000        0.00000000        0.00000000
     241         -0.236566        2.000000        0.00000003        0.00000013        0.00000000
     242         -0.235920        2.000000        0.00000001        0.00000004        0.00000000
     243         -0.233145        2.000000        0.00000000        0.00000000        0.00000000
     244         -0.232785        2.000000        0.00000182        0.00000548        0.00000011
     245         -0.232224        2.000000        0.00000354        0.00001089        0.00000027
     246         -0.232174        2.000000        0.00000000        0.00000000        0.00000000
     247         -0.232015        2.000000        0.00000000        0.00000000        0.00000000
     248         -0.230744        2.000000        0.00000001        0.00000004        0.00000000
     249         -0.230697        2.000000        0.00000216        0.00001067        0.00000013
     250         -0.229959        2.000000        0.00000000        0.00000000        0.00000000
     251         -0.229741        2.000000        0.00001826        0.00005229        0.00000136
     252         -0.228898        2.000000        0.00011255        0.00031538        0.00000732
     253         -0.227939        2.000000        0.00326633        0.00912600        0.00020642
     254         -0.227542        2.000000        0.00134170        0.00376931        0.00008529
     255         -0.227010        2.000000        0.05658434        0.16843529        0.00358082
     256         -0.226860        2.000000        0.00000124        0.00000363        0.00000008
     257         -0.226780        2.000000        0.01361698        0.04015842        0.00086046
     258         -0.226656        2.000000        0.00153288        0.00453420        0.00009669
     259         -0.226503        2.000000        0.00000000        0.00000002        0.00000000
     260         -0.226036        2.000000        0.00003190        0.00015056        0.00000299
     261         -0.225667        2.000000        0.00000001        0.00000002        0.00000000
     262         -0.225511        2.000000        0.00000377        0.00000999        0.00000025
     263         -0.224716        2.000000        0.00105648        0.00283015        0.00006592
     264         -0.224218        2.000000        0.00099448        0.00297852        0.00007009
     265         -0.223677        2.000000        0.00000332        0.00000871        0.00000020
     266         -0.223438        2.000000        0.00102939        0.00266818        0.00005923
     267         -0.223292        2.000000        0.00000548        0.00001658        0.00000021
     268         -0.223025        2.000000        0.00005620        0.00021576        0.00000424
     269         -0.222436        2.000000        0.00002548        0.00025155        0.00000591
     270         -0.222159        2.000000        0.00000007        0.00000025        0.00000001
     271         -0.221905        2.000000        0.00223706        0.00866692        0.00019640
     272         -0.221185        2.000000        0.00000136        0.00000611        0.00000013
     273         -0.220659        2.000000        0.00248855        0.01188542        0.00022743
     274         -0.219665        2.000000        0.00124848        0.00752362        0.00012690
     275         -0.219630        2.000000        0.00003808        0.00023658        0.00000387
     276         -0.218916        2.000000        0.00160604        0.00442612        0.00012646
     277         -0.218551        2.000000        0.00026798        0.00076463        0.00002669
     278         -0.218398        2.000000        0.00079074        0.00234048        0.00007433
     279         -0.218139        2.000000        0.00001483        0.00004239        0.00000128
     280         -0.217698        2.000000        0.01177284        0.03472908        0.00102532
     281         -0.217580        2.000000        0.00033247        0.00094528        0.00002819
     282         -0.217435        2.000000        0.00116044        0.00315009        0.00009577
     283         -0.216483        2.000000        0.00159513        0.00439662        0.00013270
     284         -0.216363        2.000000        0.00001663        0.00004358        0.00000129
     285         -0.216254        2.000000        0.00011935        0.00037953        0.00000760
     286         -0.215958        2.000000        0.00000060        0.00000164        0.00000005
     287         -0.215645        2.000000        0.00000300        0.00000880        0.00000026
     288         -0.215217        2.000000        0.00019944        0.00057298        0.00001534
     289         -0.214936        2.000000        0.00636556        0.01677315        0.00047241
     290         -0.214221        2.000000        0.00005440        0.00023198        0.00000551
     291         -0.213816        2.000000        0.00001646        0.00008674        0.00000131
     292         -0.213592        2.000000        0.00000083        0.00000218        0.00000007
     293         -0.213468        2.000000        0.00032328        0.00083588        0.00002526
     294         -0.213241        2.000000        0.00001941        0.00005315        0.00000144
     295         -0.213184        2.000000        0.00000431        0.00001307        0.00000036
     296         -0.212817        2.000000        0.00000051        0.00000191        0.00000005
     297         -0.212583        2.000000        0.00030313        0.00083406        0.00002601
     298         -0.212273        2.000000        0.00000183        0.00000500        0.00000014
     299         -0.211896        2.000000        0.00006540        0.00021469        0.00000587
     300         -0.211391        2.000000        0.00001475        0.00005061        0.00000118
     301         -0.211339        2.000000        0.00001243        0.00003215        0.00000126
     302         -0.211269        2.000000        0.00000059        0.00000284        0.00000005
     303         -0.211046        2.000000        0.00024975        0.00067179        0.00001696
     304         -0.210412        2.000000        0.00001668        0.00018995        0.00000302
     305         -0.210309        2.000000        0.00002983        0.00010650        0.00000262
     306         -0.210188        2.000000        0.00000424        0.00002459        0.00000040
     307         -0.210166        2.000000        0.00005386        0.00014799        0.00000364