# Projected DOS for list 131 of 3 atoms, at iteration step i = 0, E(Fermi) =     0.101540 a.u.
#     MO Eigenvalue [a.u.]      Occupation                 s                 p                 d
       1         -0.708367        2.000000        0.00000000        0.00000000        0.00000000
       2         -0.696979        2.000000        0.00000000        0.00000000        0.00000000
       3         -0.695301        2.000000        0.00000000        0.00000000        0.00000000
       4         -0.694902        2.000000        0.00000027        0.00000012        0.00000000
       5         -0.690081        2.000000        0.00011203        0.00006601        0.00000019
       6         -0.686805        2.000000        0.00000000        0.00000000        0.00000000
       7         -0.686571        2.000000        0.00000000        0.00000000        0.00000000
       8         -0.685003        2.000000        0.00000000        0.00000000        0.00000000
       9         -0.684036        2.000000        0.00000000        0.00000000        0.00000000
      10         -0.683920        2.000000        0.00007569        0.00007835        0.00000258
      11         -0.681735        2.000000        0.00000000        0.00000000        0.00000000
      12         -0.679408        2.000000        0.00000000        0.00000000        0.00000000
      13         -0.678932        2.000000        0.04306579        0.01010015        0.00017077
      14         -0.678381        2.000000        0.00000000        0.00000000        0.00000000
      15         -0.677963        2.000000        0.00000000        0.00000000        0.00000000
      16         -0.677540        2.000000        0.00000000        0.00000000        0.00000000
      17         -0.677381        2.000000        0.01325647        0.00507697        0.00009510
      18         -0.677246        2.000000        0.00000001        0.00000000        0.00000000
      19         -0.675827        2.000000        0.00000000        0.00000000        0.00000000
      20         -0.675724        2.000000        0.00042640        0.00224450        0.00001474
      21         -0.674932        2.000000        0.00009080        0.00055853        0.00001507
      22         -0.674380        2.000000        0.00000001        0.00000000        0.00000000
      23         -0.673393        2.000000        0.00000000        0.00000000        0.00000000
      24         -0.672924        2.000000        0.00014595        0.00073204        0.00000610
      25         -0.672289        2.000000        0.00000003        0.00000001        0.00000000
      26         -0.672227        2.000000        0.00001091        0.00000210        0.00000004
      27         -0.671275        2.000000        0.00023534        0.00055640        0.00000495
      28         -0.670770        2.000000        0.00000004        0.00000002        0.00000000
      29         -0.670400        2.000000        0.00000009        0.00000002        0.00000000
      30         -0.669922        2.000000        0.00000005        0.00000002        0.00000000
      31         -0.669606        2.000000        0.00494250        0.00072435        0.00000803
      32         -0.668947        2.000000        0.00056260        0.00052917        0.00000398
      33         -0.668931        2.000000        0.00078369        0.00091077        0.00000755
      34         -0.668431        2.000000        0.00000055        0.00000100        0.00000001
      35         -0.668008        2.000000        0.00000018        0.00000113        0.00000001
      36         -0.667083        2.000000        0.00000004        0.00000021        0.00000000
      37         -0.666996        2.000000        0.00001051        0.00004329        0.00000054
      38         -0.666939        2.000000        0.00000001        0.00000004        0.00000000
      39         -0.666646        2.000000        0.00000167        0.00000190        0.00000002
      40         -0.666363        2.000000        0.00000432        0.00000234        0.00000005
      41         -0.666281        2.000000        0.00559072        0.00361538        0.00009862
      42         -0.666129        2.000000        0.00001114        0.00000298        0.00000007
      43         -0.665867        2.000000        0.00000048        0.00000029        0.00000000
      44         -0.664404        2.000000        0.00107577        0.00144531        0.00001127
      45         -0.664061        2.000000        0.00000556        0.00000734        0.00000005
      46         -0.663948        2.000000        0.00072911        0.00018052        0.00000151
      47         -0.663550        2.000000        0.00000371        0.00000148        0.00000001
      48         -0.662943        2.000000        0.00222062        0.00140531        0.00001249
      49         -0.662627        2.000000        0.00000000        0.00000000        0.00000000
      50         -0.661965        2.000000        0.00000141        0.00000028        0.00000000
      51         -0.661528        2.000000        0.00101509        0.00030440        0.00000157
      52         -0.660900        2.000000        0.00002652        0.00001044        0.00000008
      53         -0.660166        2.000000        0.00000002        0.00000000        0.00000000
      54         -0.659683        2.000000        0.00113789        0.00057467        0.00000352
      55         -0.658835        2.000000        0.00000481        0.00000148        0.00000000
      56         -0.658814        2.000000        0.00055141        0.00022142        0.00000040
      57         -0.658691        2.000000        0.00251867        0.00041121        0.00000212
      58         -0.658084        2.000000        0.00002207        0.00014230        0.00000204
      59         -0.658073        2.000000        0.00006781        0.00042260        0.00000614
      60         -0.657975        2.000000        0.00000013        0.00000056        0.00000001
      61         -0.657678        2.000000        0.00000171        0.00000018        0.00000000
      62         -0.657592        2.000000        0.00000144        0.00000112        0.00000002
      63         -0.657226        2.000000        0.00582573        0.00152281        0.00001710
      64         -0.657087        2.000000        0.00000429        0.00000134        0.00000003
      65         -0.656742        2.000000        0.00007358        0.00002290        0.00000033
      66         -0.656449        2.000000        0.00002631        0.00002541        0.00000025
      67         -0.656215        2.000000        0.00020370        0.00009562        0.00000086
      68         -0.655700        2.000000        0.00041389        0.00016701        0.00000096
      69         -0.655174        2.000000        0.00383757        0.00106696        0.00000420
      70         -0.654827        2.000000        0.00003461        0.00000629        0.00000003
      71         -0.654660        2.000000        0.02665214        0.00511966        0.00003187
      72         -0.654406        2.000000        0.00005258        0.00001095        0.00000008
      73         -0.654250        2.000000        0.00003524        0.00000734        0.00000004
      74         -0.653619        2.000000        0.01527521        0.00755067        0.00001847
      75         -0.653105        2.000000        0.00490954        0.00167034        0.00000568
      76         -0.652904        2.000000        0.00664493        0.00214219        0.00000789
      77         -0.652612        2.000000        0.00000134        0.00000107        0.00000000
      78         -0.652411        2.000000        0.00000315        0.00000130        0.00000000
      79         -0.652213        2.000000        0.00072431        0.00052527        0.00000160
      80         -0.652083        2.000000        0.00001898        0.00000971        0.00000005
      81         -0.651807        2.000000        0.00009550        0.00033989        0.00000291
      82         -0.651706        2.000000        0.00093816        0.00279313        0.00002577
      83         -0.651237        2.000000        0.00074605        0.00035634        0.00000107
      84         -0.651053        2.000000        0.00045260        0.00028306        0.00000123
      85         -0.650411        2.000000        0.00046301        0.00010704        0.00000316
      86         -0.650326        2.000000        0.00251745        0.00047445        0.00000396
      87         -0.650219        2.000000        0.00005493        0.00001458        0.00000013
      88         -0.650130        2.000000        0.00101242        0.00022338        0.00000152
      89         -0.649849        2.000000        0.00071029        0.00017330        0.00000166
      90         -0.649510        2.000000        0.00003788        0.00001102        0.00000008
      91         -0.648737        2.000000        0.00004496        0.00001387        0.00000042
      92         -0.648608        2.000000        0.00017184        0.00015372        0.00000134
      93         -0.648509        2.000000        0.00001303        0.00000803        0.00000006
      94         -0.648091        2.000000        0.00271523        0.00051897        0.00000765
      95         -0.647956        2.000000        0.00020954        0.00058137        0.00000549
      96         -0.647875        2.000000        0.00002607        0.00000441        0.00000009
      97         -0.647628        2.000000        0.00001560        0.00000266        0.00000006
      98         -0.647248        2.000000        0.00000715        0.00000175        0.00000003
      99         -0.646997        2.000000        0.00077528        0.00031540        0.00000584
     100         -0.646893        2.000000        0.00264420        0.00070273        0.00000293
     101         -0.646794        2.000000        0.00002243        0.00000665        0.00000007
     102         -0.645843        2.000000        0.00012024        0.00005211        0.00000028
     103         -0.645519        2.000000        0.00000516        0.00000509        0.00000003
     104         -0.645232        2.000000        0.00001796        0.00001120        0.00000011
     105         -0.644964        2.000000        0.00002460        0.00000701        0.00000005
     106         -0.644451        2.000000        0.00517790        0.00143010        0.00000967
     107         -0.644170        2.000000        0.00075488        0.00019333        0.00000201
     108         -0.643891        2.000000        0.08004708        0.02251571        0.00015605
     109         -0.643862        2.000000        0.02386147        0.00658455        0.00005129
     110         -0.643478        2.000000        0.00058892        0.00019922        0.00000060
     111         -0.643325        2.000000        0.00029334        0.00013853        0.00000010
     112         -0.642934        2.000000        0.02654539        0.00900563        0.00003945
     113         -0.642899        2.000000        0.00002586        0.00000880        0.00000004
     114         -0.642460        2.000000        0.00000117        0.00000075        0.00000000
     115         -0.642175        2.000000        0.00003146        0.00022077        0.00000200
     116         -0.642120        2.000000        0.00000102        0.00000225        0.00000003
     117         -0.641851        2.000000        0.00015456        0.00004975        0.00000331
     118         -0.641683        2.000000        0.00010514        0.00003885        0.00000032
     119         -0.641305        2.000000        0.00024525        0.00022328        0.00000224
     120         -0.641072        2.000000        0.00003324        0.00012564        0.00000296
     121         -0.640960        2.000000        0.00154399        0.00177524        0.00010733
     122         -0.640793        2.000000        0.00158289        0.00077253        0.00000605
     123         -0.640578        2.000000        0.00011570        0.00013781        0.00000779
     124         -0.640464        2.000000        0.00039575        0.00050556        0.00000594
     125         -0.640169        2.000000        0.00031049        0.00041943        0.00003095
     126         -0.639736        2.000000        0.00033144        0.00079355        0.00000444
     127         -0.639499        2.000000        0.00050117        0.00043035        0.00000288
     128         -0.639154        2.000000        0.00043551        0.00008804        0.00000195
     129         -0.639060        2.000000        0.00007157        0.00038980        0.00003128
     130         -0.638976        2.000000        0.00010221        0.00014624        0.00001162
     131         -0.638593        2.000000        0.00018560        0.00012972        0.00000522
     132         -0.638261        2.000000        0.00000044        0.00000085        0.00000001
     133         -0.638059        2.000000        0.00025665        0.00004576        0.00000235
     134         -0.637912        2.000000        0.00043994        0.00008006        0.00000324
     135         -0.637762        2.000000        0.00002940        0.00000521        0.00000017
     136         -0.637584        2.000000        0.00006966        0.00004371        0.00000012
     137         -0.636804        2.000000        0.00000245        0.00000063        0.00000001
     138         -0.636640        2.000000        0.00625869        0.00163835        0.00000824
     139         -0.636429        2.000000        0.00141578        0.00082712        0.00000548
     140         -0.635515        2.000000        0.00021787        0.00007058        0.00000457
     141         -0.634989        2.000000        0.00031693        0.00006480        0.00000212
     142         -0.634462        2.000000        0.00037891        0.00008281        0.00000194
     143         -0.634132        2.000000        0.00000364        0.00000127        0.00000005
     144         -0.633763        2.000000        0.00176413        0.00032399        0.00000789
     145         -0.633531        2.000000        0.00000273        0.00000048        0.00000001
     146         -0.632585        2.000000        0.00007025        0.00001418        0.00000029
     147         -0.632333        2.000000        0.00026219        0.00013133        0.00000197
     148         -0.632031        2.000000        0.00202303        0.00045946        0.00000513
     149         -0.631841        2.000000        0.00209259        0.00045152        0.00000746
     150         -0.631318        2.000000        0.00053416        0.00010911        0.00000163
     151         -0.630640        2.000000        0.00704264        0.00155340        0.00001972
     152         -0.630519        2.000000        0.00000135        0.00000656        0.00000006
     153         -0.630490        2.000000        0.00007916        0.00001730        0.00000026
     154         -0.629959        2.000000        0.00535301        0.00125419        0.00001484
     155         -0.629452        2.000000        0.00743928        0.00178240        0.00001878
     156         -0.629210        2.000000        0.00073180        0.00017663        0.00000180
     157         -0.628856        2.000000        0.00316310        0.00082146        0.00000658
     158         -0.628516        2.000000        0.00804305        0.00200235        0.00001887
     159         -0.628511        2.000000        0.00030306        0.00007867        0.00000074
     160         -0.628382        2.000000        0.00055639        0.00015919        0.00000115
     161         -0.628242        2.000000        0.18202139        0.04707308        0.00040764
     162         -0.628026        2.000000        0.07159559        0.01872106        0.00015730
     163         -0.627712        2.000000        0.00445617        0.00115551        0.00000981
     164         -0.627438        2.000000        0.00735225        0.00204043        0.00001601
     165         -0.627281        2.000000        0.00002810        0.00001590        0.00000011
     166         -0.626983        2.000000        0.00016025        0.00009893        0.00000067
     167         -0.626804        2.000000        0.00051842        0.00012870        0.00000204
     168         -0.626588        2.000000        0.00080674        0.00026835        0.00000159
     169         -0.626019        2.000000        0.00473704        0.00132697        0.00000961
     170         -0.625843        2.000000        0.00021627        0.00007419        0.00000041
     171         -0.625019        2.000000        0.00093062        0.00035143        0.00000174
     172         -0.624831        2.000000        0.00677796        0.00214021        0.00001169
     173         -0.624166        2.000000        0.00709893        0.00240118        0.00002183
     174         -0.623906        2.000000        0.00028106        0.00008680        0.00000063
     175         -0.623799        2.000000        0.00193123        0.00058331        0.00000414
     176         -0.623716        2.000000        0.00090002        0.00028511        0.00000151
     177         -0.623382        2.000000        0.01224724        0.00385152        0.00002113
     178         -0.623067        2.000000        0.00002505        0.00000801        0.00000004
     179         -0.622801        2.000000        0.01057832        0.00350439        0.00001657
     180         -0.622617        2.000000        0.07427063        0.02558566        0.00011270
     181         -0.622499        2.000000        0.00818368        0.00286585        0.00001230
     182         -0.621672        2.000000        0.00010327        0.00007592        0.00000035
     183         -0.621151        2.000000        0.00005774        0.00005459        0.00000026
     184         -0.620781        2.000000        0.00012580        0.00011028        0.00000048
     185         -0.620579        2.000000        0.00056720        0.00029786        0.00000104
     186         -0.619930        2.000000        0.00005264        0.00002962        0.00000011
     187         -0.618694        2.000000        0.00000097        0.00000036        0.00000000
     188         -0.618461        2.000000        0.00116464        0.00045631        0.00000140
     189         -0.618211        2.000000        0.00001177        0.00000449        0.00000002
     190         -0.617957        2.000000        0.00021632        0.00008135        0.00000034
     191         -0.617770        2.000000        0.00024155        0.00009541        0.00000030
     192         -0.617636        2.000000        0.00009011        0.00003458        0.00000024
     193         -0.617200        2.000000        0.00000026        0.00000116        0.00000000
     194         -0.616810        2.000000        0.00032229        0.00014947        0.00000050
     195         -0.615618        2.000000        0.00437523        0.00182707        0.00000632
     196         -0.615377        2.000000        0.00010061        0.00004157        0.00000013
     197         -0.615228        2.000000        0.00330945        0.00139515        0.00000430
     198         -0.614941        2.000000        0.00000127        0.00000053        0.00000000
     199         -0.613862        2.000000        0.00030933        0.00012886        0.00000050
     200         -0.613167        2.000000        0.00000016        0.00000053        0.00000000
     201         -0.612937        2.000000        0.00000004        0.00000002        0.00000000
     202         -0.612465        2.000000        0.00000072        0.00000038        0.00000000
     203         -0.611371        2.000000        0.00019194        0.00008607        0.00000031
     204         -0.611273        2.000000        0.00192712        0.00086989        0.00000301
     205         -0.610903        2.000000        0.00008720        0.00003988        0.00000013
     206         -0.609912        2.000000        0.00000001        0.00000004        0.00000000
     207         -0.609442        2.000000        0.00000001        0.00000001        0.00000000
     208         -0.609149        2.000000        0.00005179        0.00002603        0.00000014
     209         -0.608882        2.000000        0.00281612        0.00141722        0.00000681
     210         -0.608562        2.000000        0.00004545        0.00002561        0.00000006
     211         -0.608012        2.000000        0.00011972        0.00006181        0.00000022
     212         -0.607014        2.000000        0.00000017        0.00000008        0.00000000
     213         -0.606300        2.000000        0.00000074        0.00000050        0.00000001
     214         -0.605948        2.000000        0.00000015        0.00000010        0.00000000
     215         -0.605403        2.000000        0.00000020        0.00000013        0.00000000
     216         -0.604664        2.000000        0.00000615        0.00000385        0.00000000
     217         -0.604080        2.000000        0.00000315        0.00000219        0.00000002
     218         -0.603538        2.000000        0.00001070        0.00000674        0.00000002
     219         -0.603145        2.000000        0.00000107        0.00000065        0.00000000
     220         -0.602213        2.000000        0.00000112        0.00000135        0.00000002
     221         -0.601871        2.000000        0.00000012        0.00000012        0.00000000
     222         -0.600521        2.000000        0.00000000        0.00000001        0.00000000
     223         -0.599848        2.000000        0.00000075        0.00000037        0.00000000
     224         -0.598111        2.000000        0.00000010        0.00000037        0.00000001
     225         -0.597286        2.000000        0.00000481        0.00000452        0.00000001
     226         -0.597121        2.000000        0.00001046        0.00000801        0.00000000
     227         -0.595585        2.000000        0.00016139        0.00014493        0.00000013
     228         -0.591103        2.000000        0.00000000        0.00000000        0.00000000
     229         -0.582585        2.000000        0.00000000        0.00000000        0.00000000
     230         -0.576283        2.000000        0.00000000        0.00000000        0.00000000
     231         -0.258156        2.000000        0.00000000        0.00000000        0.00000000
     232         -0.253473        2.000000        0.00000000        0.00000000        0.00000000
     233         -0.246233        2.000000        0.00000000        0.00000000        0.00000000
     234         -0.244651        2.000000        0.00000000        0.00000000        0.00000000
     235         -0.243092        2.000000        0.00000000        0.00000000        0.00000000
     236         -0.242544        2.000000        0.00000003        0.00000010        0.00000000
     237         -0.241048        2.000000        0.00000000        0.00000000        0.00000000
     238         -0.240546        2.000000        0.00000000        0.00000000        0.00000000
     239         -0.237982        2.000000        0.00000002        0.00000007        0.00000000
     240         -0.237798        2.000000        0.00013769        0.00054625        0.00000763
     241         -0.236566        2.000000        0.00000775        0.00003142        0.00000034
     242         -0.235920        2.000000        0.00000282        0.00001185        0.00000013
     243         -0.233145        2.000000        0.00011896        0.00073461        0.00000996
     244         -0.232785        2.000000        0.00000001        0.00000003        0.00000000
     245         -0.232224        2.000000        0.00000005        0.00000024        0.00000000
     246         -0.232174        2.000000        0.00009571        0.00091521        0.00000567
     247         -0.232015        2.000000        0.00008748        0.00062651        0.00000479
     248         -0.230744        2.000000        0.00010278        0.00090780        0.00001067
     249         -0.230697        2.000000        0.00000037        0.00000349        0.00000003
     250         -0.229959        2.000000        0.00029093        0.00446604        0.00001929
     251         -0.229741        2.000000        0.00000007        0.00000095        0.00000001
     252         -0.228898        2.000000        0.00000002        0.00000011        0.00000000
     253         -0.227939        2.000000        0.00000000        0.00000003        0.00000000
     254         -0.227542        2.000000        0.00000000        0.00000000        0.00000000
     255         -0.227010        2.000000        0.00000000        0.00000000        0.00000000
     256         -0.226860        2.000000        0.00011406        0.00035166        0.00000857
     257         -0.226780        2.000000        0.00000001        0.00000002        0.00000000
     258         -0.226656        2.000000        0.00000000        0.00000000        0.00000000
     259         -0.226503        2.000000        0.00000275        0.00000955        0.00000024
     260         -0.226036        2.000000        0.00000000        0.00000000        0.00000000
     261         -0.225667        2.000000        0.00000376        0.00010550        0.00000301
     262         -0.225511        2.000000        0.00000075        0.00001145        0.00000007
     263         -0.224716        2.000000        0.00000004        0.00000018        0.00000000
     264         -0.224218        2.000000        0.00000001        0.00000004        0.00000000
     265         -0.223677        2.000000        0.00016923        0.00065062        0.00001076
     266         -0.223438        2.000000        0.00000020        0.00000074        0.00000001
     267         -0.223292        2.000000        0.00000001        0.00000005        0.00000000
     268         -0.223025        2.000000        0.00000002        0.00000007        0.00000000
     269         -0.222436        2.000000        0.00000000        0.00000001        0.00000000
     270         -0.222159        2.000000        0.00035410        0.00252220        0.00005210
     271         -0.221905        2.000000        0.00000006        0.00000037        0.00000001
     272         -0.221185        2.000000        0.00018836        0.00054266        0.00001229
     273         -0.220659        2.000000        0.00000005        0.00000021        0.00000000
     274         -0.219665        2.000000        0.00000195        0.00000926        0.00000010
     275         -0.219630        2.000000        0.00005905        0.00026559        0.00000308
     276         -0.218916        2.000000        0.00000011        0.00000061        0.00000001
     277         -0.218551        2.000000        0.00001511        0.00007744        0.00000159
     278         -0.218398        2.000000        0.00001282        0.00006485        0.00000140
     279         -0.218139        2.000000        0.00003190        0.00015180        0.00000362
     280         -0.217698        2.000000        0.00000019        0.00000189        0.00000005
     281         -0.217580        2.000000        0.00000530        0.00007549        0.00000261
     282         -0.217435        2.000000        0.00000024        0.00000225        0.00000008
     283         -0.216483        2.000000        0.00000048        0.00000124        0.00000003
     284         -0.216363        2.000000        0.00002025        0.00014300        0.00000069
     285         -0.216254        2.000000        0.00000021        0.00000130        0.00000001
     286         -0.215958        2.000000        0.00001365        0.00010375        0.00000070
     287         -0.215645        2.000000        0.00005842        0.00031833        0.00000421
     288         -0.215217        2.000000        0.00000003        0.00000029        0.00000000
     289         -0.214936        2.000000        0.00000000        0.00000002        0.00000000
     290         -0.214221        2.000000        0.00000002        0.00000010        0.00000000
     291         -0.213816        2.000000        0.00000009        0.00000036        0.00000001
     292         -0.213592        2.000000        0.00013546        0.00078743        0.00001934
     293         -0.213468        2.000000        0.00000001        0.00000064        0.00000002
     294         -0.213241        2.000000        0.00000005        0.00000017        0.00000000
     295         -0.213184        2.000000        0.00003970        0.00015233        0.00000309
     296         -0.212817        2.000000        0.00005400        0.00040249        0.00000973
     297         -0.212583        2.000000        0.00000210        0.00000654        0.00000017
     298         -0.212273        2.000000        0.00131858        0.00373225        0.00009369
     299         -0.211896        2.000000        0.00000172        0.00000496        0.00000012
     300         -0.211391        2.000000        0.00013690        0.00040730        0.00001009
     301         -0.211339        2.000000        0.00002304        0.00007001        0.00000164
     302         -0.211269        2.000000        0.00000969        0.00003156        0.00000075
     303         -0.211046        2.000000        0.00000341        0.00003649        0.00000066
     304         -0.210412        2.000000        0.00001501        0.00005564        0.00000111
     305         -0.210309        2.000000        0.00001071        0.00008369        0.00000391
     306         -0.210188        2.000000        0.00001339        0.00016140        0.00000740
     307         -0.210166        2.000000        0.00000850        0.00017372        0.00000740