# Projected DOS for list 206 of 3 atoms, at iteration step i = 0, E(Fermi) =     0.101540 a.u.
#     MO Eigenvalue [a.u.]      Occupation                 s                 p                 d
       1         -0.708367        2.000000        0.00000355        0.00000576        0.00000002
       2         -0.696979        2.000000        0.00985928        0.00335322        0.00003285
       3         -0.695301        2.000000        0.00003974        0.00002297        0.00000020
       4         -0.694902        2.000000        0.00000000        0.00000000        0.00000000
       5         -0.690081        2.000000        0.00000000        0.00000000        0.00000000
       6         -0.686805        2.000000        0.01127401        0.00260347        0.00003231
       7         -0.686571        2.000000        0.00130077        0.00019288        0.00000311
       8         -0.685003        2.000000        0.00003746        0.00002873        0.00000056
       9         -0.684036        2.000000        0.00148944        0.00028642        0.00000339
      10         -0.683920        2.000000        0.00000000        0.00000000        0.00000000
      11         -0.681735        2.000000        0.00184125        0.00034108        0.00000449
      12         -0.679408        2.000000        0.00128460        0.00012716        0.00000246
      13         -0.678932        2.000000        0.00000000        0.00000000        0.00000000
      14         -0.678381        2.000000        0.02221288        0.00391359        0.00005286
      15         -0.677963        2.000000        0.00779860        0.00129566        0.00001447
      16         -0.677540        2.000000        0.00122218        0.00020256        0.00000266
      17         -0.677381        2.000000        0.00000000        0.00000000        0.00000000
      18         -0.677246        2.000000        0.00058607        0.00010138        0.00000186
      19         -0.675827        2.000000        0.00001985        0.00002274        0.00000008
      20         -0.675724        2.000000        0.00000000        0.00000000        0.00000000
      21         -0.674932        2.000000        0.00000000        0.00000000        0.00000000
      22         -0.674380        2.000000        0.00067038        0.00027943        0.00000626
      23         -0.673393        2.000000        0.00000935        0.00005004        0.00000040
      24         -0.672924        2.000000        0.00000000        0.00000000        0.00000000
      25         -0.672289        2.000000        0.00100054        0.00026093        0.00000287
      26         -0.672227        2.000000        0.00000719        0.00000080        0.00000002
      27         -0.671275        2.000000        0.00000000        0.00000000        0.00000000
      28         -0.670770        2.000000        0.01552660        0.00333822        0.00001202
      29         -0.670400        2.000000        0.00849498        0.00205076        0.00000337
      30         -0.669922        2.000000        0.04892185        0.01116417        0.00002648
      31         -0.669606        2.000000        0.00000016        0.00000007        0.00000000
      32         -0.668947        2.000000        0.00001628        0.00009913        0.00000235
      33         -0.668931        2.000000        0.00000967        0.00006012        0.00000146
      34         -0.668431        2.000000        0.00011451        0.00023356        0.00000679
      35         -0.668008        2.000000        0.00028578        0.00006114        0.00000102
      36         -0.667083        2.000000        0.01852569        0.00428005        0.00001416
      37         -0.666996        2.000000        0.00000216        0.00000051        0.00000000
      38         -0.666939        2.000000        0.00317496        0.00087760        0.00000228
      39         -0.666646        2.000000        0.00438324        0.00110794        0.00000218
      40         -0.666363        2.000000        0.06328870        0.01555783        0.00003624
      41         -0.666281        2.000000        0.00001164        0.00000287        0.00000001
      42         -0.666129        2.000000        0.01557229        0.00388926        0.00000825
      43         -0.665867        2.000000        0.14752193        0.03705664        0.00008245
      44         -0.664404        2.000000        0.00000030        0.00000024        0.00000000
      45         -0.664061        2.000000        0.00000940        0.00005651        0.00000105
      46         -0.663948        2.000000        0.00001694        0.00000656        0.00000001
      47         -0.663550        2.000000        0.00075718        0.00021277        0.00000036
      48         -0.662943        2.000000        0.00000001        0.00000000        0.00000000
      49         -0.662627        2.000000        0.01541064        0.00620350        0.00000509
      50         -0.661965        2.000000        0.00129211        0.00035590        0.00000118
      51         -0.661528        2.000000        0.00000022        0.00000009        0.00000000
      52         -0.660900        2.000000        0.00000098        0.00000030        0.00000002
      53         -0.660166        2.000000        0.00482559        0.00330913        0.00016496
      54         -0.659683        2.000000        0.00000000        0.00000000        0.00000000
      55         -0.658835        2.000000        0.00056990        0.00028658        0.00001579
      56         -0.658814        2.000000        0.00000225        0.00000114        0.00000006
      57         -0.658691        2.000000        0.00000038        0.00000020        0.00000001
      58         -0.658084        2.000000        0.00326319        0.00134743        0.00000189
      59         -0.658073        2.000000        0.00115152        0.00049359        0.00000072
      60         -0.657975        2.000000        0.00092368        0.00027176        0.00000244
      61         -0.657678        2.000000        0.00091223        0.00020602        0.00000260
      62         -0.657592        2.000000        0.00112428        0.00081048        0.00000452
      63         -0.657226        2.000000        0.00000305        0.00000088        0.00000001
      64         -0.657087        2.000000        0.03381486        0.00874302        0.00010351
      65         -0.656742        2.000000        0.00586893        0.00149186        0.00001897
      66         -0.656449        2.000000        0.00912071        0.00296292        0.00002006
      67         -0.656215        2.000000        0.00854474        0.00260380        0.00001994
      68         -0.655700        2.000000        0.00033653        0.00011011        0.00000104
      69         -0.655174        2.000000        0.00000145        0.00000069        0.00000000
      70         -0.654827        2.000000        0.04169319        0.01385564        0.00006615
      71         -0.654660        2.000000        0.00018286        0.00005878        0.00000029
      72         -0.654406        2.000000        0.02221534        0.00685748        0.00004684
      73         -0.654250        2.000000        0.00004065        0.00024839        0.00000283
      74         -0.653619        2.000000        0.00000217        0.00000122        0.00000001
      75         -0.653105        2.000000        0.00048843        0.00027036        0.00000120
      76         -0.652904        2.000000        0.00032228        0.00017589        0.00000075
      77         -0.652612        2.000000        0.01073818        0.00553538        0.00002271
      78         -0.652411        2.000000        0.01224383        0.00738911        0.00002891
      79         -0.652213        2.000000        0.00002475        0.00001426        0.00000005
      80         -0.652083        2.000000        0.00000083        0.00000150        0.00000002
      81         -0.651807        2.000000        0.00002404        0.00002198        0.00000022
      82         -0.651706        2.000000        0.00001588        0.00000953        0.00000008
      83         -0.651237        2.000000        0.00000672        0.00002919        0.00000056
      84         -0.651053        2.000000        0.00008859        0.00007897        0.00000119
      85         -0.650411        2.000000        0.00000851        0.00002220        0.00000059
      86         -0.650326        2.000000        0.00000094        0.00003522        0.00000088
      87         -0.650219        2.000000        0.00162061        0.00069503        0.00001311
      88         -0.650130        2.000000        0.00002472        0.00004323        0.00000104
      89         -0.649849        2.000000        0.00006342        0.00004269        0.00000082
      90         -0.649510        2.000000        0.00029611        0.00007406        0.00000126
      91         -0.648737        2.000000        0.00005995        0.00001763        0.00000109
      92         -0.648608        2.000000        0.00003263        0.00000754        0.00000057
      93         -0.648509        2.000000        0.00017195        0.00007352        0.00000386
      94         -0.648091        2.000000        0.00005082        0.00001044        0.00000070
      95         -0.647956        2.000000        0.00000037        0.00000010        0.00000001
      96         -0.647875        2.000000        0.00969777        0.00187323        0.00010757
      97         -0.647628        2.000000        0.00086391        0.00084779        0.00000132
      98         -0.647248        2.000000        0.00602940        0.00117634        0.00008569
      99         -0.646997        2.000000        0.00000295        0.00000063        0.00000002
     100         -0.646893        2.000000        0.00000003        0.00000008        0.00000000
     101         -0.646794        2.000000        0.00015387        0.00003078        0.00000164
     102         -0.645843        2.000000        0.00000620        0.00000543        0.00000001
     103         -0.645519        2.000000        0.00003919        0.00017850        0.00000053
     104         -0.645232        2.000000        0.00002352        0.00004176        0.00000019
     105         -0.644964        2.000000        0.00013937        0.00021184        0.00000460
     106         -0.644451        2.000000        0.00002901        0.00000835        0.00000021
     107         -0.644170        2.000000        0.00889336        0.00299576        0.00002742
     108         -0.643891        2.000000        0.00101340        0.00036025        0.00000220
     109         -0.643862        2.000000        0.00014552        0.00006963        0.00000016
     110         -0.643478        2.000000        0.10086566        0.03419583        0.00027802
     111         -0.643325        2.000000        0.01283161        0.00430559        0.00003728
     112         -0.642934        2.000000        0.00013636        0.00004386        0.00000043
     113         -0.642899        2.000000        0.00244222        0.00110770        0.00001584
     114         -0.642460        2.000000        0.00324559        0.00086211        0.00002012
     115         -0.642175        2.000000        0.00011666        0.00003577        0.00000056
     116         -0.642120        2.000000        0.00512444        0.00212944        0.00002052
     117         -0.641851        2.000000        0.00025827        0.00010179        0.00000120
     118         -0.641683        2.000000        0.00051086        0.00033356        0.00000101
     119         -0.641305        2.000000        0.00012645        0.00005227        0.00000027
     120         -0.641072        2.000000        0.00000206        0.00000238        0.00000004
     121         -0.640960        2.000000        0.00000640        0.00000396        0.00000001
     122         -0.640793        2.000000        0.00000758        0.00000324        0.00000001
     123         -0.640578        2.000000        0.00047633        0.00020965        0.00000058
     124         -0.640464        2.000000        0.00013008        0.00005430        0.00000021
     125         -0.640169        2.000000        0.00002484        0.00000859        0.00000009
     126         -0.639736        2.000000        0.00004880        0.00002353        0.00000004
     127         -0.639499        2.000000        0.00034671        0.00014117        0.00000060
     128         -0.639154        2.000000        0.00596316        0.00243705        0.00000988
     129         -0.639060        2.000000        0.00447839        0.00181073        0.00000774
     130         -0.638976        2.000000        0.00969193        0.00394976        0.00001624
     131         -0.638593        2.000000        0.00003038        0.00002425        0.00000003
     132         -0.638261        2.000000        0.00485678        0.00151632        0.00003707
     133         -0.638059        2.000000        0.00031553        0.00012254        0.00000136
     134         -0.637912        2.000000        0.00009901        0.00002962        0.00000043
     135         -0.637762        2.000000        0.00199397        0.00079613        0.00000981
     136         -0.637584        2.000000        0.00000713        0.00000278        0.00000002
     137         -0.636804        2.000000        0.00594137        0.00164238        0.00003436
     138         -0.636640        2.000000        0.00003061        0.00000886        0.00000016
     139         -0.636429        2.000000        0.00002585        0.00000745        0.00000014
     140         -0.635515        2.000000        0.00000282        0.00000075        0.00000003
     141         -0.634989        2.000000        0.00000020        0.00000009        0.00000000
     142         -0.634462        2.000000        0.00000114        0.00000036        0.00000001
     143         -0.634132        2.000000        0.00000294        0.00000113        0.00000002
     144         -0.633763        2.000000        0.00000001        0.00000003        0.00000000
     145         -0.633531        2.000000        0.00002910        0.00005542        0.00000043
     146         -0.632585        2.000000        0.00000367        0.00000341        0.00000014
     147         -0.632333        2.000000        0.00000016        0.00000010        0.00000000
     148         -0.632031        2.000000        0.00000001        0.00000001        0.00000000
     149         -0.631841        2.000000        0.00000011        0.00000008        0.00000000
     150         -0.631318        2.000000        0.00000321        0.00000574        0.00000000
     151         -0.630640        2.000000        0.00000694        0.00000868        0.00000000
     152         -0.630519        2.000000        0.00011348        0.00008880        0.00000005
     153         -0.630490        2.000000        0.00042834        0.00029070        0.00000030
     154         -0.629959        2.000000        0.00000000        0.00000000        0.00000000
     155         -0.629452        2.000000        0.00000450        0.00000661        0.00000001
     156         -0.629210        2.000000        0.00032555        0.00057022        0.00000062
     157         -0.628856        2.000000        0.00000019        0.00000014        0.00000000
     158         -0.628516        2.000000        0.00028827        0.00023925        0.00000092
     159         -0.628511        2.000000        0.00018796        0.00015795        0.00000063
     160         -0.628382        2.000000        0.00011433        0.00008113        0.00000047
     161         -0.628242        2.000000        0.00008547        0.00005771        0.00000035
     162         -0.628026        2.000000        0.00008069        0.00006416        0.00000027
     163         -0.627712        2.000000        0.00000965        0.00002843        0.00000004
     164         -0.627438        2.000000        0.00000244        0.00000087        0.00000004
     165         -0.627281        2.000000        0.00009179        0.00002891        0.00000132
     166         -0.626983        2.000000        0.00002573        0.00000743        0.00000041
     167         -0.626804        2.000000        0.00000248        0.00000067        0.00000004
     168         -0.626588        2.000000        0.00004076        0.00001219        0.00000041
     169         -0.626019        2.000000        0.00000001        0.00000000        0.00000000
     170         -0.625843        2.000000        0.00005318        0.00002278        0.00000065
     171         -0.625019        2.000000        0.00003138        0.00001638        0.00000030
     172         -0.624831        2.000000        0.00000212        0.00000104        0.00000002
     173         -0.624166        2.000000        0.00000009        0.00000009        0.00000000
     174         -0.623906        2.000000        0.00000089        0.00000032        0.00000001
     175         -0.623799        2.000000        0.00000003        0.00000002        0.00000000
     176         -0.623716        2.000000        0.00000017        0.00000010        0.00000000
     177         -0.623382        2.000000        0.00000029        0.00000022        0.00000000
     178         -0.623067        2.000000        0.00000956        0.00001108        0.00000010
     179         -0.622801        2.000000        0.00000041        0.00000017        0.00000000
     180         -0.622617        2.000000        0.00000342        0.00000107        0.00000005
     181         -0.622499        2.000000        0.00001206        0.00000352        0.00000020
     182         -0.621672        2.000000        0.00009911        0.00003777        0.00000164
     183         -0.621151        2.000000        0.00055439        0.00021524        0.00000939
     184         -0.620781        2.000000        0.00011416        0.00004645        0.00000197
     185         -0.620579        2.000000        0.00000007        0.00000003        0.00000000
     186         -0.619930        2.000000        0.00000004        0.00000012        0.00000000
     187         -0.618694        2.000000        0.00090000        0.00039705        0.00001483
     188         -0.618461        2.000000        0.00000060        0.00000132        0.00000003
     189         -0.618211        2.000000        0.00203915        0.00064152        0.00002931
     190         -0.617957        2.000000        0.00005228        0.00001606        0.00000075
     191         -0.617770        2.000000        0.00000003        0.00000022        0.00000000
     192         -0.617636        2.000000        0.00000193        0.00000064        0.00000003
     193         -0.617200        2.000000        0.00000000        0.00000006        0.00000000
     194         -0.616810        2.000000        0.00000000        0.00000000        0.00000000
     195         -0.615618        2.000000        0.00000006        0.00000003        0.00000000
     196         -0.615377        2.000000        0.00000329        0.00000236        0.00000001
     197         -0.615228        2.000000        0.00000002        0.00000001        0.00000000
     198         -0.614941        2.000000        0.00004858        0.00004242        0.00000007
     199         -0.613862        2.000000        0.00000007        0.00000004        0.00000000
     200         -0.613167        2.000000        0.00000000        0.00000000        0.00000000
     201         -0.612937        2.000000        0.00040202        0.00034878        0.00000063
     202         -0.612465        2.000000        0.00000069        0.00000080        0.00000000
     203         -0.611371        2.000000        0.00000034        0.00000071        0.00000001
     204         -0.611273        2.000000        0.00000004        0.00000008        0.00000000
     205         -0.610903        2.000000        0.00000001        0.00000001        0.00000000
     206         -0.609912        2.000000        0.00000000        0.00000000        0.00000000
     207         -0.609442        2.000000        0.00000001        0.00000003        0.00000000
     208         -0.609149        2.000000        0.00000001        0.00000001        0.00000000
     209         -0.608882        2.000000        0.00000000        0.00000000        0.00000000
     210         -0.608562        2.000000        0.00000000        0.00000000        0.00000000
     211         -0.608012        2.000000        0.00000001        0.00000000        0.00000000
     212         -0.607014        2.000000        0.00000000        0.00000000        0.00000000
     213         -0.606300        2.000000        0.00000002        0.00000002        0.00000000
     214         -0.605948        2.000000        0.00000000        0.00000000        0.00000000
     215         -0.605403        2.000000        0.00000000        0.00000001        0.00000000
     216         -0.604664        2.000000        0.00000076        0.00000049        0.00000004
     217         -0.604080        2.000000        0.00000013        0.00000008        0.00000001
     218         -0.603538        2.000000        0.00000073        0.00000050        0.00000004
     219         -0.603145        2.000000        0.00000007        0.00000005        0.00000000
     220         -0.602213        2.000000        0.00000043        0.00000031        0.00000002
     221         -0.601871        2.000000        0.00000002        0.00000001        0.00000000
     222         -0.600521        2.000000        0.00001079        0.00000824        0.00000061
     223         -0.599848        2.000000        0.00000007        0.00000005        0.00000000
     224         -0.598111        2.000000        0.00000000        0.00000000        0.00000000
     225         -0.597286        2.000000        0.00000000        0.00000000        0.00000000
     226         -0.597121        2.000000        0.00000000        0.00000000        0.00000000
     227         -0.595585        2.000000        0.00000000        0.00000000        0.00000000
     228         -0.591103        2.000000        0.00000000        0.00000000        0.00000000
     229         -0.582585        2.000000        0.00000000        0.00000000        0.00000000
     230         -0.576283        2.000000        0.00000000        0.00000000        0.00000000
     231         -0.258156        2.000000        0.00000209        0.00000567        0.00000014
     232         -0.253473        2.000000        0.00013871        0.00061245        0.00000935
     233         -0.246233        2.000000        0.00012529        0.00036617        0.00000855
     234         -0.244651        2.000000        0.00000506        0.00002838        0.00000043
     235         -0.243092        2.000000        0.00000219        0.00000853        0.00000014
     236         -0.242544        2.000000        0.00000000        0.00000000        0.00000000
     237         -0.241048        2.000000        0.00002241        0.00010929        0.00000090
     238         -0.240546        2.000000        0.00001551        0.00005266        0.00000109
     239         -0.237982        2.000000        0.00000808        0.00002547        0.00000056
     240         -0.237798        2.000000        0.00000027        0.00000128        0.00000004
     241         -0.236566        2.000000        0.00002533        0.00008088        0.00000224
     242         -0.235920        2.000000        0.00001700        0.00006116        0.00000121
     243         -0.233145        2.000000        0.00000000        0.00000001        0.00000000
     244         -0.232785        2.000000        0.00010639        0.00032736        0.00000662
     245         -0.232224        2.000000        0.00000026        0.00000807        0.00000018
     246         -0.232174        2.000000        0.00000000        0.00000000        0.00000000
     247         -0.232015        2.000000        0.00000001        0.00000006        0.00000000
     248         -0.230744        2.000000        0.00000011        0.00000031        0.00000001
     249         -0.230697        2.000000        0.00003387        0.00010452        0.00000293
     250         -0.229959        2.000000        0.00000002        0.00000017        0.00000000
     251         -0.229741        2.000000        0.00005322        0.00016562        0.00000356
     252         -0.228898        2.000000        0.00004034        0.00019199        0.00000411
     253         -0.227939        2.000000        0.00007098        0.00026887        0.00000587
     254         -0.227542        2.000000        0.00028738        0.00098659        0.00002156
     255         -0.227010        2.000000        0.00018472        0.00061027        0.00001351
     256         -0.226860        2.000000        0.00000001        0.00000004        0.00000000
     257         -0.226780        2.000000        0.00020152        0.00060249        0.00001323
     258         -0.226656        2.000000        0.00120849        0.00399740        0.00009073
     259         -0.226503        2.000000        0.00000001        0.00000004        0.00000000
     260         -0.226036        2.000000        0.01564200        0.05672477        0.00123981
     261         -0.225667        2.000000        0.00000007        0.00000023        0.00000001
     262         -0.225511        2.000000        0.00000073        0.00000299        0.00000006
     263         -0.224716        2.000000        0.00000051        0.00001587        0.00000038
     264         -0.224218        2.000000        0.00001877        0.00009133        0.00000073
     265         -0.223677        2.000000        0.00000151        0.00001602        0.00000043
     266         -0.223438        2.000000        0.00009695        0.00116331        0.00002884
     267         -0.223292        2.000000        0.00000415        0.00004358        0.00000111
     268         -0.223025        2.000000        0.00036972        0.00362269        0.00008729
     269         -0.222436        2.000000        0.00116355        0.01053931        0.00024778
     270         -0.222159        2.000000        0.00000018        0.00000090        0.00000002
     271         -0.221905        2.000000        0.00086152        0.00260258        0.00006658
     272         -0.221185        2.000000        0.00000056        0.00000219        0.00000004
     273         -0.220659        2.000000        0.00725454        0.02053750        0.00055206
     274         -0.219665        2.000000        0.00402121        0.01120224        0.00028861
     275         -0.219630        2.000000        0.00012178        0.00033997        0.00000860
     276         -0.218916        2.000000        0.00001532        0.00004820        0.00000104
     277         -0.218551        2.000000        0.00037760        0.00106801        0.00002669
     278         -0.218398        2.000000        0.00035576        0.00100656        0.00002591
     279         -0.218139        2.000000        0.00000071        0.00000198        0.00000005
     280         -0.217698        2.000000        0.00004542        0.00012517        0.00000283
     281         -0.217580        2.000000        0.00000220        0.00000681        0.00000014
     282         -0.217435        2.000000        0.00000899        0.00003936        0.00000112
     283         -0.216483        2.000000        0.00000783        0.00006502        0.00000112
     284         -0.216363        2.000000        0.00000189        0.00000487        0.00000016
     285         -0.216254        2.000000        0.00007211        0.00018727        0.00000548
     286         -0.215958        2.000000        0.00000090        0.00000320        0.00000008
     287         -0.215645        2.000000        0.00000443        0.00001720        0.00000041
     288         -0.215217        2.000000        0.00000066        0.00000424        0.00000001
     289         -0.214936        2.000000        0.00001286        0.00004050        0.00000108
     290         -0.214221        2.000000        0.00000829        0.00002746        0.00000048
     291         -0.213816        2.000000        0.00000765        0.00002675        0.00000050
     292         -0.213592        2.000000        0.00000067        0.00000287        0.00000004
     293         -0.213468        2.000000        0.00004965        0.00015750        0.00000342
     294         -0.213241        2.000000        0.00000066        0.00000296        0.00000007
     295         -0.213184        2.000000        0.00000196        0.00001350        0.00000008
     296         -0.212817        2.000000        0.00000056        0.00000369        0.00000002
     297         -0.212583        2.000000        0.00000682        0.00001976        0.00000077
     298         -0.212273        2.000000        0.00000126        0.00000597        0.00000004
     299         -0.211896        2.000000        0.00002632        0.00007926        0.00000161
     300         -0.211391        2.000000        0.00000206        0.00000999        0.00000016
     301         -0.211339        2.000000        0.00000014        0.00000124        0.00000001
     302         -0.211269        2.000000        0.00000090        0.00000255        0.00000008
     303         -0.211046        2.000000        0.00000656        0.00006684        0.00000245
     304         -0.210412        2.000000        0.00000483        0.00003749        0.00000023
     305         -0.210309        2.000000        0.00000518        0.00004455        0.00000067
     306         -0.210188        2.000000        0.00000765        0.00007458        0.00000086
     307         -0.210166        2.000000        0.00000411        0.00004064        0.00000043