# Projected DOS for list 154 of 3 atoms, at iteration step i = 0, E(Fermi) =     0.101540 a.u.
#     MO Eigenvalue [a.u.]      Occupation                 s                 p                 d
       1         -0.708367        2.000000        0.00000035        0.00000052        0.00000000
       2         -0.696979        2.000000        0.00019031        0.00016962        0.00000018
       3         -0.695301        2.000000        0.00005238        0.00008541        0.00000014
       4         -0.694902        2.000000        0.00000000        0.00000000        0.00000000
       5         -0.690081        2.000000        0.00000000        0.00000000        0.00000000
       6         -0.686805        2.000000        0.00022443        0.00012409        0.00000073
       7         -0.686571        2.000000        0.00000205        0.00001298        0.00000003
       8         -0.685003        2.000000        0.00009053        0.00016617        0.00000097
       9         -0.684036        2.000000        0.00019155        0.00024598        0.00000141
      10         -0.683920        2.000000        0.00000000        0.00000000        0.00000000
      11         -0.681735        2.000000        0.00004683        0.00013441        0.00000114
      12         -0.679408        2.000000        0.00007381        0.00003166        0.00000024
      13         -0.678932        2.000000        0.00000000        0.00000000        0.00000000
      14         -0.678381        2.000000        0.00002268        0.00006675        0.00000043
      15         -0.677963        2.000000        0.00492541        0.00481950        0.00003984
      16         -0.677540        2.000000        0.00010719        0.00007393        0.00000048
      17         -0.677381        2.000000        0.00000000        0.00000000        0.00000000
      18         -0.677246        2.000000        0.00075206        0.00078386        0.00000443
      19         -0.675827        2.000000        0.00012940        0.00007493        0.00000033
      20         -0.675724        2.000000        0.00000000        0.00000000        0.00000000
      21         -0.674932        2.000000        0.00000000        0.00000000        0.00000000
      22         -0.674380        2.000000        0.00099628        0.00116719        0.00000874
      23         -0.673393        2.000000        0.00001597        0.00003746        0.00000018
      24         -0.672924        2.000000        0.00000000        0.00000000        0.00000000
      25         -0.672289        2.000000        0.00017759        0.00005737        0.00000109
      26         -0.672227        2.000000        0.00002990        0.00001498        0.00000011
      27         -0.671275        2.000000        0.00000001        0.00000000        0.00000000
      28         -0.670770        2.000000        0.00468715        0.00214574        0.00002102
      29         -0.670400        2.000000        0.00059827        0.00036067        0.00000229
      30         -0.669922        2.000000        0.00040058        0.00034041        0.00000779
      31         -0.669606        2.000000        0.00000022        0.00000026        0.00000000
      32         -0.668947        2.000000        0.00028179        0.00036902        0.00000321
      33         -0.668931        2.000000        0.00016550        0.00021643        0.00000191
      34         -0.668431        2.000000        0.00012024        0.00007902        0.00000138
      35         -0.668008        2.000000        0.00000298        0.00002532        0.00000010
      36         -0.667083        2.000000        0.00009111        0.00008610        0.00000139
      37         -0.666996        2.000000        0.00000004        0.00000002        0.00000000
      38         -0.666939        2.000000        0.00074835        0.00023571        0.00000413
      39         -0.666646        2.000000        0.00000705        0.00001370        0.00000015
      40         -0.666363        2.000000        0.00018380        0.00019784        0.00000038
      41         -0.666281        2.000000        0.00000001        0.00000003        0.00000000
      42         -0.666129        2.000000        0.00007670        0.00013132        0.00000075
      43         -0.665867        2.000000        0.00002903        0.00015109        0.00000148
      44         -0.664404        2.000000        0.00000005        0.00000036        0.00000000
      45         -0.664061        2.000000        0.00001077        0.00011550        0.00000141
      46         -0.663948        2.000000        0.00000038        0.00000290        0.00000005
      47         -0.663550        2.000000        0.00000223        0.00002042        0.00000067
      48         -0.662943        2.000000        0.00000000        0.00000000        0.00000000
      49         -0.662627        2.000000        0.00076882        0.00087120        0.00000666
      50         -0.661965        2.000000        0.00002885        0.00033603        0.00000394
      51         -0.661528        2.000000        0.00000005        0.00000013        0.00000000
      52         -0.660900        2.000000        0.00000058        0.00000008        0.00000000
      53         -0.660166        2.000000        0.00108644        0.00011444        0.00000088
      54         -0.659683        2.000000        0.00000000        0.00000001        0.00000000
      55         -0.658835        2.000000        0.00001092        0.00016847        0.00000448
      56         -0.658814        2.000000        0.00000003        0.00000049        0.00000001
      57         -0.658691        2.000000        0.00000000        0.00000007        0.00000000
      58         -0.658084        2.000000        0.00010365        0.00005038        0.00000043
      59         -0.658073        2.000000        0.00003679        0.00001724        0.00000015
      60         -0.657975        2.000000        0.00001583        0.00007177        0.00000081
      61         -0.657678        2.000000        0.00000799        0.00006464        0.00000077
      62         -0.657592        2.000000        0.00000573        0.00007873        0.00000046
      63         -0.657226        2.000000        0.00000017        0.00000004        0.00000000
      64         -0.657087        2.000000        0.00071321        0.00034448        0.00000481
      65         -0.656742        2.000000        0.00008820        0.00003112        0.00000028
      66         -0.656449        2.000000        0.00061986        0.00034570        0.00000084
      67         -0.656215        2.000000        0.00045141        0.00035398        0.00000127
      68         -0.655700        2.000000        0.00002832        0.00005732        0.00000042
      69         -0.655174        2.000000        0.00000020        0.00000009        0.00000000
      70         -0.654827        2.000000        0.00139809        0.00061828        0.00000357
      71         -0.654660        2.000000        0.00000120        0.00000189        0.00000002
      72         -0.654406        2.000000        0.00007926        0.00069044        0.00000776
      73         -0.654250        2.000000        0.00000383        0.00003048        0.00000013
      74         -0.653619        2.000000        0.00000011        0.00000097        0.00000001
      75         -0.653105        2.000000        0.00010810        0.00003477        0.00000047
      76         -0.652904        2.000000        0.00007867        0.00002226        0.00000022
      77         -0.652612        2.000000        0.00353635        0.00053179        0.00000673
      78         -0.652411        2.000000        0.00032094        0.00139329        0.00001056
      79         -0.652213        2.000000        0.00000459        0.00000197        0.00000004
      80         -0.652083        2.000000        0.00000034        0.00000464        0.00000003
      81         -0.651807        2.000000        0.00001718        0.00000570        0.00000006
      82         -0.651706        2.000000        0.00000415        0.00000111        0.00000002
      83         -0.651237        2.000000        0.00014797        0.00001827        0.00000040
      84         -0.651053        2.000000        0.00021776        0.00002020        0.00000071
      85         -0.650411        2.000000        0.00023694        0.00003764        0.00000039
      86         -0.650326        2.000000        0.00054361        0.00011089        0.00000065
      87         -0.650219        2.000000        0.00005636        0.00023006        0.00000226
      88         -0.650130        2.000000        0.00064138        0.00016390        0.00000050
      89         -0.649849        2.000000        0.00001982        0.00005876        0.00000100
      90         -0.649510        2.000000        0.00078188        0.00025036        0.00000381
      91         -0.648737        2.000000        0.00002261        0.00003333        0.00000038
      92         -0.648608        2.000000        0.00001844        0.00001321        0.00000012
      93         -0.648509        2.000000        0.00038549        0.00029268        0.00000194
      94         -0.648091        2.000000        0.00001092        0.00001683        0.00000017
      95         -0.647956        2.000000        0.00000033        0.00000009        0.00000000
      96         -0.647875        2.000000        0.00302755        0.00098642        0.00001447
      97         -0.647628        2.000000        0.00003063        0.00034749        0.00000197
      98         -0.647248        2.000000        0.00272870        0.00096497        0.00001227
      99         -0.646997        2.000000        0.00000005        0.00000056        0.00000001
     100         -0.646893        2.000000        0.00000015        0.00000015        0.00000000
     101         -0.646794        2.000000        0.00006608        0.00001403        0.00000023
     102         -0.645843        2.000000        0.00000277        0.00000213        0.00000002
     103         -0.645519        2.000000        0.00002414        0.00002688        0.00000051
     104         -0.645232        2.000000        0.00001633        0.00001033        0.00000012
     105         -0.644964        2.000000        0.00030165        0.00008873        0.00000133
     106         -0.644451        2.000000        0.00000361        0.00000926        0.00000005
     107         -0.644170        2.000000        0.00053368        0.00016235        0.00000339
     108         -0.643891        2.000000        0.00001618        0.00003095        0.00000019
     109         -0.643862        2.000000        0.00018157        0.00004950        0.00000035
     110         -0.643478        2.000000        0.00404189        0.00156239        0.00002039
     111         -0.643325        2.000000        0.00085595        0.00023456        0.00000293
     112         -0.642934        2.000000        0.00000459        0.00000462        0.00000005
     113         -0.642899        2.000000        0.00004088        0.00030303        0.00000175
     114         -0.642460        2.000000        0.00063103        0.00017561        0.00000209
     115         -0.642175        2.000000        0.00000611        0.00000499        0.00000008
     116         -0.642120        2.000000        0.00013510        0.00020902        0.00000270
     117         -0.641851        2.000000        0.00003465        0.00002104        0.00000085
     118         -0.641683        2.000000        0.00009412        0.00008801        0.00000013
     119         -0.641305        2.000000        0.00001054        0.00005386        0.00000150
     120         -0.641072        2.000000        0.00043692        0.00025307        0.00000540
     121         -0.640960        2.000000        0.00005463        0.00005327        0.00000170
     122         -0.640793        2.000000        0.00009143        0.00005922        0.00000137
     123         -0.640578        2.000000        0.00013796        0.00027011        0.00000889
     124         -0.640464        2.000000        0.00000079        0.00002290        0.00000067
     125         -0.640169        2.000000        0.00000040        0.00000245        0.00000003
     126         -0.639736        2.000000        0.00001901        0.00001055        0.00000006
     127         -0.639499        2.000000        0.00005501        0.00001489        0.00000009
     128         -0.639154        2.000000        0.00050075        0.00010576        0.00000092
     129         -0.639060        2.000000        0.00033005        0.00007402        0.00000075
     130         -0.638976        2.000000        0.00058930        0.00015481        0.00000171
     131         -0.638593        2.000000        0.00002447        0.00001744        0.00000013
     132         -0.638261        2.000000        0.00279682        0.00052280        0.00000824
     133         -0.638059        2.000000        0.00043771        0.00009613        0.00000041
     134         -0.637912        2.000000        0.00004565        0.00000831        0.00000002
     135         -0.637762        2.000000        0.00056135        0.00013805        0.00000186
     136         -0.637584        2.000000        0.00000002        0.00000022        0.00000000
     137         -0.636804        2.000000        0.00036266        0.00006039        0.00000112
     138         -0.636640        2.000000        0.00000093        0.00000017        0.00000000
     139         -0.636429        2.000000        0.00000155        0.00000031        0.00000000
     140         -0.635515        2.000000        0.00000034        0.00000053        0.00000000
     141         -0.634989        2.000000        0.00000117        0.00000068        0.00000001
     142         -0.634462        2.000000        0.00000186        0.00000090        0.00000000
     143         -0.634132        2.000000        0.00000883        0.00000416        0.00000003
     144         -0.633763        2.000000        0.00000006        0.00000004        0.00000000
     145         -0.633531        2.000000        0.00211060        0.00089257        0.00000511
     146         -0.632585        2.000000        0.00004851        0.00001085        0.00000009
     147         -0.632333        2.000000        0.00000006        0.00000004        0.00000000
     148         -0.632031        2.000000        0.00000038        0.00000009        0.00000000
     149         -0.631841        2.000000        0.00000023        0.00000011        0.00000000
     150         -0.631318        2.000000        0.00000088        0.00000072        0.00000000
     151         -0.630640        2.000000        0.00000397        0.00000097        0.00000000
     152         -0.630519        2.000000        0.00001933        0.00000628        0.00000004
     153         -0.630490        2.000000        0.00003087        0.00001351        0.00000018
     154         -0.629959        2.000000        0.00000381        0.00000114        0.00000000
     155         -0.629452        2.000000        0.00022179        0.00006371        0.00000047
     156         -0.629210        2.000000        0.01699578        0.00508218        0.00004180
     157         -0.628856        2.000000        0.00000015        0.00000009        0.00000000
     158         -0.628516        2.000000        0.00370447        0.00126976        0.00001101
     159         -0.628511        2.000000        0.00184648        0.00064687        0.00000672
     160         -0.628382        2.000000        0.00256407        0.00086555        0.00000876
     161         -0.628242        2.000000        0.00352204        0.00115238        0.00001026
     162         -0.628026        2.000000        0.00402682        0.00127489        0.00001097
     163         -0.627712        2.000000        0.00085129        0.00023853        0.00000213
     164         -0.627438        2.000000        0.00015835        0.00006032        0.00000065
     165         -0.627281        2.000000        0.00000505        0.00005416        0.00000081
     166         -0.626983        2.000000        0.00039489        0.00009006        0.00000079
     167         -0.626804        2.000000        0.00005484        0.00001277        0.00000011
     168         -0.626588        2.000000        0.00042041        0.00009944        0.00000086
     169         -0.626019        2.000000        0.00000017        0.00000004        0.00000000
     170         -0.625843        2.000000        0.01300708        0.00397844        0.00002904
     171         -0.625019        2.000000        0.01220038        0.00358681        0.00002538
     172         -0.624831        2.000000        0.00090228        0.00026482        0.00000183
     173         -0.624166        2.000000        0.00024626        0.00006924        0.00000046
     174         -0.623906        2.000000        0.00001827        0.00000774        0.00000001
     175         -0.623799        2.000000        0.00002372        0.00000677        0.00000004
     176         -0.623716        2.000000        0.00153137        0.00041447        0.00000249
     177         -0.623382        2.000000        0.00059111        0.00016454        0.00000113
     178         -0.623067        2.000000        0.00001599        0.00000383        0.00000004
     179         -0.622801        2.000000        0.00011586        0.00003135        0.00000020
     180         -0.622617        2.000000        0.00062473        0.00015889        0.00000107
     181         -0.622499        2.000000        0.00473780        0.00121705        0.00000829
     182         -0.621672        2.000000        0.00765403        0.00189297        0.00001227
     183         -0.621151        2.000000        0.08802632        0.02195832        0.00014784
     184         -0.620781        2.000000        0.01819854        0.00451962        0.00003141
     185         -0.620579        2.000000        0.00026241        0.00006811        0.00000044
     186         -0.619930        2.000000        0.00170940        0.00043827        0.00000286
     187         -0.618694        2.000000        0.54417267        0.14469185        0.00085202
     188         -0.618461        2.000000        0.00006604        0.00001927        0.00000008
     189         -0.618211        2.000000        0.00848712        0.00234846        0.00001305
     190         -0.617957        2.000000        0.00001651        0.00000725        0.00000002
     191         -0.617770        2.000000        0.00000998        0.00000303        0.00000001
     192         -0.617636        2.000000        0.00001558        0.00000470        0.00000003
     193         -0.617200        2.000000        0.00001090        0.00000284        0.00000001
     194         -0.616810        2.000000        0.00000250        0.00000065        0.00000000
     195         -0.615618        2.000000        0.00000182        0.00000047        0.00000000
     196         -0.615377        2.000000        0.00002371        0.00000659        0.00000004
     197         -0.615228        2.000000        0.00000386        0.00000099        0.00000001
     198         -0.614941        2.000000        0.00022864        0.00006049        0.00000052
     199         -0.613862        2.000000        0.00000005        0.00000003        0.00000000
     200         -0.613167        2.000000        0.00000066        0.00000017        0.00000000
     201         -0.612937        2.000000        0.00002951        0.00000887        0.00000006
     202         -0.612465        2.000000        0.00000277        0.00000076        0.00000000
     203         -0.611371        2.000000        0.00000103        0.00000048        0.00000000
     204         -0.611273        2.000000        0.00000079        0.00000023        0.00000000
     205         -0.610903        2.000000        0.00000761        0.00000201        0.00000001
     206         -0.609912        2.000000        0.00000008        0.00000007        0.00000000
     207         -0.609442        2.000000        0.00013113        0.00003407        0.00000024
     208         -0.609149        2.000000        0.00001027        0.00000266        0.00000002
     209         -0.608882        2.000000        0.00000029        0.00000008        0.00000000
     210         -0.608562        2.000000        0.00000000        0.00000000        0.00000000
     211         -0.608012        2.000000        0.00000046        0.00000013        0.00000000
     212         -0.607014        2.000000        0.00000030        0.00000008        0.00000000
     213         -0.606300        2.000000        0.00000055        0.00000018        0.00000000
     214         -0.605948        2.000000        0.00000083        0.00000037        0.00000000
     215         -0.605403        2.000000        0.00000049        0.00000011        0.00000000
     216         -0.604664        2.000000        0.00000159        0.00000130        0.00000000
     217         -0.604080        2.000000        0.00000021        0.00000021        0.00000000
     218         -0.603538        2.000000        0.00000160        0.00000130        0.00000000
     219         -0.603145        2.000000        0.00000032        0.00000016        0.00000000
     220         -0.602213        2.000000        0.00000096        0.00000078        0.00000000
     221         -0.601871        2.000000        0.00000004        0.00000003        0.00000000
     222         -0.600521        2.000000        0.00002263        0.00001930        0.00000003
     223         -0.599848        2.000000        0.00000014        0.00000013        0.00000000
     224         -0.598111        2.000000        0.00000000        0.00000000        0.00000000
     225         -0.597286        2.000000        0.00000000        0.00000000        0.00000000
     226         -0.597121        2.000000        0.00000000        0.00000000        0.00000000
     227         -0.595585        2.000000        0.00000000        0.00000000        0.00000000
     228         -0.591103        2.000000        0.00000000        0.00000000        0.00000000
     229         -0.582585        2.000000        0.00000000        0.00000000        0.00000000
     230         -0.576283        2.000000        0.00000000        0.00000000        0.00000000
     231         -0.258156        2.000000        0.00000022        0.00000043        0.00000001
     232         -0.253473        2.000000        0.00004094        0.00015013        0.00000156
     233         -0.246233        2.000000        0.00000695        0.00003328        0.00000086
     234         -0.244651        2.000000        0.00001913        0.00006666        0.00000163
     235         -0.243092        2.000000        0.00000655        0.00004694        0.00000047
     236         -0.242544        2.000000        0.00000000        0.00000000        0.00000000
     237         -0.241048        2.000000        0.00002298        0.00011449        0.00000279
     238         -0.240546        2.000000        0.00000404        0.00001338        0.00000021
     239         -0.237982        2.000000        0.00000031        0.00000198        0.00000001
     240         -0.237798        2.000000        0.00000001        0.00000008        0.00000000
     241         -0.236566        2.000000        0.00000035        0.00000290        0.00000004
     242         -0.235920        2.000000        0.00000013        0.00000171        0.00000000
     243         -0.233145        2.000000        0.00000000        0.00000001        0.00000000
     244         -0.232785        2.000000        0.00001993        0.00011780        0.00000117
     245         -0.232224        2.000000        0.00121887        0.00496901        0.00008747
     246         -0.232174        2.000000        0.00000007        0.00000028        0.00000001
     247         -0.232015        2.000000        0.00000019        0.00000069        0.00000001
     248         -0.230744        2.000000        0.00000182        0.00000861        0.00000014
     249         -0.230697        2.000000        0.00078486        0.00353365        0.00005900
     250         -0.229959        2.000000        0.00000011        0.00000035        0.00000001
     251         -0.229741        2.000000        0.00008670        0.00030164        0.00000607
     252         -0.228898        2.000000        0.00000060        0.00000307        0.00000002
     253         -0.227939        2.000000        0.00001434        0.00006259        0.00000033
     254         -0.227542        2.000000        0.00000345        0.00002195        0.00000011
     255         -0.227010        2.000000        0.00000574        0.00004924        0.00000014
     256         -0.226860        2.000000        0.00000000        0.00000000        0.00000000
     257         -0.226780        2.000000        0.00001382        0.00005450        0.00000067
     258         -0.226656        2.000000        0.00000181        0.00000569        0.00000010
     259         -0.226503        2.000000        0.00000000        0.00000000        0.00000000
     260         -0.226036        2.000000        0.00009928        0.00028882        0.00000775
     261         -0.225667        2.000000        0.00000000        0.00000000        0.00000000
     262         -0.225511        2.000000        0.00000002        0.00000009        0.00000000
     263         -0.224716        2.000000        0.00004811        0.00011046        0.00000287
     264         -0.224218        2.000000        0.00004147        0.00010981        0.00000279
     265         -0.223677        2.000000        0.00000008        0.00000020        0.00000000
     266         -0.223438        2.000000        0.00000105        0.00000646        0.00000016
     267         -0.223292        2.000000        0.00000012        0.00000017        0.00000000
     268         -0.223025        2.000000        0.00009042        0.00021211        0.00000552
     269         -0.222436        2.000000        0.00000297        0.00001240        0.00000037
     270         -0.222159        2.000000        0.00000001        0.00000002        0.00000000
     271         -0.221905        2.000000        0.00007904        0.00023089        0.00000494
     272         -0.221185        2.000000        0.00000000        0.00000003        0.00000000
     273         -0.220659        2.000000        0.00000612        0.00003716        0.00000096
     274         -0.219665        2.000000        0.00002241        0.00008627        0.00000059
     275         -0.219630        2.000000        0.00000067        0.00000243        0.00000002
     276         -0.218916        2.000000        0.00008180        0.00042064        0.00001118
     277         -0.218551        2.000000        0.00000384        0.00011384        0.00000069
     278         -0.218398        2.000000        0.00000427        0.00007886        0.00000070
     279         -0.218139        2.000000        0.00000007        0.00000017        0.00000001
     280         -0.217698        2.000000        0.00006218        0.00017383        0.00000470
     281         -0.217580        2.000000        0.00000173        0.00001194        0.00000007
     282         -0.217435        2.000000        0.00015201        0.00049386        0.00000989
     283         -0.216483        2.000000        0.00001459        0.00018981        0.00000203
     284         -0.216363        2.000000        0.00000128        0.00000335        0.00000012
     285         -0.216254        2.000000        0.00019801        0.00101927        0.00002082
     286         -0.215958        2.000000        0.00000023        0.00000089        0.00000002
     287         -0.215645        2.000000        0.00000048        0.00000588        0.00000003
     288         -0.215217        2.000000        0.00000141        0.00000193        0.00000012
     289         -0.214936        2.000000        0.00001072        0.00003951        0.00000051
     290         -0.214221        2.000000        0.00000203        0.00004726        0.00000046
     291         -0.213816        2.000000        0.00006108        0.00022467        0.00000523
     292         -0.213592        2.000000        0.00000001        0.00000045        0.00000000
     293         -0.213468        2.000000        0.00001465        0.00028125        0.00000066
     294         -0.213241        2.000000        0.00003299        0.00011102        0.00000257
     295         -0.213184        2.000000        0.00000046        0.00000695        0.00000003
     296         -0.212817        2.000000        0.00000000        0.00000065        0.00000000
     297         -0.212583        2.000000        0.00001910        0.00004571        0.00000134
     298         -0.212273        2.000000        0.00000006        0.00000113        0.00000001
     299         -0.211896        2.000000        0.00011109        0.00032589        0.00000893
     300         -0.211391        2.000000        0.00000052        0.00000240        0.00000009
     301         -0.211339        2.000000        0.00000616        0.00002427        0.00000045
     302         -0.211269        2.000000        0.00000159        0.00000361        0.00000011
     303         -0.211046        2.000000        0.00000029        0.00000508        0.00000002
     304         -0.210412        2.000000        0.00001919        0.00005890        0.00000184
     305         -0.210309        2.000000        0.00000633        0.00002346        0.00000058
     306         -0.210188        2.000000        0.00000129        0.00000598        0.00000012
     307         -0.210166        2.000000        0.00000119        0.00000280        0.00000007