# Projected DOS for list 94 of 3 atoms, at iteration step i = 0, E(Fermi) =     0.101540 a.u.
#     MO Eigenvalue [a.u.]      Occupation                 s                 p                 d
       1         -0.708367        2.000000        0.00000005        0.00000004        0.00000000
       2         -0.696979        2.000000        0.00019129        0.00013901        0.00000071
       3         -0.695301        2.000000        0.00000753        0.00000849        0.00000006
       4         -0.694902        2.000000        0.00000000        0.00000000        0.00000000
       5         -0.690081        2.000000        0.00000000        0.00000000        0.00000000
       6         -0.686805        2.000000        0.00108210        0.00041979        0.00000406
       7         -0.686571        2.000000        0.00009905        0.00013112        0.00000093
       8         -0.685003        2.000000        0.00006474        0.00001164        0.00000009
       9         -0.684036        2.000000        0.00306479        0.00072451        0.00000636
      10         -0.683920        2.000000        0.00000000        0.00000000        0.00000000
      11         -0.681735        2.000000        0.01219046        0.00195946        0.00004492
      12         -0.679408        2.000000        0.00011716        0.00002878        0.00000025
      13         -0.678932        2.000000        0.00000000        0.00000000        0.00000000
      14         -0.678381        2.000000        0.00003135        0.00001686        0.00000022
      15         -0.677963        2.000000        0.00100051        0.00019765        0.00000521
      16         -0.677540        2.000000        0.00851013        0.00147086        0.00002587
      17         -0.677381        2.000000        0.00000000        0.00000000        0.00000000
      18         -0.677246        2.000000        0.00177356        0.00042118        0.00000656
      19         -0.675827        2.000000        0.00001851        0.00013920        0.00000237
      20         -0.675724        2.000000        0.00000000        0.00000000        0.00000000
      21         -0.674932        2.000000        0.00000000        0.00000000        0.00000000
      22         -0.674380        2.000000        0.00016452        0.00067978        0.00000754
      23         -0.673393        2.000000        0.00000449        0.00001289        0.00000010
      24         -0.672924        2.000000        0.00000000        0.00000000        0.00000000
      25         -0.672289        2.000000        0.00103700        0.00040378        0.00000775
      26         -0.672227        2.000000        0.00001100        0.00003287        0.00000021
      27         -0.671275        2.000000        0.00000000        0.00000001        0.00000000
      28         -0.670770        2.000000        0.00707229        0.00206701        0.00003104
      29         -0.670400        2.000000        0.01941362        0.00696183        0.00009609
      30         -0.669922        2.000000        0.00103622        0.00236063        0.00001668
      31         -0.669606        2.000000        0.00000319        0.00000078        0.00000001
      32         -0.668947        2.000000        0.00538479        0.00076272        0.00001067
      33         -0.668931        2.000000        0.00314440        0.00044531        0.00000622
      34         -0.668431        2.000000        0.00024359        0.00074552        0.00000841
      35         -0.668008        2.000000        0.00094732        0.00036730        0.00000491
      36         -0.667083        2.000000        0.00459741        0.00131650        0.00001457
      37         -0.666996        2.000000        0.00000024        0.00000010        0.00000000
      38         -0.666939        2.000000        0.00066665        0.00026655        0.00000254
      39         -0.666646        2.000000        0.00701482        0.00113070        0.00001293
      40         -0.666363        2.000000        0.00858720        0.00137003        0.00001513
      41         -0.666281        2.000000        0.00000430        0.00000214        0.00000002
      42         -0.666129        2.000000        0.00051932        0.00199684        0.00002762
      43         -0.665867        2.000000        0.00292177        0.00035504        0.00000582
      44         -0.664404        2.000000        0.00000760        0.00000331        0.00000008
      45         -0.664061        2.000000        0.00737937        0.00241983        0.00005202
      46         -0.663948        2.000000        0.00000328        0.00000227        0.00000008
      47         -0.663550        2.000000        0.00350906        0.00206162        0.00002019
      48         -0.662943        2.000000        0.00000001        0.00000003        0.00000000
      49         -0.662627        2.000000        0.00072639        0.00010215        0.00000147
      50         -0.661965        2.000000        0.00002454        0.00004423        0.00000030
      51         -0.661528        2.000000        0.00000049        0.00000010        0.00000000
      52         -0.660900        2.000000        0.00000531        0.00000195        0.00000002
      53         -0.660166        2.000000        0.00065789        0.00076493        0.00000441
      54         -0.659683        2.000000        0.00000004        0.00000001        0.00000000
      55         -0.658835        2.000000        0.01022472        0.00345741        0.00003524
      56         -0.658814        2.000000        0.00003169        0.00001252        0.00000012
      57         -0.658691        2.000000        0.00000202        0.00000182        0.00000002
      58         -0.658084        2.000000        0.01626057        0.00217141        0.00003841
      59         -0.658073        2.000000        0.00497011        0.00066656        0.00001135
      60         -0.657975        2.000000        0.00046600        0.00009907        0.00000035
      61         -0.657678        2.000000        0.01076671        0.00402350        0.00004070
      62         -0.657592        2.000000        0.06790643        0.01062932        0.00015784
      63         -0.657226        2.000000        0.00000385        0.00000127        0.00000001
      64         -0.657087        2.000000        0.00474296        0.00059297        0.00001839
      65         -0.656742        2.000000        0.00488929        0.00080119        0.00000966
      66         -0.656449        2.000000        0.00228325        0.00035807        0.00000410
      67         -0.656215        2.000000        0.00143877        0.00027173        0.00000376
      68         -0.655700        2.000000        0.00034283        0.00007770        0.00000074
      69         -0.655174        2.000000        0.00000005        0.00000027        0.00000000
      70         -0.654827        2.000000        0.00099757        0.00082496        0.00002365
      71         -0.654660        2.000000        0.00003041        0.00000397        0.00000015
      72         -0.654406        2.000000        0.00698436        0.00095839        0.00002815
      73         -0.654250        2.000000        0.00562185        0.00221043        0.00001175
      74         -0.653619        2.000000        0.00000441        0.00000079        0.00000001
      75         -0.653105        2.000000        0.00038640        0.00009956        0.00000067
      76         -0.652904        2.000000        0.00008137        0.00003308        0.00000023
      77         -0.652612        2.000000        0.00150778        0.00087903        0.00000465
      78         -0.652411        2.000000        0.00034424        0.00136705        0.00002223
      79         -0.652213        2.000000        0.00001959        0.00000403        0.00000009
      80         -0.652083        2.000000        0.00017443        0.00004349        0.00000026
      81         -0.651807        2.000000        0.00080064        0.00021375        0.00000072
      82         -0.651706        2.000000        0.00010539        0.00003298        0.00000008
      83         -0.651237        2.000000        0.00024480        0.00009862        0.00000034
      84         -0.651053        2.000000        0.00044655        0.00017152        0.00000050
      85         -0.650411        2.000000        0.00010871        0.00003402        0.00000005
      86         -0.650326        2.000000        0.00004185        0.00002028        0.00000005
      87         -0.650219        2.000000        0.00004148        0.00002144        0.00000024
      88         -0.650130        2.000000        0.00004805        0.00001967        0.00000036
      89         -0.649849        2.000000        0.00022179        0.00007413        0.00000006
      90         -0.649510        2.000000        0.00000087        0.00000346        0.00000003
      91         -0.648737        2.000000        0.00086171        0.00047114        0.00000058
      92         -0.648608        2.000000        0.00047093        0.00025144        0.00000030
      93         -0.648509        2.000000        0.00225947        0.00076115        0.00000075
      94         -0.648091        2.000000        0.00033946        0.00018729        0.00000022
      95         -0.647956        2.000000        0.00000547        0.00000261        0.00000000
      96         -0.647875        2.000000        0.02332997        0.01043113        0.00000528
      97         -0.647628        2.000000        0.00088691        0.00040504        0.00000115
      98         -0.647248        2.000000        0.00376582        0.00268877        0.00001251
      99         -0.646997        2.000000        0.00001380        0.00000556        0.00000001
     100         -0.646893        2.000000        0.00000061        0.00000028        0.00000000
     101         -0.646794        2.000000        0.00575248        0.00167411        0.00000436
     102         -0.645843        2.000000        0.00010157        0.00004010        0.00000212
     103         -0.645519        2.000000        0.00065995        0.00012374        0.00000320
     104         -0.645232        2.000000        0.00027241        0.00012977        0.00000013
     105         -0.644964        2.000000        0.00127092        0.00020663        0.00000608
     106         -0.644451        2.000000        0.00029938        0.00015069        0.00000015
     107         -0.644170        2.000000        0.00350714        0.00114242        0.00000308
     108         -0.643891        2.000000        0.00005605        0.00001186        0.00000015
     109         -0.643862        2.000000        0.00001760        0.00001069        0.00000006
     110         -0.643478        2.000000        0.00749625        0.00205244        0.00001095
     111         -0.643325        2.000000        0.00034150        0.00007901        0.00000090
     112         -0.642934        2.000000        0.00011192        0.00003989        0.00000007
     113         -0.642899        2.000000        0.00884901        0.00253495        0.00001358
     114         -0.642460        2.000000        0.15814319        0.05056664        0.00021042
     115         -0.642175        2.000000        0.00034016        0.00010946        0.00000056
     116         -0.642120        2.000000        0.00133277        0.00055516        0.00000301
     117         -0.641851        2.000000        0.00039175        0.00013075        0.00000074
     118         -0.641683        2.000000        0.00222437        0.00066469        0.00000298
     119         -0.641305        2.000000        0.00065252        0.00021563        0.00000059
     120         -0.641072        2.000000        0.00022221        0.00005124        0.00000065
     121         -0.640960        2.000000        0.00024151        0.00006786        0.00000043
     122         -0.640793        2.000000        0.00011419        0.00002899        0.00000024
     123         -0.640578        2.000000        0.00209454        0.00064530        0.00000245
     124         -0.640464        2.000000        0.00032055        0.00011267        0.00000023
     125         -0.640169        2.000000        0.00004713        0.00001692        0.00000004
     126         -0.639736        2.000000        0.00002567        0.00000709        0.00000006
     127         -0.639499        2.000000        0.00028360        0.00007920        0.00000049
     128         -0.639154        2.000000        0.00181959        0.00051363        0.00000299
     129         -0.639060        2.000000        0.00134169        0.00037808        0.00000218
     130         -0.638976        2.000000        0.00170213        0.00047697        0.00000267
     131         -0.638593        2.000000        0.00114082        0.00032800        0.00000222
     132         -0.638261        2.000000        0.06749542        0.02112491        0.00011237
     133         -0.638059        2.000000        0.00203184        0.00051872        0.00000532
     134         -0.637912        2.000000        0.00576544        0.00170057        0.00000995
     135         -0.637762        2.000000        0.15879670        0.04460477        0.00031116
     136         -0.637584        2.000000        0.00044377        0.00012756        0.00000087
     137         -0.636804        2.000000        0.00109132        0.00028004        0.00000299
     138         -0.636640        2.000000        0.00001088        0.00000322        0.00000002
     139         -0.636429        2.000000        0.00000119        0.00000046        0.00000000
     140         -0.635515        2.000000        0.00000790        0.00000229        0.00000003
     141         -0.634989        2.000000        0.00000378        0.00000116        0.00000001
     142         -0.634462        2.000000        0.00000750        0.00000260        0.00000001
     143         -0.634132        2.000000        0.00001532        0.00000514        0.00000003
     144         -0.633763        2.000000        0.00000012        0.00000005        0.00000000
     145         -0.633531        2.000000        0.00000107        0.00001881        0.00000040
     146         -0.632585        2.000000        0.00000271        0.00000539        0.00000009
     147         -0.632333        2.000000        0.00000007        0.00000011        0.00000000
     148         -0.632031        2.000000        0.00000009        0.00000002        0.00000000
     149         -0.631841        2.000000        0.00000012        0.00000003        0.00000000
     150         -0.631318        2.000000        0.00000832        0.00000137        0.00000013
     151         -0.630640        2.000000        0.00031212        0.00008197        0.00000132
     152         -0.630519        2.000000        0.01151761        0.00318782        0.00004341
     153         -0.630490        2.000000        0.04194172        0.01174728        0.00015355
     154         -0.629959        2.000000        0.00000006        0.00000002        0.00000000
     155         -0.629452        2.000000        0.00001469        0.00000402        0.00000006
     156         -0.629210        2.000000        0.00089035        0.00029241        0.00000239
     157         -0.628856        2.000000        0.00000003        0.00000001        0.00000000
     158         -0.628516        2.000000        0.00025527        0.00008386        0.00000089
     159         -0.628511        2.000000        0.00024844        0.00006879        0.00000113
     160         -0.628382        2.000000        0.00015633        0.00003772        0.00000091
     161         -0.628242        2.000000        0.00010020        0.00002503        0.00000055
     162         -0.628026        2.000000        0.00010234        0.00002628        0.00000056
     163         -0.627712        2.000000        0.00006270        0.00002313        0.00000020
     164         -0.627438        2.000000        0.00000856        0.00000216        0.00000012
     165         -0.627281        2.000000        0.00003217        0.00001135        0.00000011
     166         -0.626983        2.000000        0.00003233        0.00001031        0.00000017
     167         -0.626804        2.000000        0.00000148        0.00000061        0.00000000
     168         -0.626588        2.000000        0.00003572        0.00001229        0.00000018
     169         -0.626019        2.000000        0.00000001        0.00000000        0.00000000
     170         -0.625843        2.000000        0.00000451        0.00000765        0.00000005
     171         -0.625019        2.000000        0.00001249        0.00000391        0.00000008
     172         -0.624831        2.000000        0.00000027        0.00000014        0.00000000
     173         -0.624166        2.000000        0.00000010        0.00000131        0.00000003
     174         -0.623906        2.000000        0.00001126        0.00004746        0.00000211
     175         -0.623799        2.000000        0.00000000        0.00000000        0.00000000
     176         -0.623716        2.000000        0.00000114        0.00000054        0.00000001
     177         -0.623382        2.000000        0.00000009        0.00000025        0.00000000
     178         -0.623067        2.000000        0.00099214        0.00028286        0.00000616
     179         -0.622801        2.000000        0.00000308        0.00000309        0.00000002
     180         -0.622617        2.000000        0.00000089        0.00000050        0.00000002
     181         -0.622499        2.000000        0.00000661        0.00000394        0.00000002
     182         -0.621672        2.000000        0.00002586        0.00000978        0.00000058
     183         -0.621151        2.000000        0.00000471        0.00000474        0.00000004
     184         -0.620781        2.000000        0.00002689        0.00000773        0.00000032
     185         -0.620579        2.000000        0.00000035        0.00000024        0.00000000
     186         -0.619930        2.000000        0.00000447        0.00000168        0.00000002
     187         -0.618694        2.000000        0.00000054        0.00000052        0.00000000
     188         -0.618461        2.000000        0.00000602        0.00000199        0.00000006
     189         -0.618211        2.000000        0.00000150        0.00000061        0.00000002
     190         -0.617957        2.000000        0.00001382        0.00000472        0.00000013
     191         -0.617770        2.000000        0.00000268        0.00000084        0.00000003
     192         -0.617636        2.000000        0.00000220        0.00000098        0.00000002
     193         -0.617200        2.000000        0.00000041        0.00000033        0.00000000
     194         -0.616810        2.000000        0.00000000        0.00000000        0.00000000
     195         -0.615618        2.000000        0.00000040        0.00000021        0.00000000
     196         -0.615377        2.000000        0.00001778        0.00001086        0.00000003
     197         -0.615228        2.000000        0.00000041        0.00000018        0.00000000
     198         -0.614941        2.000000        0.00132284        0.00074050        0.00000199
     199         -0.613862        2.000000        0.00000002        0.00000004        0.00000000
     200         -0.613167        2.000000        0.00000002        0.00000001        0.00000000
     201         -0.612937        2.000000        0.00008412        0.00007351        0.00000037
     202         -0.612465        2.000000        0.00000586        0.00000285        0.00000004
     203         -0.611371        2.000000        0.00014178        0.00006826        0.00000132
     204         -0.611273        2.000000        0.00001731        0.00000836        0.00000016
     205         -0.610903        2.000000        0.00000569        0.00000281        0.00000004
     206         -0.609912        2.000000        0.00000002        0.00000011        0.00000000
     207         -0.609442        2.000000        0.00000585        0.00000517        0.00000002
     208         -0.609149        2.000000        0.00001032        0.00000606        0.00000012
     209         -0.608882        2.000000        0.00000014        0.00000009        0.00000000
     210         -0.608562        2.000000        0.00000000        0.00000000        0.00000000
     211         -0.608012        2.000000        0.00000002        0.00000001        0.00000000
     212         -0.607014        2.000000        0.00000001        0.00000006        0.00000000
     213         -0.606300        2.000000        0.00000000        0.00000000        0.00000000
     214         -0.605948        2.000000        0.00004050        0.00001944        0.00000074
     215         -0.605403        2.000000        0.00010121        0.00005089        0.00000192
     216         -0.604664        2.000000        0.00000059        0.00000032        0.00000001
     217         -0.604080        2.000000        0.00000001        0.00000002        0.00000000
     218         -0.603538        2.000000        0.00000011        0.00000008        0.00000000
     219         -0.603145        2.000000        0.00000039        0.00000025        0.00000000
     220         -0.602213        2.000000        0.00000002        0.00000002        0.00000000
     221         -0.601871        2.000000        0.00000002        0.00000003        0.00000000
     222         -0.600521        2.000000        0.00000006        0.00000019        0.00000000
     223         -0.599848        2.000000        0.00000000        0.00000000        0.00000000
     224         -0.598111        2.000000        0.00000000        0.00000000        0.00000000
     225         -0.597286        2.000000        0.00000001        0.00000001        0.00000000
     226         -0.597121        2.000000        0.00000000        0.00000000        0.00000000
     227         -0.595585        2.000000        0.00000000        0.00000000        0.00000000
     228         -0.591103        2.000000        0.00000000        0.00000001        0.00000000
     229         -0.582585        2.000000        0.00000000        0.00000000        0.00000000
     230         -0.576283        2.000000        0.00000000        0.00000000        0.00000000
     231         -0.258156        2.000000        0.00000001        0.00000003        0.00000000
     232         -0.253473        2.000000        0.00000658        0.00010003        0.00000016
     233         -0.246233        2.000000        0.00000023        0.00000130        0.00000001
     234         -0.244651        2.000000        0.00000399        0.00001402        0.00000019
     235         -0.243092        2.000000        0.00000055        0.00000244        0.00000004
     236         -0.242544        2.000000        0.00000000        0.00000000        0.00000000
     237         -0.241048        2.000000        0.00001175        0.00005379        0.00000049
     238         -0.240546        2.000000        0.00037382        0.00343136        0.00000857
     239         -0.237982        2.000000        0.00011124        0.00077543        0.00000517
     240         -0.237798        2.000000        0.00000004        0.00000012        0.00000000
     241         -0.236566        2.000000        0.00000433        0.00003588        0.00000049
     242         -0.235920        2.000000        0.00000523        0.00004158        0.00000055
     243         -0.233145        2.000000        0.00000000        0.00000000        0.00000000
     244         -0.232785        2.000000        0.00003144        0.00014599        0.00000184
     245         -0.232224        2.000000        0.00015638        0.00111780        0.00001274
     246         -0.232174        2.000000        0.00000001        0.00000007        0.00000000
     247         -0.232015        2.000000        0.00000005        0.00000029        0.00000000
     248         -0.230744        2.000000        0.00000140        0.00000765        0.00000011
     249         -0.230697        2.000000        0.00047725        0.00263997        0.00003787
     250         -0.229959        2.000000        0.00000002        0.00000005        0.00000000
     251         -0.229741        2.000000        0.00010494        0.00021006        0.00000429
     252         -0.228898        2.000000        0.00011444        0.00040929        0.00000700
     253         -0.227939        2.000000        0.00002383        0.00009476        0.00000151
     254         -0.227542        2.000000        0.00001232        0.00004064        0.00000129
     255         -0.227010        2.000000        0.00000678        0.00002399        0.00000050
     256         -0.226860        2.000000        0.00000000        0.00000000        0.00000000
     257         -0.226780        2.000000        0.00028329        0.00087381        0.00001695
     258         -0.226656        2.000000        0.00307927        0.00848364        0.00020512
     259         -0.226503        2.000000        0.00000002        0.00000005        0.00000000
     260         -0.226036        2.000000        0.00018866        0.00047091        0.00001349
     261         -0.225667        2.000000        0.00000001        0.00000002        0.00000000
     262         -0.225511        2.000000        0.00000007        0.00000015        0.00000000
     263         -0.224716        2.000000        0.00253657        0.00850855        0.00014029
     264         -0.224218        2.000000        0.00268072        0.01064254        0.00014980
     265         -0.223677        2.000000        0.00000151        0.00000619        0.00000009
     266         -0.223438        2.000000        0.00053092        0.00212674        0.00003118
     267         -0.223292        2.000000        0.00003008        0.00012313        0.00000169
     268         -0.223025        2.000000        0.00184297        0.00627573        0.00010451
     269         -0.222436        2.000000        0.00030789        0.00112217        0.00001976
     270         -0.222159        2.000000        0.00000001        0.00000002        0.00000000
     271         -0.221905        2.000000        0.00012157        0.00053791        0.00000837
     272         -0.221185        2.000000        0.00000001        0.00000008        0.00000000
     273         -0.220659        2.000000        0.00004462        0.00050798        0.00000340
     274         -0.219665        2.000000        0.00009021        0.00023790        0.00000470
     275         -0.219630        2.000000        0.00000400        0.00001060        0.00000021
     276         -0.218916        2.000000        0.00005982        0.00030895        0.00000427
     277         -0.218551        2.000000        0.00001697        0.00009249        0.00000121
     278         -0.218398        2.000000        0.00001004        0.00007433        0.00000121
     279         -0.218139        2.000000        0.00000010        0.00000036        0.00000001
     280         -0.217698        2.000000        0.00003999        0.00054459        0.00000867
     281         -0.217580        2.000000        0.00005056        0.00020304        0.00000295
     282         -0.217435        2.000000        0.00142007        0.00459188        0.00008202
     283         -0.216483        2.000000        0.00047923        0.00531270        0.00005676
     284         -0.216363        2.000000        0.00001220        0.00008158        0.00000127
     285         -0.216254        2.000000        0.00040646        0.00171323        0.00003744
     286         -0.215958        2.000000        0.00000107        0.00000528        0.00000008
     287         -0.215645        2.000000        0.00000262        0.00001613        0.00000024
     288         -0.215217        2.000000        0.00088515        0.00297620        0.00005552
     289         -0.214936        2.000000        0.00157756        0.00435561        0.00010102
     290         -0.214221        2.000000        0.00646179        0.01864623        0.00038632
     291         -0.213816        2.000000        0.00305792        0.00812569        0.00018912
     292         -0.213592        2.000000        0.00000265        0.00000806        0.00000016
     293         -0.213468        2.000000        0.00005630        0.00037647        0.00000543
     294         -0.213241        2.000000        0.00030536        0.00084910        0.00002185
     295         -0.213184        2.000000        0.00003965        0.00010720        0.00000254
     296         -0.212817        2.000000        0.00002384        0.00006342        0.00000149
     297         -0.212583        2.000000        0.00637426        0.01682813        0.00040444
     298         -0.212273        2.000000        0.00000156        0.00000472        0.00000017
     299         -0.211896        2.000000        0.00012292        0.00031201        0.00000925
     300         -0.211391        2.000000        0.00108983        0.00298110        0.00006475
     301         -0.211339        2.000000        0.00256264        0.00698680        0.00015506
     302         -0.211269        2.000000        0.00087930        0.00241851        0.00005272
     303         -0.211046        2.000000        0.00001704        0.00004481        0.00000147
     304         -0.210412        2.000000        0.00003524        0.00009967        0.00000216
     305         -0.210309        2.000000        0.00009760        0.00030593        0.00000590
     306         -0.210188        2.000000        0.00000669        0.00004087        0.00000075
     307         -0.210166        2.000000        0.00013703        0.00042474        0.00000834