# Projected DOS for list 114 of 3 atoms, at iteration step i = 0, E(Fermi) =     0.101540 a.u.
#     MO Eigenvalue [a.u.]      Occupation                 s                 p                 d
       1         -0.708367        2.000000        0.00000000        0.00000000        0.00000000
       2         -0.696979        2.000000        0.00000000        0.00000000        0.00000000
       3         -0.695301        2.000000        0.00000000        0.00000000        0.00000000
       4         -0.694902        2.000000        0.00000002        0.00000003        0.00000000
       5         -0.690081        2.000000        0.00000018        0.00000024        0.00000000
       6         -0.686805        2.000000        0.00000000        0.00000000        0.00000000
       7         -0.686571        2.000000        0.00000000        0.00000000        0.00000000
       8         -0.685003        2.000000        0.00000000        0.00000000        0.00000000
       9         -0.684036        2.000000        0.00000000        0.00000000        0.00000000
      10         -0.683920        2.000000        0.00000136        0.00000083        0.00000001
      11         -0.681735        2.000000        0.00000000        0.00000000        0.00000000
      12         -0.679408        2.000000        0.00000000        0.00000000        0.00000000
      13         -0.678932        2.000000        0.00007132        0.00003124        0.00000006
      14         -0.678381        2.000000        0.00000000        0.00000000        0.00000000
      15         -0.677963        2.000000        0.00000000        0.00000000        0.00000000
      16         -0.677540        2.000000        0.00000000        0.00000000        0.00000000
      17         -0.677381        2.000000        0.00005414        0.00008039        0.00000031
      18         -0.677246        2.000000        0.00000000        0.00000000        0.00000000
      19         -0.675827        2.000000        0.00000000        0.00000000        0.00000000
      20         -0.675724        2.000000        0.00000416        0.00000045        0.00000001
      21         -0.674932        2.000000        0.00000330        0.00000180        0.00000001
      22         -0.674380        2.000000        0.00000001        0.00000001        0.00000000
      23         -0.673393        2.000000        0.00000000        0.00000000        0.00000000
      24         -0.672924        2.000000        0.00000156        0.00000364        0.00000002
      25         -0.672289        2.000000        0.00000009        0.00000004        0.00000000
      26         -0.672227        2.000000        0.00003047        0.00001350        0.00000024
      27         -0.671275        2.000000        0.00000076        0.00000037        0.00000001
      28         -0.670770        2.000000        0.00000022        0.00000009        0.00000000
      29         -0.670400        2.000000        0.00000014        0.00000006        0.00000000
      30         -0.669922        2.000000        0.00000018        0.00000007        0.00000000
      31         -0.669606        2.000000        0.00092427        0.00030311        0.00000580
      32         -0.668947        2.000000        0.00000316        0.00001732        0.00000012
      33         -0.668931        2.000000        0.00001237        0.00003615        0.00000033
      34         -0.668431        2.000000        0.00000019        0.00000012        0.00000000
      35         -0.668008        2.000000        0.00000003        0.00000010        0.00000000
      36         -0.667083        2.000000        0.00000001        0.00000001        0.00000000
      37         -0.666996        2.000000        0.00000882        0.00000557        0.00000004
      38         -0.666939        2.000000        0.00000000        0.00000000        0.00000000
      39         -0.666646        2.000000        0.00000005        0.00000000        0.00000000
      40         -0.666363        2.000000        0.00000012        0.00000001        0.00000000
      41         -0.666281        2.000000        0.00010425        0.00001572        0.00000021
      42         -0.666129        2.000000        0.00000013        0.00000008        0.00000000
      43         -0.665867        2.000000        0.00000006        0.00000002        0.00000000
      44         -0.664404        2.000000        0.00004187        0.00001261        0.00000011
      45         -0.664061        2.000000        0.00002411        0.00000717        0.00000009
      46         -0.663948        2.000000        0.00199078        0.00058396        0.00000699
      47         -0.663550        2.000000        0.00001933        0.00000556        0.00000007
      48         -0.662943        2.000000        0.00000109        0.00000497        0.00000001
      49         -0.662627        2.000000        0.00000000        0.00000000        0.00000000
      50         -0.661965        2.000000        0.00000180        0.00000055        0.00000001
      51         -0.661528        2.000000        0.00009106        0.00001780        0.00000012
      52         -0.660900        2.000000        0.00000077        0.00000085        0.00000001
      53         -0.660166        2.000000        0.00000005        0.00000001        0.00000000
      54         -0.659683        2.000000        0.00001852        0.00001280        0.00000003
      55         -0.658835        2.000000        0.00000404        0.00000075        0.00000001
      56         -0.658814        2.000000        0.00076156        0.00013981        0.00000124
      57         -0.658691        2.000000        0.00163772        0.00034104        0.00000259
      58         -0.658084        2.000000        0.00260394        0.00062990        0.00000442
      59         -0.658073        2.000000        0.00749058        0.00180813        0.00001261
      60         -0.657975        2.000000        0.00000063        0.00000065        0.00000001
      61         -0.657678        2.000000        0.00000034        0.00000015        0.00000000
      62         -0.657592        2.000000        0.00001454        0.00000331        0.00000002
      63         -0.657226        2.000000        0.00025996        0.00005459        0.00000045
      64         -0.657087        2.000000        0.00000135        0.00000054        0.00000001
      65         -0.656742        2.000000        0.00018743        0.00006040        0.00000080
      66         -0.656449        2.000000        0.00243386        0.00063868        0.00000565
      67         -0.656215        2.000000        0.01192506        0.00306072        0.00002669
      68         -0.655700        2.000000        0.03373780        0.00841136        0.00006977
      69         -0.655174        2.000000        0.00017554        0.00002680        0.00000038
      70         -0.654827        2.000000        0.00016469        0.00003813        0.00000031
      71         -0.654660        2.000000        0.00338530        0.00064147        0.00000638
      72         -0.654406        2.000000        0.00003369        0.00000864        0.00000007
      73         -0.654250        2.000000        0.00007498        0.00001770        0.00000014
      74         -0.653619        2.000000        0.00238221        0.00047564        0.00000391
      75         -0.653105        2.000000        0.01864868        0.00432133        0.00003329
      76         -0.652904        2.000000        0.00484276        0.00129880        0.00000788
      77         -0.652612        2.000000        0.00365807        0.00087146        0.00000625
      78         -0.652411        2.000000        0.00003152        0.00000721        0.00000005
      79         -0.652213        2.000000        0.03119976        0.00704655        0.00005334
      80         -0.652083        2.000000        0.00004518        0.00005139        0.00000051
      81         -0.651807        2.000000        0.00503030        0.00120183        0.00000802
      82         -0.651706        2.000000        0.02228625        0.00507303        0.00003682
      83         -0.651237        2.000000        0.16971162        0.04134803        0.00027960
      84         -0.651053        2.000000        0.19763640        0.04838941        0.00032267
      85         -0.650411        2.000000        0.02486220        0.00581535        0.00004071
      86         -0.650326        2.000000        0.02122801        0.00541194        0.00003423
      87         -0.650219        2.000000        0.00008406        0.00002259        0.00000015
      88         -0.650130        2.000000        0.05427878        0.01332873        0.00008761
      89         -0.649849        2.000000        0.01077854        0.00269587        0.00001719
      90         -0.649510        2.000000        0.00104128        0.00026388        0.00000165
      91         -0.648737        2.000000        0.00349137        0.00077773        0.00000631
      92         -0.648608        2.000000        0.00613622        0.00127841        0.00001151
      93         -0.648509        2.000000        0.00003906        0.00001143        0.00000006
      94         -0.648091        2.000000        0.03256705        0.00810825        0.00005302
      95         -0.647956        2.000000        0.00003049        0.00001210        0.00000011
      96         -0.647875        2.000000        0.00055739        0.00013808        0.00000091
      97         -0.647628        2.000000        0.00009127        0.00002230        0.00000015
      98         -0.647248        2.000000        0.00011383        0.00002993        0.00000018
      99         -0.646997        2.000000        0.00364785        0.00091739        0.00000615
     100         -0.646893        2.000000        0.00292048        0.00073733        0.00000503
     101         -0.646794        2.000000        0.00056121        0.00015462        0.00000090
     102         -0.645843        2.000000        0.00230336        0.00058162        0.00000464
     103         -0.645519        2.000000        0.00007137        0.00001525        0.00000024
     104         -0.645232        2.000000        0.00000495        0.00002004        0.00000008
     105         -0.644964        2.000000        0.00000139        0.00000084        0.00000000
     106         -0.644451        2.000000        0.00037863        0.00008354        0.00000107
     107         -0.644170        2.000000        0.00037825        0.00011104        0.00000065
     108         -0.643891        2.000000        0.00023122        0.00009345        0.00000043
     109         -0.643862        2.000000        0.00185217        0.00052599        0.00000348
     110         -0.643478        2.000000        0.00043474        0.00011304        0.00000089
     111         -0.643325        2.000000        0.00178521        0.00044610        0.00000393
     112         -0.642934        2.000000        0.00042717        0.00021729        0.00000059
     113         -0.642899        2.000000        0.00000011        0.00000006        0.00000000
     114         -0.642460        2.000000        0.00000011        0.00000012        0.00000000
     115         -0.642175        2.000000        0.00002894        0.00001704        0.00000011
     116         -0.642120        2.000000        0.00000009        0.00000027        0.00000000
     117         -0.641851        2.000000        0.00000101        0.00000259        0.00000006
     118         -0.641683        2.000000        0.00000847        0.00000689        0.00000002
     119         -0.641305        2.000000        0.00035733        0.00012826        0.00000050
     120         -0.641072        2.000000        0.00001481        0.00003304        0.00000002
     121         -0.640960        2.000000        0.00004335        0.00002437        0.00000029
     122         -0.640793        2.000000        0.00001846        0.00004991        0.00000031
     123         -0.640578        2.000000        0.00000470        0.00000674        0.00000006
     124         -0.640464        2.000000        0.00138183        0.00056419        0.00000167
     125         -0.640169        2.000000        0.00003322        0.00003644        0.00000025
     126         -0.639736        2.000000        0.00000676        0.00001360        0.00000010
     127         -0.639499        2.000000        0.00080405        0.00031642        0.00000137
     128         -0.639154        2.000000        0.00027157        0.00007525        0.00000109
     129         -0.639060        2.000000        0.00003212        0.00001211        0.00000009
     130         -0.638976        2.000000        0.00002917        0.00001580        0.00000032
     131         -0.638593        2.000000        0.00000351        0.00001531        0.00000007
     132         -0.638261        2.000000        0.00000007        0.00000066        0.00000000
     133         -0.638059        2.000000        0.00001891        0.00001773        0.00000003
     134         -0.637912        2.000000        0.00002635        0.00005035        0.00000009
     135         -0.637762        2.000000        0.00000105        0.00000147        0.00000000
     136         -0.637584        2.000000        0.00047841        0.00015515        0.00000114
     137         -0.636804        2.000000        0.00000047        0.00000118        0.00000002
     138         -0.636640        2.000000        0.00039946        0.00018949        0.00000161
     139         -0.636429        2.000000        0.00017569        0.00006449        0.00000068
     140         -0.635515        2.000000        0.00022514        0.00033522        0.00000041
     141         -0.634989        2.000000        0.00147375        0.00056274        0.00000980
     142         -0.634462        2.000000        0.00221986        0.00115232        0.00000681
     143         -0.634132        2.000000        0.00021040        0.00009880        0.00000212
     144         -0.633763        2.000000        0.00154386        0.00058042        0.00000443
     145         -0.633531        2.000000        0.00000012        0.00000013        0.00000000
     146         -0.632585        2.000000        0.00005971        0.00004681        0.00000057
     147         -0.632333        2.000000        0.00049909        0.00026488        0.00000059
     148         -0.632031        2.000000        0.00008803        0.00003612        0.00000035
     149         -0.631841        2.000000        0.00003612        0.00008149        0.00000026
     150         -0.631318        2.000000        0.00006674        0.00007030        0.00000087
     151         -0.630640        2.000000        0.00022573        0.00050885        0.00000202
     152         -0.630519        2.000000        0.00034647        0.00049543        0.00000169
     153         -0.630490        2.000000        0.00006789        0.00008978        0.00000030
     154         -0.629959        2.000000        0.00049069        0.00055867        0.00001462
     155         -0.629452        2.000000        0.00089551        0.00102563        0.00000822
     156         -0.629210        2.000000        0.00003759        0.00002801        0.00000006
     157         -0.628856        2.000000        0.00006649        0.00001930        0.00000102
     158         -0.628516        2.000000        0.00001033        0.00012511        0.00000167
     159         -0.628511        2.000000        0.00015358        0.00009158        0.00000031
     160         -0.628382        2.000000        0.00005784        0.00005917        0.00000013
     161         -0.628242        2.000000        0.00024101        0.00009460        0.00000143
     162         -0.628026        2.000000        0.00017376        0.00022494        0.00000763
     163         -0.627712        2.000000        0.00001791        0.00008193        0.00000055
     164         -0.627438        2.000000        0.00107053        0.00132780        0.00004235
     165         -0.627281        2.000000        0.00034269        0.00019121        0.00001024
     166         -0.626983        2.000000        0.00354859        0.00122664        0.00007300
     167         -0.626804        2.000000        0.02787583        0.00806659        0.00034713
     168         -0.626588        2.000000        0.00020865        0.00008104        0.00000170
     169         -0.626019        2.000000        0.00118862        0.00031778        0.00001366
     170         -0.625843        2.000000        0.00006419        0.00002114        0.00000030
     171         -0.625019        2.000000        0.00020852        0.00007467        0.00000070
     172         -0.624831        2.000000        0.00929676        0.00332266        0.00003409
     173         -0.624166        2.000000        0.00004723        0.00003008        0.00000187
     174         -0.623906        2.000000        0.00004429        0.00001656        0.00000020
     175         -0.623799        2.000000        0.00001297        0.00004726        0.00000009
     176         -0.623716        2.000000        0.00001773        0.00000748        0.00000012
     177         -0.623382        2.000000        0.00008160        0.00006316        0.00000034
     178         -0.623067        2.000000        0.00000962        0.00000367        0.00000005
     179         -0.622801        2.000000        0.00118298        0.00050440        0.00000618
     180         -0.622617        2.000000        0.00137243        0.00046454        0.00000871
     181         -0.622499        2.000000        0.00013955        0.00004785        0.00000093
     182         -0.621672        2.000000        0.00000344        0.00000266        0.00000005
     183         -0.621151        2.000000        0.00006000        0.00005645        0.00000047
     184         -0.620781        2.000000        0.00023528        0.00024081        0.00000213
     185         -0.620579        2.000000        0.00002316        0.00002373        0.00000050
     186         -0.619930        2.000000        0.00004191        0.00001158        0.00000047
     187         -0.618694        2.000000        0.00000063        0.00000037        0.00000001
     188         -0.618461        2.000000        0.00076370        0.00054268        0.00001521
     189         -0.618211        2.000000        0.00000539        0.00000336        0.00000012
     190         -0.617957        2.000000        0.00007874        0.00009277        0.00000267
     191         -0.617770        2.000000        0.00001757        0.00009816        0.00000388
     192         -0.617636        2.000000        0.00009524        0.00045059        0.00000234
     193         -0.617200        2.000000        0.00005561        0.00034695        0.00000107
     194         -0.616810        2.000000        0.00151694        0.00150355        0.00000635
     195         -0.615618        2.000000        0.00005381        0.00003935        0.00000049
     196         -0.615377        2.000000        0.00000362        0.00003045        0.00000034
     197         -0.615228        2.000000        0.00007347        0.00007719        0.00000008
     198         -0.614941        2.000000        0.00000019        0.00000073        0.00000001
     199         -0.613862        2.000000        0.00042306        0.00187365        0.00003643
     200         -0.613167        2.000000        0.00199242        0.00246510        0.00000460
     201         -0.612937        2.000000        0.00000032        0.00000077        0.00000000
     202         -0.612465        2.000000        0.00029653        0.00034994        0.00000072
     203         -0.611371        2.000000        0.00003520        0.00002974        0.00000017
     204         -0.611273        2.000000        0.00000326        0.00000504        0.00000021
     205         -0.610903        2.000000        0.00001851        0.00002531        0.00000027
     206         -0.609912        2.000000        0.00000593        0.00002109        0.00000006
     207         -0.609442        2.000000        0.00000033        0.00000131        0.00000000
     208         -0.609149        2.000000        0.00008382        0.00004916        0.00000096
     209         -0.608882        2.000000        0.00010477        0.00005386        0.00000114
     210         -0.608562        2.000000        0.00000472        0.00002645        0.00000073
     211         -0.608012        2.000000        0.00054133        0.00027834        0.00000681
     212         -0.607014        2.000000        0.00001285        0.00004121        0.00000064
     213         -0.606300        2.000000        0.00010882        0.00008533        0.00000185
     214         -0.605948        2.000000        0.00000066        0.00000372        0.00000001
     215         -0.605403        2.000000        0.00000123        0.00000373        0.00000001
     216         -0.604664        2.000000        0.00018156        0.00012027        0.00000257
     217         -0.604080        2.000000        0.00045654        0.00039548        0.00001489
     218         -0.603538        2.000000        0.00102409        0.00072168        0.00003591
     219         -0.603145        2.000000        0.00001228        0.00002532        0.00000009
     220         -0.602213        2.000000        0.00021024        0.00106271        0.00002452
     221         -0.601871        2.000000        0.00003708        0.00016029        0.00000276
     222         -0.600521        2.000000        0.00004222        0.00007509        0.00000014
     223         -0.599848        2.000000        0.00337314        0.00458318        0.00001196
     224         -0.598111        2.000000        0.00002502        0.00005067        0.00000005
     225         -0.597286        2.000000        0.00012039        0.00012089        0.00000180
     226         -0.597121        2.000000        0.00084991        0.00067281        0.00000699
     227         -0.595585        2.000000        0.00004148        0.00004308        0.00000036
     228         -0.591103        2.000000        0.00000077        0.00000198        0.00000001
     229         -0.582585        2.000000        0.00353023        0.00956846        0.00001710
     230         -0.576283        2.000000        0.00000009        0.00000025        0.00000000
     231         -0.258156        2.000000        0.00000000        0.00000000        0.00000000
     232         -0.253473        2.000000        0.00000000        0.00000000        0.00000000
     233         -0.246233        2.000000        0.00000000        0.00000000        0.00000000
     234         -0.244651        2.000000        0.00000000        0.00000000        0.00000000
     235         -0.243092        2.000000        0.00000000        0.00000000        0.00000000
     236         -0.242544        2.000000        0.00000000        0.00000001        0.00000000
     237         -0.241048        2.000000        0.00000000        0.00000000        0.00000000
     238         -0.240546        2.000000        0.00000000        0.00000000        0.00000000
     239         -0.237982        2.000000        0.00000000        0.00000000        0.00000000
     240         -0.237798        2.000000        0.00000002        0.00000005        0.00000000
     241         -0.236566        2.000000        0.00000000        0.00000002        0.00000000
     242         -0.235920        2.000000        0.00000000        0.00000002        0.00000000
     243         -0.233145        2.000000        0.00000171        0.00000602        0.00000015
     244         -0.232785        2.000000        0.00000000        0.00000000        0.00000000
     245         -0.232224        2.000000        0.00000000        0.00000001        0.00000000
     246         -0.232174        2.000000        0.00000709        0.00002228        0.00000055
     247         -0.232015        2.000000        0.00001017        0.00003323        0.00000080
     248         -0.230744        2.000000        0.00000125        0.00000523        0.00000011
     249         -0.230697        2.000000        0.00000000        0.00000002        0.00000000
     250         -0.229959        2.000000        0.00001994        0.00006577        0.00000125
     251         -0.229741        2.000000        0.00000001        0.00000002        0.00000000
     252         -0.228898        2.000000        0.00000000        0.00000002        0.00000000
     253         -0.227939        2.000000        0.00000005        0.00000027        0.00000000
     254         -0.227542        2.000000        0.00000000        0.00000003        0.00000000
     255         -0.227010        2.000000        0.00000000        0.00000001        0.00000000
     256         -0.226860        2.000000        0.00000036        0.00000154        0.00000002
     257         -0.226780        2.000000        0.00000000        0.00000001        0.00000000
     258         -0.226656        2.000000        0.00000001        0.00000003        0.00000000
     259         -0.226503        2.000000        0.00000189        0.00001071        0.00000011
     260         -0.226036        2.000000        0.00000001        0.00000005        0.00000000
     261         -0.225667        2.000000        0.00000083        0.00000364        0.00000004
     262         -0.225511        2.000000        0.00013415        0.00069020        0.00000588
     263         -0.224716        2.000000        0.00000003        0.00000016        0.00000000
     264         -0.224218        2.000000        0.00000003        0.00000017        0.00000000
     265         -0.223677        2.000000        0.00000045        0.00000229        0.00000005
     266         -0.223438        2.000000        0.00000002        0.00000009        0.00000000
     267         -0.223292        2.000000        0.00000098        0.00000493        0.00000004
     268         -0.223025        2.000000        0.00000000        0.00000000        0.00000000
     269         -0.222436        2.000000        0.00000000        0.00000000        0.00000000
     270         -0.222159        2.000000        0.00000073        0.00000263        0.00000006
     271         -0.221905        2.000000        0.00000001        0.00000007        0.00000000
     272         -0.221185        2.000000        0.00000099        0.00000459        0.00000005
     273         -0.220659        2.000000        0.00000000        0.00000002        0.00000000
     274         -0.219665        2.000000        0.00000000        0.00000001        0.00000000
     275         -0.219630        2.000000        0.00000044        0.00000225        0.00000003
     276         -0.218916        2.000000        0.00000003        0.00000010        0.00000000
     277         -0.218551        2.000000        0.00006039        0.00028160        0.00000287
     278         -0.218398        2.000000        0.00005445        0.00025601        0.00000258
     279         -0.218139        2.000000        0.00297043        0.01462716        0.00014786
     280         -0.217698        2.000000        0.00006714        0.00033755        0.00000339
     281         -0.217580        2.000000        0.00237924        0.01202149        0.00012019
     282         -0.217435        2.000000        0.00006033        0.00030545        0.00000306
     283         -0.216483        2.000000        0.00000005        0.00000039        0.00000001
     284         -0.216363        2.000000        0.00008743        0.00047774        0.00000492
     285         -0.216254        2.000000        0.00000342        0.00001692        0.00000016
     286         -0.215958        2.000000        0.00035352        0.00162056        0.00001741
     287         -0.215645        2.000000        0.00013930        0.00063426        0.00000683
     288         -0.215217        2.000000        0.00000074        0.00000385        0.00000005
     289         -0.214936        2.000000        0.00000009        0.00000043        0.00000000
     290         -0.214221        2.000000        0.00000123        0.00000538        0.00000005
     291         -0.213816        2.000000        0.00000148        0.00000608        0.00000006
     292         -0.213592        2.000000        0.00000745        0.00002132        0.00000061
     293         -0.213468        2.000000        0.00000085        0.00000383        0.00000004
     294         -0.213241        2.000000        0.00001448        0.00006008        0.00000055
     295         -0.213184        2.000000        0.00000043        0.00000438        0.00000003
     296         -0.212817        2.000000        0.00000039        0.00000503        0.00000009
     297         -0.212583        2.000000        0.00000021        0.00000100        0.00000001
     298         -0.212273        2.000000        0.00000240        0.00001012        0.00000014
     299         -0.211896        2.000000        0.00000030        0.00000122        0.00000001
     300         -0.211391        2.000000        0.00000365        0.00001531        0.00000024
     301         -0.211339        2.000000        0.00000702        0.00004493        0.00000036
     302         -0.211269        2.000000        0.00001746        0.00010583        0.00000106
     303         -0.211046        2.000000        0.00000015        0.00000187        0.00000001
     304         -0.210412        2.000000        0.00000527        0.00003140        0.00000034
     305         -0.210309        2.000000        0.00000624        0.00001796        0.00000059
     306         -0.210188        2.000000        0.00001318        0.00005131        0.00000053
     307         -0.210166        2.000000        0.00000323        0.00003108        0.00000035