# Projected DOS for list 27 of 3 atoms, at iteration step i = 0, E(Fermi) =     0.101540 a.u.
#     MO Eigenvalue [a.u.]      Occupation                 s                 p                 d
       1         -0.708367        2.000000        0.00000000        0.00000000        0.00000000
       2         -0.696979        2.000000        0.00000130        0.00000057        0.00000000
       3         -0.695301        2.000000        0.00002301        0.00002502        0.00000005
       4         -0.694902        2.000000        0.00000000        0.00000000        0.00000000
       5         -0.690081        2.000000        0.00000000        0.00000000        0.00000000
       6         -0.686805        2.000000        0.00000761        0.00000970        0.00000003
       7         -0.686571        2.000000        0.00000146        0.00000912        0.00000001
       8         -0.685003        2.000000        0.00058552        0.00056908        0.00000212
       9         -0.684036        2.000000        0.00001645        0.00007803        0.00000020
      10         -0.683920        2.000000        0.00000000        0.00000000        0.00000000
      11         -0.681735        2.000000        0.00026385        0.00020950        0.00000150
      12         -0.679408        2.000000        0.00000267        0.00001008        0.00000003
      13         -0.678932        2.000000        0.00000000        0.00000000        0.00000000
      14         -0.678381        2.000000        0.00001153        0.00000164        0.00000002
      15         -0.677963        2.000000        0.00015461        0.00010814        0.00000075
      16         -0.677540        2.000000        0.00040915        0.00024553        0.00000234
      17         -0.677381        2.000000        0.00000000        0.00000000        0.00000000
      18         -0.677246        2.000000        0.00018588        0.00009026        0.00000073
      19         -0.675827        2.000000        0.00012168        0.00011809        0.00000025
      20         -0.675724        2.000000        0.00000000        0.00000000        0.00000000
      21         -0.674932        2.000000        0.00000000        0.00000000        0.00000000
      22         -0.674380        2.000000        0.00028297        0.00005812        0.00000099
      23         -0.673393        2.000000        0.00000585        0.00000137        0.00000002
      24         -0.672924        2.000000        0.00000000        0.00000000        0.00000000
      25         -0.672289        2.000000        0.00000124        0.00000444        0.00000001
      26         -0.672227        2.000000        0.00007099        0.00002639        0.00000028
      27         -0.671275        2.000000        0.00000001        0.00000001        0.00000000
      28         -0.670770        2.000000        0.00108696        0.00049505        0.00000482
      29         -0.670400        2.000000        0.00006351        0.00002979        0.00000028
      30         -0.669922        2.000000        0.00118865        0.00029177        0.00000501
      31         -0.669606        2.000000        0.00000291        0.00000118        0.00000001
      32         -0.668947        2.000000        0.00145320        0.00069421        0.00000683
      33         -0.668931        2.000000        0.00081568        0.00039420        0.00000387
      34         -0.668431        2.000000        0.00071682        0.00014155        0.00000240
      35         -0.668008        2.000000        0.00126600        0.00037617        0.00000524
      36         -0.667083        2.000000        0.00037601        0.00006236        0.00000122
      37         -0.666996        2.000000        0.00000037        0.00000009        0.00000000
      38         -0.666939        2.000000        0.00003953        0.00002890        0.00000007
      39         -0.666646        2.000000        0.00041381        0.00010266        0.00000173
      40         -0.666363        2.000000        0.00033454        0.00014664        0.00000160
      41         -0.666281        2.000000        0.00000244        0.00000081        0.00000001
      42         -0.666129        2.000000        0.00492383        0.00191847        0.00002116
      43         -0.665867        2.000000        0.00261981        0.00043830        0.00001010
      44         -0.664404        2.000000        0.00000500        0.00000206        0.00000002
      45         -0.664061        2.000000        0.00027485        0.00033300        0.00000183
      46         -0.663948        2.000000        0.00001995        0.00000463        0.00000004
      47         -0.663550        2.000000        0.00826721        0.00109444        0.00002790
      48         -0.662943        2.000000        0.00000039        0.00000007        0.00000000
      49         -0.662627        2.000000        0.00008150        0.00001036        0.00000024
      50         -0.661965        2.000000        0.00419483        0.00056862        0.00001300
      51         -0.661528        2.000000        0.00000518        0.00000082        0.00000002
      52         -0.660900        2.000000        0.00000002        0.00000008        0.00000000
      53         -0.660166        2.000000        0.00125110        0.00028604        0.00000384
      54         -0.659683        2.000000        0.00000015        0.00000002        0.00000000
      55         -0.658835        2.000000        0.00008012        0.00022674        0.00000115
      56         -0.658814        2.000000        0.00000020        0.00000102        0.00000000
      57         -0.658691        2.000000        0.00000028        0.00000028        0.00000000
      58         -0.658084        2.000000        0.01475464        0.00253868        0.00004356
      59         -0.658073        2.000000        0.00554749        0.00092736        0.00001602
      60         -0.657975        2.000000        0.00015102        0.00012097        0.00000057
      61         -0.657678        2.000000        0.00008056        0.00009212        0.00000059
      62         -0.657592        2.000000        0.00352098        0.00147378        0.00001141
      63         -0.657226        2.000000        0.00000006        0.00000002        0.00000000
      64         -0.657087        2.000000        0.00000327        0.00006990        0.00000039
      65         -0.656742        2.000000        0.00029676        0.00027779        0.00000320
      66         -0.656449        2.000000        0.00026748        0.00009075        0.00000048
      67         -0.656215        2.000000        0.00040124        0.00011640        0.00000044
      68         -0.655700        2.000000        0.00018806        0.00005004        0.00000134
      69         -0.655174        2.000000        0.00000028        0.00000013        0.00000000
      70         -0.654827        2.000000        0.00048680        0.00007530        0.00000123
      71         -0.654660        2.000000        0.00000003        0.00000017        0.00000000
      72         -0.654406        2.000000        0.00049272        0.00005548        0.00000148
      73         -0.654250        2.000000        0.00044398        0.00013696        0.00000095
      74         -0.653619        2.000000        0.00002744        0.00001329        0.00000004
      75         -0.653105        2.000000        0.00219329        0.00071292        0.00000290
      76         -0.652904        2.000000        0.00089155        0.00031862        0.00000122
      77         -0.652612        2.000000        0.00012696        0.00016892        0.00000044
      78         -0.652411        2.000000        0.00000408        0.00012059        0.00000068
      79         -0.652213        2.000000        0.00003319        0.00000971        0.00000017
      80         -0.652083        2.000000        0.00047649        0.00019372        0.00000068
      81         -0.651807        2.000000        0.00156089        0.00074435        0.00000185
      82         -0.651706        2.000000        0.00058212        0.00022344        0.00000056
      83         -0.651237        2.000000        0.00250627        0.00049960        0.00000508
      84         -0.651053        2.000000        0.00063394        0.00011877        0.00000177
      85         -0.650411        2.000000        0.00221684        0.00063468        0.00000282
      86         -0.650326        2.000000        0.00333438        0.00093713        0.00000549
      87         -0.650219        2.000000        0.00343146        0.00085767        0.00000913
      88         -0.650130        2.000000        0.00001638        0.00011290        0.00000367
      89         -0.649849        2.000000        0.00379567        0.00109855        0.00000527
      90         -0.649510        2.000000        0.01023579        0.00310325        0.00001739
      91         -0.648737        2.000000        0.00001182        0.00011213        0.00000263
      92         -0.648608        2.000000        0.00209790        0.00047040        0.00000470
      93         -0.648509        2.000000        0.00603370        0.00109592        0.00001823
      94         -0.648091        2.000000        0.00188028        0.00051053        0.00000261
      95         -0.647956        2.000000        0.00001283        0.00000386        0.00000002
      96         -0.647875        2.000000        0.00106877        0.00021508        0.00000355
      97         -0.647628        2.000000        0.03287862        0.00772879        0.00005525
      98         -0.647248        2.000000        0.00244615        0.00064297        0.00000344
      99         -0.646997        2.000000        0.00013033        0.00003229        0.00000023
     100         -0.646893        2.000000        0.00010102        0.00002628        0.00000018
     101         -0.646794        2.000000        0.01832574        0.00462782        0.00002647
     102         -0.645843        2.000000        0.00020726        0.00004532        0.00000059
     103         -0.645519        2.000000        0.16321311        0.04383718        0.00023492
     104         -0.645232        2.000000        0.06264157        0.01671048        0.00009210
     105         -0.644964        2.000000        0.03603572        0.00992161        0.00004965
     106         -0.644451        2.000000        0.07345443        0.01972675        0.00011105
     107         -0.644170        2.000000        0.02257107        0.00602370        0.00003758
     108         -0.643891        2.000000        0.01046277        0.00282117        0.00001942
     109         -0.643862        2.000000        0.00000887        0.00007873        0.00000386
     110         -0.643478        2.000000        0.00078896        0.00022933        0.00000108
     111         -0.643325        2.000000        0.00210157        0.00058430        0.00000790
     112         -0.642934        2.000000        0.00182227        0.00052694        0.00000252
     113         -0.642899        2.000000        0.00003894        0.00002224        0.00000012
     114         -0.642460        2.000000        0.00102902        0.00029241        0.00000208
     115         -0.642175        2.000000        0.00020043        0.00009023        0.00000146
     116         -0.642120        2.000000        0.01574473        0.00460444        0.00002299
     117         -0.641851        2.000000        0.00224762        0.00096015        0.00001367
     118         -0.641683        2.000000        0.04465568        0.01380220        0.00006621
     119         -0.641305        2.000000        0.00890046        0.00235313        0.00001715
     120         -0.641072        2.000000        0.00019178        0.00021720        0.00000137
     121         -0.640960        2.000000        0.00003231        0.00003173        0.00000174
     122         -0.640793        2.000000        0.00004325        0.00002857        0.00000043
     123         -0.640578        2.000000        0.00007041        0.00010722        0.00000218
     124         -0.640464        2.000000        0.00026166        0.00013542        0.00000101
     125         -0.640169        2.000000        0.00002170        0.00005630        0.00000298
     126         -0.639736        2.000000        0.00009249        0.00001460        0.00000065
     127         -0.639499        2.000000        0.00159699        0.00034083        0.00000600
     128         -0.639154        2.000000        0.00053484        0.00009483        0.00000243
     129         -0.639060        2.000000        0.00003831        0.00003920        0.00000025
     130         -0.638976        2.000000        0.00312122        0.00083517        0.00000672
     131         -0.638593        2.000000        0.00224729        0.00067954        0.00000614
     132         -0.638261        2.000000        0.00028812        0.00012013        0.00000043
     133         -0.638059        2.000000        0.00010983        0.00007871        0.00000166
     134         -0.637912        2.000000        0.00004532        0.00003735        0.00000050
     135         -0.637762        2.000000        0.00001304        0.00002095        0.00000016
     136         -0.637584        2.000000        0.00010071        0.00005614        0.00000138
     137         -0.636804        2.000000        0.00036380        0.00021962        0.00000038
     138         -0.636640        2.000000        0.00050335        0.00018712        0.00000290
     139         -0.636429        2.000000        0.00083730        0.00028937        0.00000435
     140         -0.635515        2.000000        0.00064069        0.00017622        0.00000229
     141         -0.634989        2.000000        0.00012380        0.00004713        0.00000156
     142         -0.634462        2.000000        0.00014545        0.00004351        0.00000098
     143         -0.634132        2.000000        0.01178878        0.00295125        0.00003688
     144         -0.633763        2.000000        0.00090417        0.00022557        0.00000268
     145         -0.633531        2.000000        0.00002249        0.00002971        0.00000006
     146         -0.632585        2.000000        0.00256787        0.00055101        0.00001496
     147         -0.632333        2.000000        0.00006862        0.00001771        0.00000034
     148         -0.632031        2.000000        0.00025662        0.00006193        0.00000123
     149         -0.631841        2.000000        0.00091923        0.00022433        0.00000407
     150         -0.631318        2.000000        0.03324396        0.00821942        0.00014861
     151         -0.630640        2.000000        0.00480757        0.00118891        0.00002142
     152         -0.630519        2.000000        0.00224991        0.00053096        0.00001288
     153         -0.630490        2.000000        0.00182397        0.00048557        0.00000658
     154         -0.629959        2.000000        0.00016150        0.00004068        0.00000092
     155         -0.629452        2.000000        0.00001713        0.00000686        0.00000010
     156         -0.629210        2.000000        0.00008432        0.00015106        0.00000094
     157         -0.628856        2.000000        0.00000011        0.00000013        0.00000001
     158         -0.628516        2.000000        0.00001111        0.00002932        0.00000160
     159         -0.628511        2.000000        0.00006363        0.00002352        0.00000145
     160         -0.628382        2.000000        0.00059988        0.00012662        0.00000434
     161         -0.628242        2.000000        0.00011638        0.00002553        0.00000090
     162         -0.628026        2.000000        0.00081866        0.00024441        0.00000394
     163         -0.627712        2.000000        0.01950424        0.00509599        0.00010911
     164         -0.627438        2.000000        0.00001968        0.00000877        0.00000013
     165         -0.627281        2.000000        0.00024995        0.00005534        0.00000170
     166         -0.626983        2.000000        0.00100126        0.00028203        0.00000703
     167         -0.626804        2.000000        0.00005487        0.00001616        0.00000037
     168         -0.626588        2.000000        0.01431278        0.00368291        0.00008530
     169         -0.626019        2.000000        0.00001203        0.00000317        0.00000007
     170         -0.625843        2.000000        0.01264765        0.00332674        0.00007633
     171         -0.625019        2.000000        0.02084058        0.00540357        0.00013338
     172         -0.624831        2.000000        0.00036727        0.00009414        0.00000230
     173         -0.624166        2.000000        0.00030499        0.00008259        0.00000186
     174         -0.623906        2.000000        0.00009504        0.00003185        0.00000050
     175         -0.623799        2.000000        0.00004490        0.00001212        0.00000032
     176         -0.623716        2.000000        0.02131387        0.00564401        0.00015139
     177         -0.623382        2.000000        0.00007162        0.00001728        0.00000068
     178         -0.623067        2.000000        0.00001569        0.00000394        0.00000011
     179         -0.622801        2.000000        0.00042887        0.00010925        0.00000344
     180         -0.622617        2.000000        0.00009655        0.00002929        0.00000055
     181         -0.622499        2.000000        0.00250154        0.00067910        0.00001709
     182         -0.621672        2.000000        0.00000077        0.00000145        0.00000002
     183         -0.621151        2.000000        0.00007069        0.00002150        0.00000044
     184         -0.620781        2.000000        0.00051610        0.00015223        0.00000378
     185         -0.620579        2.000000        0.00039380        0.00013268        0.00000302
     186         -0.619930        2.000000        0.00270217        0.00082232        0.00002096
     187         -0.618694        2.000000        0.00000270        0.00000230        0.00000002
     188         -0.618461        2.000000        0.00000051        0.00000024        0.00000001
     189         -0.618211        2.000000        0.00002933        0.00000776        0.00000032
     190         -0.617957        2.000000        0.00058192        0.00016099        0.00000625
     191         -0.617770        2.000000        0.00024345        0.00006603        0.00000236
     192         -0.617636        2.000000        0.00092886        0.00025273        0.00000870
     193         -0.617200        2.000000        0.00069662        0.00019867        0.00000718
     194         -0.616810        2.000000        0.00000017        0.00000054        0.00000002
     195         -0.615618        2.000000        0.00009769        0.00002830        0.00000094
     196         -0.615377        2.000000        0.00487743        0.00148837        0.00005499
     197         -0.615228        2.000000        0.00000062        0.00000020        0.00000001
     198         -0.614941        2.000000        0.00106324        0.00092668        0.00000365
     199         -0.613862        2.000000        0.00003375        0.00001324        0.00000058
     200         -0.613167        2.000000        0.00002327        0.00000990        0.00000044
     201         -0.612937        2.000000        0.00005891        0.00007397        0.00000022
     202         -0.612465        2.000000        0.00005921        0.00001477        0.00000051
     203         -0.611371        2.000000        0.00000828        0.00001303        0.00000047
     204         -0.611273        2.000000        0.00000024        0.00000082        0.00000003
     205         -0.610903        2.000000        0.00000085        0.00000058        0.00000002
     206         -0.609912        2.000000        0.00003395        0.00001418        0.00000035
     207         -0.609442        2.000000        0.00000045        0.00000378        0.00000009
     208         -0.609149        2.000000        0.00004449        0.00004980        0.00000141
     209         -0.608882        2.000000        0.00002509        0.00000726        0.00000020
     210         -0.608562        2.000000        0.00000062        0.00000021        0.00000000
     211         -0.608012        2.000000        0.00046014        0.00014591        0.00000574
     212         -0.607014        2.000000        0.00014022        0.00004676        0.00000202
     213         -0.606300        2.000000        0.00066581        0.00022523        0.00000942
     214         -0.605948        2.000000        0.00002219        0.00000660        0.00000030
     215         -0.605403        2.000000        0.00000673        0.00000227        0.00000006
     216         -0.604664        2.000000        0.00005215        0.00001791        0.00000071
     217         -0.604080        2.000000        0.00000510        0.00000451        0.00000024
     218         -0.603538        2.000000        0.00001700        0.00001110        0.00000057
     219         -0.603145        2.000000        0.00004466        0.00001591        0.00000039
     220         -0.602213        2.000000        0.00002636        0.00001151        0.00000050
     221         -0.601871        2.000000        0.00000023        0.00000028        0.00000001
     222         -0.600521        2.000000        0.00002140        0.00003200        0.00000011
     223         -0.599848        2.000000        0.00000151        0.00000068        0.00000003
     224         -0.598111        2.000000        0.00000013        0.00000005        0.00000000
     225         -0.597286        2.000000        0.00000001        0.00000030        0.00000001
     226         -0.597121        2.000000        0.00000045        0.00000019        0.00000001
     227         -0.595585        2.000000        0.00000000        0.00000000        0.00000000
     228         -0.591103        2.000000        0.00000002        0.00000001        0.00000000
     229         -0.582585        2.000000        0.00000000        0.00000000        0.00000000
     230         -0.576283        2.000000        0.00000003        0.00000001        0.00000000
     231         -0.258156        2.000000        0.00000000        0.00000000        0.00000000
     232         -0.253473        2.000000        0.00000005        0.00000010        0.00000000
     233         -0.246233        2.000000        0.00000040        0.00000212        0.00000001
     234         -0.244651        2.000000        0.00000256        0.00001353        0.00000006
     235         -0.243092        2.000000        0.00001646        0.00016788        0.00000085
     236         -0.242544        2.000000        0.00000000        0.00000000        0.00000000
     237         -0.241048        2.000000        0.00001501        0.00005644        0.00000079
     238         -0.240546        2.000000        0.00145476        0.00398633        0.00007679
     239         -0.237982        2.000000        0.00764211        0.02124939        0.00039631
     240         -0.237798        2.000000        0.00000142        0.00000392        0.00000007
     241         -0.236566        2.000000        0.00000034        0.00000105        0.00000002
     242         -0.235920        2.000000        0.00000086        0.00000221        0.00000004
     243         -0.233145        2.000000        0.00000000        0.00000001        0.00000000
     244         -0.232785        2.000000        0.00021460        0.00058229        0.00001092
     245         -0.232224        2.000000        0.00004450        0.00013431        0.00000272
     246         -0.232174        2.000000        0.00000000        0.00000001        0.00000000
     247         -0.232015        2.000000        0.00000000        0.00000001        0.00000000
     248         -0.230744        2.000000        0.00000001        0.00000010        0.00000000
     249         -0.230697        2.000000        0.00000716        0.00004328        0.00000070
     250         -0.229959        2.000000        0.00000001        0.00000003        0.00000000
     251         -0.229741        2.000000        0.00001501        0.00004449        0.00000070
     252         -0.228898        2.000000        0.00007020        0.00018358        0.00000338
     253         -0.227939        2.000000        0.00189391        0.00503236        0.00009819
     254         -0.227542        2.000000        0.00075021        0.00197469        0.00003865
     255         -0.227010        2.000000        0.00004713        0.00012205        0.00000229
     256         -0.226860        2.000000        0.00000006        0.00000017        0.00000000
     257         -0.226780        2.000000        0.00180619        0.00471271        0.00009101
     258         -0.226656        2.000000        0.00005909        0.00017624        0.00000244
     259         -0.226503        2.000000        0.00000000        0.00000000        0.00000000
     260         -0.226036        2.000000        0.00001702        0.00004462        0.00000090
     261         -0.225667        2.000000        0.00000000        0.00000000        0.00000000
     262         -0.225511        2.000000        0.00000038        0.00000100        0.00000002
     263         -0.224716        2.000000        0.00012107        0.00031718        0.00000522
     264         -0.224218        2.000000        0.00001738        0.00004889        0.00000086
     265         -0.223677        2.000000        0.00000004        0.00000013        0.00000000
     266         -0.223438        2.000000        0.00006093        0.00017870        0.00000278
     267         -0.223292        2.000000        0.00000017        0.00000083        0.00000001
     268         -0.223025        2.000000        0.00000008        0.00000137        0.00000003
     269         -0.222436        2.000000        0.00000019        0.00000195        0.00000001
     270         -0.222159        2.000000        0.00000000        0.00000000        0.00000000
     271         -0.221905        2.000000        0.00002092        0.00005135        0.00000112
     272         -0.221185        2.000000        0.00000003        0.00000007        0.00000000
     273         -0.220659        2.000000        0.00000460        0.00001295        0.00000023
     274         -0.219665        2.000000        0.00000162        0.00000326        0.00000005
     275         -0.219630        2.000000        0.00000003        0.00000004        0.00000000
     276         -0.218916        2.000000        0.00009267        0.00025733        0.00000537
     277         -0.218551        2.000000        0.00000218        0.00000702        0.00000009
     278         -0.218398        2.000000        0.00000463        0.00001352        0.00000020
     279         -0.218139        2.000000        0.00000002        0.00000014        0.00000000
     280         -0.217698        2.000000        0.00004937        0.00013342        0.00000258
     281         -0.217580        2.000000        0.00000252        0.00000683        0.00000012
     282         -0.217435        2.000000        0.00020348        0.00053928        0.00001023
     283         -0.216483        2.000000        0.00003041        0.00013400        0.00000151
     284         -0.216363        2.000000        0.00000013        0.00000061        0.00000001
     285         -0.216254        2.000000        0.00041733        0.00108590        0.00002297
     286         -0.215958        2.000000        0.00000063        0.00000191        0.00000003
     287         -0.215645        2.000000        0.00000137        0.00000362        0.00000007
     288         -0.215217        2.000000        0.02387107        0.06584468        0.00113734
     289         -0.214936        2.000000        0.00188505        0.00502376        0.00009344
     290         -0.214221        2.000000        0.00373882        0.01090774        0.00017802
     291         -0.213816        2.000000        0.00258578        0.00685833        0.00013428
     292         -0.213592        2.000000        0.00000603        0.00001548        0.00000034
     293         -0.213468        2.000000        0.00000899        0.00009152        0.00000121
     294         -0.213241        2.000000        0.00394718        0.01067708        0.00019632
     295         -0.213184        2.000000        0.00006830        0.00018691        0.00000324
     296         -0.212817        2.000000        0.00001959        0.00005207        0.00000099
     297         -0.212583        2.000000        0.02952214        0.07841744        0.00150630
     298         -0.212273        2.000000        0.00008704        0.00023186        0.00000447
     299         -0.211896        2.000000        0.00027277        0.00072082        0.00001494
     300         -0.211391        2.000000        0.02708214        0.07243088        0.00137371
     301         -0.211339        2.000000        0.06796821        0.18159407        0.00345389
     302         -0.211269        2.000000        0.02514274        0.06753015        0.00126144
     303         -0.211046        2.000000        0.00360219        0.00966573        0.00018032
     304         -0.210412        2.000000        0.00116277        0.00312793        0.00005768
     305         -0.210309        2.000000        0.00023439        0.00063952        0.00001136
     306         -0.210188        2.000000        0.00129694        0.00350827        0.00006437
     307         -0.210166        2.000000        0.00235749        0.00632362        0.00011869