# Projected DOS for list 170 of 3 atoms, at iteration step i = 0, E(Fermi) =     0.101540 a.u.
#     MO Eigenvalue [a.u.]      Occupation                 s                 p                 d
       1         -0.708367        2.000000        0.00000000        0.00000000        0.00000000
       2         -0.696979        2.000000        0.00000000        0.00000000        0.00000000
       3         -0.695301        2.000000        0.00000000        0.00000000        0.00000000
       4         -0.694902        2.000000        0.00000005        0.00000005        0.00000000
       5         -0.690081        2.000000        0.00000128        0.00000158        0.00000001
       6         -0.686805        2.000000        0.00000000        0.00000000        0.00000000
       7         -0.686571        2.000000        0.00000000        0.00000000        0.00000000
       8         -0.685003        2.000000        0.00000000        0.00000000        0.00000000
       9         -0.684036        2.000000        0.00000000        0.00000000        0.00000000
      10         -0.683920        2.000000        0.00002916        0.00005695        0.00000042
      11         -0.681735        2.000000        0.00000000        0.00000000        0.00000000
      12         -0.679408        2.000000        0.00000000        0.00000000        0.00000000
      13         -0.678932        2.000000        0.00008042        0.00011939        0.00000036
      14         -0.678381        2.000000        0.00000000        0.00000000        0.00000000
      15         -0.677963        2.000000        0.00000000        0.00000000        0.00000000
      16         -0.677540        2.000000        0.00000000        0.00000000        0.00000000
      17         -0.677381        2.000000        0.00001583        0.00007600        0.00000020
      18         -0.677246        2.000000        0.00000000        0.00000000        0.00000000
      19         -0.675827        2.000000        0.00000000        0.00000000        0.00000000
      20         -0.675724        2.000000        0.00000160        0.00000971        0.00000006
      21         -0.674932        2.000000        0.00000146        0.00000119        0.00000002
      22         -0.674380        2.000000        0.00000000        0.00000000        0.00000000
      23         -0.673393        2.000000        0.00000000        0.00000000        0.00000000
      24         -0.672924        2.000000        0.00000329        0.00002615        0.00000015
      25         -0.672289        2.000000        0.00000000        0.00000000        0.00000000
      26         -0.672227        2.000000        0.00000115        0.00000149        0.00000001
      27         -0.671275        2.000000        0.00000236        0.00001199        0.00000009
      28         -0.670770        2.000000        0.00000001        0.00000001        0.00000000
      29         -0.670400        2.000000        0.00000000        0.00000001        0.00000000
      30         -0.669922        2.000000        0.00000001        0.00000001        0.00000000
      31         -0.669606        2.000000        0.00001218        0.00005440        0.00000015
      32         -0.668947        2.000000        0.00000778        0.00002152        0.00000006
      33         -0.668931        2.000000        0.00001365        0.00003572        0.00000011
      34         -0.668431        2.000000        0.00000000        0.00000002        0.00000000
      35         -0.668008        2.000000        0.00000000        0.00000001        0.00000000
      36         -0.667083        2.000000        0.00000001        0.00000000        0.00000000
      37         -0.666996        2.000000        0.00001338        0.00001058        0.00000015
      38         -0.666939        2.000000        0.00000000        0.00000000        0.00000000
      39         -0.666646        2.000000        0.00000003        0.00000001        0.00000000
      40         -0.666363        2.000000        0.00000003        0.00000001        0.00000000
      41         -0.666281        2.000000        0.00003034        0.00001433        0.00000015
      42         -0.666129        2.000000        0.00000001        0.00000003        0.00000000
      43         -0.665867        2.000000        0.00000000        0.00000001        0.00000000
      44         -0.664404        2.000000        0.00000677        0.00000298        0.00000010
      45         -0.664061        2.000000        0.00000125        0.00000072        0.00000001
      46         -0.663948        2.000000        0.00011265        0.00005594        0.00000051
      47         -0.663550        2.000000        0.00000102        0.00000053        0.00000000
      48         -0.662943        2.000000        0.00000209        0.00000133        0.00000001
      49         -0.662627        2.000000        0.00000000        0.00000000        0.00000000
      50         -0.661965        2.000000        0.00000004        0.00000005        0.00000000
      51         -0.661528        2.000000        0.00004948        0.00001995        0.00000034
      52         -0.660900        2.000000        0.00000004        0.00000010        0.00000000
      53         -0.660166        2.000000        0.00000001        0.00000000        0.00000000
      54         -0.659683        2.000000        0.00001572        0.00001899        0.00000014
      55         -0.658835        2.000000        0.00000100        0.00000017        0.00000000
      56         -0.658814        2.000000        0.00012596        0.00001522        0.00000050
      57         -0.658691        2.000000        0.00044504        0.00010425        0.00000187
      58         -0.658084        2.000000        0.00052658        0.00013848        0.00000192
      59         -0.658073        2.000000        0.00155025        0.00041208        0.00000565
      60         -0.657975        2.000000        0.00000013        0.00000029        0.00000000
      61         -0.657678        2.000000        0.00000004        0.00000012        0.00000000
      62         -0.657592        2.000000        0.00000469        0.00000141        0.00000002
      63         -0.657226        2.000000        0.00003859        0.00000952        0.00000023
      64         -0.657087        2.000000        0.00000393        0.00000227        0.00000002
      65         -0.656742        2.000000        0.00000911        0.00003870        0.00000010
      66         -0.656449        2.000000        0.00004602        0.00007973        0.00000037
      67         -0.656215        2.000000        0.00027326        0.00035395        0.00000189
      68         -0.655700        2.000000        0.00116790        0.00080081        0.00000624
      69         -0.655174        2.000000        0.00001159        0.00000678        0.00000006
      70         -0.654827        2.000000        0.00000761        0.00000331        0.00000004
      71         -0.654660        2.000000        0.00015620        0.00010401        0.00000105
      72         -0.654406        2.000000        0.00000166        0.00000075        0.00000001
      73         -0.654250        2.000000        0.00000398        0.00000144        0.00000002
      74         -0.653619        2.000000        0.00026720        0.00004822        0.00000089
      75         -0.653105        2.000000        0.00102740        0.00036020        0.00000494
      76         -0.652904        2.000000        0.00034178        0.00011661        0.00000087
      77         -0.652612        2.000000        0.00023699        0.00006665        0.00000094
      78         -0.652411        2.000000        0.00000200        0.00000061        0.00000001
      79         -0.652213        2.000000        0.00221330        0.00055857        0.00000837
      80         -0.652083        2.000000        0.00000189        0.00000960        0.00000000
      81         -0.651807        2.000000        0.00042600        0.00008689        0.00000182
      82         -0.651706        2.000000        0.00178878        0.00037180        0.00000637
      83         -0.651237        2.000000        0.01236887        0.00309220        0.00005044
      84         -0.651053        2.000000        0.01466454        0.00363155        0.00005949
      85         -0.650411        2.000000        0.00202497        0.00043521        0.00000732
      86         -0.650326        2.000000        0.00139617        0.00046188        0.00000513
      87         -0.650219        2.000000        0.00000890        0.00000181        0.00000005
      88         -0.650130        2.000000        0.00401794        0.00106476        0.00001449
      89         -0.649849        2.000000        0.00082303        0.00021291        0.00000273
      90         -0.649510        2.000000        0.00008364        0.00002016        0.00000028
      91         -0.648737        2.000000        0.00028894        0.00006882        0.00000100
      92         -0.648608        2.000000        0.00052499        0.00011124        0.00000172
      93         -0.648509        2.000000        0.00000349        0.00000103        0.00000002
      94         -0.648091        2.000000        0.00295197        0.00072606        0.00001129
      95         -0.647956        2.000000        0.00001116        0.00001563        0.00000026
      96         -0.647875        2.000000        0.00005347        0.00001213        0.00000020
      97         -0.647628        2.000000        0.00000874        0.00000220        0.00000003
      98         -0.647248        2.000000        0.00001208        0.00000247        0.00000004
      99         -0.646997        2.000000        0.00038901        0.00010222        0.00000118
     100         -0.646893        2.000000        0.00026794        0.00006337        0.00000098
     101         -0.646794        2.000000        0.00006068        0.00001141        0.00000019
     102         -0.645843        2.000000        0.00015253        0.00005081        0.00000058
     103         -0.645519        2.000000        0.00000098        0.00000588        0.00000010
     104         -0.645232        2.000000        0.00001304        0.00000947        0.00000020
     105         -0.644964        2.000000        0.00000224        0.00000085        0.00000002
     106         -0.644451        2.000000        0.00000470        0.00002828        0.00000039
     107         -0.644170        2.000000        0.00007647        0.00001525        0.00000025
     108         -0.643891        2.000000        0.00044036        0.00021084        0.00000214
     109         -0.643862        2.000000        0.00047178        0.00011938        0.00000134
     110         -0.643478        2.000000        0.00004373        0.00000736        0.00000017
     111         -0.643325        2.000000        0.00017109        0.00003426        0.00000060
     112         -0.642934        2.000000        0.00086633        0.00022726        0.00000723
     113         -0.642899        2.000000        0.00000031        0.00000016        0.00000000
     114         -0.642460        2.000000        0.00000011        0.00000008        0.00000000
     115         -0.642175        2.000000        0.00001179        0.00001269        0.00000030
     116         -0.642120        2.000000        0.00000113        0.00000053        0.00000001
     117         -0.641851        2.000000        0.00001683        0.00000594        0.00000010
     118         -0.641683        2.000000        0.00000092        0.00000219        0.00000003
     119         -0.641305        2.000000        0.00004474        0.00000909        0.00000022
     120         -0.641072        2.000000        0.00003679        0.00000909        0.00000027
     121         -0.640960        2.000000        0.00003435        0.00000833        0.00000013
     122         -0.640793        2.000000        0.00031406        0.00006572        0.00000201
     123         -0.640578        2.000000        0.00000301        0.00000241        0.00000002
     124         -0.640464        2.000000        0.00046306        0.00010291        0.00000189
     125         -0.640169        2.000000        0.00000559        0.00003290        0.00000014
     126         -0.639736        2.000000        0.00004214        0.00004847        0.00000034
     127         -0.639499        2.000000        0.00002520        0.00003123        0.00000029
     128         -0.639154        2.000000        0.00002116        0.00007122        0.00000069
     129         -0.639060        2.000000        0.00001488        0.00002097        0.00000050
     130         -0.638976        2.000000        0.00000064        0.00001098        0.00000004
     131         -0.638593        2.000000        0.00000300        0.00001995        0.00000015
     132         -0.638261        2.000000        0.00000005        0.00000005        0.00000000
     133         -0.638059        2.000000        0.00001080        0.00001126        0.00000009
     134         -0.637912        2.000000        0.00002081        0.00001447        0.00000012
     135         -0.637762        2.000000        0.00000297        0.00000130        0.00000002
     136         -0.637584        2.000000        0.00007791        0.00005294        0.00000076
     137         -0.636804        2.000000        0.00000376        0.00000074        0.00000001
     138         -0.636640        2.000000        0.00066291        0.00021570        0.00000145
     139         -0.636429        2.000000        0.00006695        0.00011677        0.00000007
     140         -0.635515        2.000000        0.00024302        0.00007275        0.00000085
     141         -0.634989        2.000000        0.00290486        0.00065164        0.00000793
     142         -0.634462        2.000000        0.00265948        0.00054529        0.00000621
     143         -0.634132        2.000000        0.00086765        0.00019916        0.00000228
     144         -0.633763        2.000000        0.00001008        0.00006683        0.00000066
     145         -0.633531        2.000000        0.00000217        0.00000051        0.00000001
     146         -0.632585        2.000000        0.00036565        0.00008318        0.00000082
     147         -0.632333        2.000000        0.00007504        0.00002129        0.00000024
     148         -0.632031        2.000000        0.00011925        0.00004727        0.00000050
     149         -0.631841        2.000000        0.00001939        0.00001282        0.00000015
     150         -0.631318        2.000000        0.00003087        0.00001133        0.00000006
     151         -0.630640        2.000000        0.00573303        0.00141278        0.00001254
     152         -0.630519        2.000000        0.00342337        0.00080747        0.00000705
     153         -0.630490        2.000000        0.00053742        0.00012563        0.00000109
     154         -0.629959        2.000000        0.02274680        0.00625372        0.00005249
     155         -0.629452        2.000000        0.00484715        0.00129351        0.00001135
     156         -0.629210        2.000000        0.00000407        0.00000282        0.00000004
     157         -0.628856        2.000000        0.00127107        0.00032366        0.00000261
     158         -0.628516        2.000000        0.00298224        0.00074474        0.00000590
     159         -0.628511        2.000000        0.00004834        0.00002051        0.00000017
     160         -0.628382        2.000000        0.00014768        0.00004075        0.00000038
     161         -0.628242        2.000000        0.00115647        0.00032783        0.00000242
     162         -0.628026        2.000000        0.01185927        0.00302837        0.00002315
     163         -0.627712        2.000000        0.00102659        0.00025240        0.00000205
     164         -0.627438        2.000000        0.06106965        0.01572799        0.00011816
     165         -0.627281        2.000000        0.01517105        0.00393761        0.00002949
     166         -0.626983        2.000000        0.09638783        0.02506902        0.00018694
     167         -0.626804        2.000000        0.40703286        0.10722968        0.00078485
     168         -0.626588        2.000000        0.00177165        0.00047772        0.00000335
     169         -0.626019        2.000000        0.01607915        0.00423240        0.00003015
     170         -0.625843        2.000000        0.00016167        0.00004915        0.00000031
     171         -0.625019        2.000000        0.00025777        0.00008207        0.00000049
     172         -0.624831        2.000000        0.01410653        0.00437346        0.00002628
     173         -0.624166        2.000000        0.00243415        0.00063561        0.00000492
     174         -0.623906        2.000000        0.00001313        0.00000497        0.00000003
     175         -0.623799        2.000000        0.00025273        0.00007730        0.00000046
     176         -0.623716        2.000000        0.00009048        0.00002280        0.00000016
     177         -0.623382        2.000000        0.00001298        0.00000986        0.00000007
     178         -0.623067        2.000000        0.00000932        0.00000269        0.00000002
     179         -0.622801        2.000000        0.00057865        0.00018264        0.00000100
     180         -0.622617        2.000000        0.00771239        0.00205030        0.00001533
     181         -0.622499        2.000000        0.00090730        0.00024125        0.00000185
     182         -0.621672        2.000000        0.00003546        0.00000851        0.00000009
     183         -0.621151        2.000000        0.00014507        0.00004050        0.00000025
     184         -0.620781        2.000000        0.00079392        0.00021508        0.00000151
     185         -0.620579        2.000000        0.00073385        0.00018841        0.00000209
     186         -0.619930        2.000000        0.00062376        0.00016359        0.00000166
     187         -0.618694        2.000000        0.00001882        0.00000520        0.00000005
     188         -0.618461        2.000000        0.02801086        0.00790495        0.00007787
     189         -0.618211        2.000000        0.00020822        0.00005963        0.00000059
     190         -0.617957        2.000000        0.00294417        0.00084301        0.00000886
     191         -0.617770        2.000000        0.00629698        0.00182278        0.00002012
     192         -0.617636        2.000000        0.00063766        0.00019366        0.00000292
     193         -0.617200        2.000000        0.00068611        0.00019896        0.00000333
     194         -0.616810        2.000000        0.00473100        0.00134489        0.00001936
     195         -0.615618        2.000000        0.00032080        0.00009599        0.00000107
     196         -0.615377        2.000000        0.00000007        0.00000069        0.00000000
     197         -0.615228        2.000000        0.00007031        0.00002834        0.00000035
     198         -0.614941        2.000000        0.00000007        0.00000002        0.00000000
     199         -0.613862        2.000000        0.00009564        0.00002605        0.00000019
     200         -0.613167        2.000000        0.00053422        0.00018252        0.00000211
     201         -0.612937        2.000000        0.00000002        0.00000002        0.00000000
     202         -0.612465        2.000000        0.00005314        0.00001795        0.00000019
     203         -0.611371        2.000000        0.00004267        0.00001240        0.00000020
     204         -0.611273        2.000000        0.00009105        0.00003197        0.00000063
     205         -0.610903        2.000000        0.00000018        0.00000039        0.00000000
     206         -0.609912        2.000000        0.00000022        0.00000097        0.00000001
     207         -0.609442        2.000000        0.00000022        0.00000011        0.00000000
     208         -0.609149        2.000000        0.00003007        0.00000800        0.00000010
     209         -0.608882        2.000000        0.00006801        0.00001774        0.00000036
     210         -0.608562        2.000000        0.00200137        0.00074545        0.00001552
     211         -0.608012        2.000000        0.00003947        0.00001985        0.00000005
     212         -0.607014        2.000000        0.00000096        0.00000028        0.00000000
     213         -0.606300        2.000000        0.00001278        0.00000486        0.00000003
     214         -0.605948        2.000000        0.00000004        0.00000001        0.00000000
     215         -0.605403        2.000000        0.00000001        0.00000001        0.00000000
     216         -0.604664        2.000000        0.00001133        0.00000483        0.00000001
     217         -0.604080        2.000000        0.00004296        0.00001590        0.00000007
     218         -0.603538        2.000000        0.00008262        0.00003172        0.00000012
     219         -0.603145        2.000000        0.00000041        0.00000020        0.00000000
     220         -0.602213        2.000000        0.00000885        0.00000710        0.00000005
     221         -0.601871        2.000000        0.00000242        0.00000251        0.00000001
     222         -0.600521        2.000000        0.00000163        0.00000099        0.00000000
     223         -0.599848        2.000000        0.00015200        0.00007768        0.00000027
     224         -0.598111        2.000000        0.00000133        0.00000119        0.00000000
     225         -0.597286        2.000000        0.00000722        0.00000405        0.00000002
     226         -0.597121        2.000000        0.00004641        0.00001966        0.00000008
     227         -0.595585        2.000000        0.00000052        0.00000122        0.00000002
     228         -0.591103        2.000000        0.00000003        0.00000020        0.00000000
     229         -0.582585        2.000000        0.00005990        0.00006611        0.00000042
     230         -0.576283        2.000000        0.00000000        0.00000001        0.00000000
     231         -0.258156        2.000000        0.00000000        0.00000000        0.00000000
     232         -0.253473        2.000000        0.00000000        0.00000000        0.00000000
     233         -0.246233        2.000000        0.00000000        0.00000000        0.00000000
     234         -0.244651        2.000000        0.00000000        0.00000000        0.00000000
     235         -0.243092        2.000000        0.00000000        0.00000000        0.00000000
     236         -0.242544        2.000000        0.00000000        0.00000001        0.00000000
     237         -0.241048        2.000000        0.00000000        0.00000000        0.00000000
     238         -0.240546        2.000000        0.00000000        0.00000000        0.00000000
     239         -0.237982        2.000000        0.00000000        0.00000000        0.00000000
     240         -0.237798        2.000000        0.00000003        0.00000014        0.00000000
     241         -0.236566        2.000000        0.00000011        0.00000051        0.00000000
     242         -0.235920        2.000000        0.00000008        0.00000036        0.00000000
     243         -0.233145        2.000000        0.00000242        0.00001193        0.00000006
     244         -0.232785        2.000000        0.00000000        0.00000000        0.00000000
     245         -0.232224        2.000000        0.00000000        0.00000000        0.00000000
     246         -0.232174        2.000000        0.00000404        0.00002349        0.00000015
     247         -0.232015        2.000000        0.00000209        0.00000898        0.00000011
     248         -0.230744        2.000000        0.00003380        0.00019892        0.00000076
     249         -0.230697        2.000000        0.00000009        0.00000054        0.00000000
     250         -0.229959        2.000000        0.00000641        0.00001264        0.00000035
     251         -0.229741        2.000000        0.00000000        0.00000000        0.00000000
     252         -0.228898        2.000000        0.00000000        0.00000000        0.00000000
     253         -0.227939        2.000000        0.00000000        0.00000000        0.00000000
     254         -0.227542        2.000000        0.00000000        0.00000000        0.00000000
     255         -0.227010        2.000000        0.00000000        0.00000000        0.00000000
     256         -0.226860        2.000000        0.00000076        0.00000510        0.00000003
     257         -0.226780        2.000000        0.00000000        0.00000000        0.00000000
     258         -0.226656        2.000000        0.00000000        0.00000000        0.00000000
     259         -0.226503        2.000000        0.00000031        0.00000139        0.00000001
     260         -0.226036        2.000000        0.00000000        0.00000000        0.00000000
     261         -0.225667        2.000000        0.00000014        0.00000111        0.00000000
     262         -0.225511        2.000000        0.00000017        0.00000416        0.00000001
     263         -0.224716        2.000000        0.00000000        0.00000000        0.00000000
     264         -0.224218        2.000000        0.00000000        0.00000000        0.00000000
     265         -0.223677        2.000000        0.00000666        0.00003109        0.00000018
     266         -0.223438        2.000000        0.00000002        0.00000009        0.00000000
     267         -0.223292        2.000000        0.00000000        0.00000004        0.00000000
     268         -0.223025        2.000000        0.00000001        0.00000005        0.00000000
     269         -0.222436        2.000000        0.00000001        0.00000005        0.00000000
     270         -0.222159        2.000000        0.00000895        0.00004894        0.00000073
     271         -0.221905        2.000000        0.00000000        0.00000001        0.00000000
     272         -0.221185        2.000000        0.00000112        0.00000499        0.00000004
     273         -0.220659        2.000000        0.00000001        0.00000003        0.00000000
     274         -0.219665        2.000000        0.00000001        0.00000005        0.00000000
     275         -0.219630        2.000000        0.00000129        0.00000509        0.00000005
     276         -0.218916        2.000000        0.00000017        0.00000076        0.00000000
     277         -0.218551        2.000000        0.00003637        0.00016611        0.00000116
     278         -0.218398        2.000000        0.00003236        0.00014770        0.00000103
     279         -0.218139        2.000000        0.00002331        0.00016805        0.00000163
     280         -0.217698        2.000000        0.00000037        0.00000355        0.00000002
     281         -0.217580        2.000000        0.00000733        0.00008291        0.00000025
     282         -0.217435        2.000000        0.00000036        0.00000244        0.00000000
     283         -0.216483        2.000000        0.00000018        0.00000100        0.00000002
     284         -0.216363        2.000000        0.00002788        0.00016781        0.00000362
     285         -0.216254        2.000000        0.00000029        0.00000189        0.00000004
     286         -0.215958        2.000000        0.00003685        0.00017872        0.00000274
     287         -0.215645        2.000000        0.00002329        0.00011054        0.00000163
     288         -0.215217        2.000000        0.00000008        0.00000035        0.00000001
     289         -0.214936        2.000000        0.00000000        0.00000001        0.00000000
     290         -0.214221        2.000000        0.00000001        0.00000008        0.00000000
     291         -0.213816        2.000000        0.00000001        0.00000011        0.00000000
     292         -0.213592        2.000000        0.00000380        0.00001677        0.00000019
     293         -0.213468        2.000000        0.00000005        0.00000025        0.00000000
     294         -0.213241        2.000000        0.00000004        0.00000080        0.00000000
     295         -0.213184        2.000000        0.00000025        0.00000093        0.00000001
     296         -0.212817        2.000000        0.00000212        0.00002548        0.00000001
     297         -0.212583        2.000000        0.00000002        0.00000020        0.00000000
     298         -0.212273        2.000000        0.00004184        0.00017792        0.00000084
     299         -0.211896        2.000000        0.00000002        0.00000010        0.00000000
     300         -0.211391        2.000000        0.00000364        0.00004883        0.00000012
     301         -0.211339        2.000000        0.00000279        0.00002652        0.00000013
     302         -0.211269        2.000000        0.00000149        0.00000846        0.00000003
     303         -0.211046        2.000000        0.00000077        0.00001447        0.00000002
     304         -0.210412        2.000000        0.00000050        0.00000605        0.00000000
     305         -0.210309        2.000000        0.00000117        0.00001337        0.00000004
     306         -0.210188        2.000000        0.00000127        0.00000745        0.00000010
     307         -0.210166        2.000000        0.00000278        0.00000796        0.00000004