# Projected DOS for list 79 of 3 atoms, at iteration step i = 0, E(Fermi) =     0.101540 a.u.
#     MO Eigenvalue [a.u.]      Occupation                 s                 p                 d
       1         -0.708367        2.000000        0.00000000        0.00000000        0.00000000
       2         -0.696979        2.000000        0.00000003        0.00000005        0.00000000
       3         -0.695301        2.000000        0.00000000        0.00000000        0.00000000
       4         -0.694902        2.000000        0.00000000        0.00000000        0.00000000
       5         -0.690081        2.000000        0.00000000        0.00000001        0.00000000
       6         -0.686805        2.000000        0.00000015        0.00000017        0.00000000
       7         -0.686571        2.000000        0.00000001        0.00000001        0.00000000
       8         -0.685003        2.000000        0.00000008        0.00000014        0.00000000
       9         -0.684036        2.000000        0.00000388        0.00000679        0.00000003
      10         -0.683920        2.000000        0.00000000        0.00000000        0.00000000
      11         -0.681735        2.000000        0.00000165        0.00000165        0.00000001
      12         -0.679408        2.000000        0.00000000        0.00000000        0.00000000
      13         -0.678932        2.000000        0.00000002        0.00000002        0.00000000
      14         -0.678381        2.000000        0.00000110        0.00000114        0.00000000
      15         -0.677963        2.000000        0.00000036        0.00000101        0.00000000
      16         -0.677540        2.000000        0.00000197        0.00000385        0.00000001
      17         -0.677381        2.000000        0.00000000        0.00000000        0.00000000
      18         -0.677246        2.000000        0.00000153        0.00000240        0.00000001
      19         -0.675827        2.000000        0.00000001        0.00000005        0.00000000
      20         -0.675724        2.000000        0.00000002        0.00000003        0.00000000
      21         -0.674932        2.000000        0.00000004        0.00000004        0.00000000
      22         -0.674380        2.000000        0.00000053        0.00000021        0.00000000
      23         -0.673393        2.000000        0.00000003        0.00000005        0.00000000
      24         -0.672924        2.000000        0.00000184        0.00000182        0.00000006
      25         -0.672289        2.000000        0.00000002        0.00000005        0.00000000
      26         -0.672227        2.000000        0.00000453        0.00000420        0.00000003
      27         -0.671275        2.000000        0.00000357        0.00000306        0.00000009
      28         -0.670770        2.000000        0.00000010        0.00000036        0.00000000
      29         -0.670400        2.000000        0.00000005        0.00000009        0.00000000
      30         -0.669922        2.000000        0.00000055        0.00000017        0.00000001
      31         -0.669606        2.000000        0.00000065        0.00000038        0.00000000
      32         -0.668947        2.000000        0.00000826        0.00000555        0.00000012
      33         -0.668931        2.000000        0.00000192        0.00000238        0.00000007
      34         -0.668431        2.000000        0.00002701        0.00001793        0.00000068
      35         -0.668008        2.000000        0.00016612        0.00013411        0.00000537
      36         -0.667083        2.000000        0.00000970        0.00000856        0.00000033
      37         -0.666996        2.000000        0.00000005        0.00000019        0.00000000
      38         -0.666939        2.000000        0.00000072        0.00000082        0.00000001
      39         -0.666646        2.000000        0.00003822        0.00009522        0.00000030
      40         -0.666363        2.000000        0.00002572        0.00002570        0.00000010
      41         -0.666281        2.000000        0.00000002        0.00000004        0.00000000
      42         -0.666129        2.000000        0.00000489        0.00001682        0.00000019
      43         -0.665867        2.000000        0.00000589        0.00000109        0.00000001
      44         -0.664404        2.000000        0.00000554        0.00000437        0.00000005
      45         -0.664061        2.000000        0.00000148        0.00000549        0.00000002
      46         -0.663948        2.000000        0.00000258        0.00000387        0.00000001
      47         -0.663550        2.000000        0.00000025        0.00000182        0.00000002
      48         -0.662943        2.000000        0.00000128        0.00000354        0.00000019
      49         -0.662627        2.000000        0.00000011        0.00000043        0.00000001
      50         -0.661965        2.000000        0.00000197        0.00000680        0.00000018
      51         -0.661528        2.000000        0.00001199        0.00000417        0.00000005
      52         -0.660900        2.000000        0.00020792        0.00007367        0.00000175
      53         -0.660166        2.000000        0.00000121        0.00000101        0.00000001
      54         -0.659683        2.000000        0.00002148        0.00001709        0.00000050
      55         -0.658835        2.000000        0.00001173        0.00000734        0.00000007
      56         -0.658814        2.000000        0.00000172        0.00000172        0.00000004
      57         -0.658691        2.000000        0.00000149        0.00000356        0.00000015
      58         -0.658084        2.000000        0.00000358        0.00000347        0.00000006
      59         -0.658073        2.000000        0.00000016        0.00000030        0.00000001
      60         -0.657975        2.000000        0.00001936        0.00001010        0.00000006
      61         -0.657678        2.000000        0.00000378        0.00000895        0.00000011
      62         -0.657592        2.000000        0.00000190        0.00000316        0.00000003
      63         -0.657226        2.000000        0.00000896        0.00003617        0.00000183
      64         -0.657087        2.000000        0.00000252        0.00001062        0.00000005
      65         -0.656742        2.000000        0.00001054        0.00002623        0.00000012
      66         -0.656449        2.000000        0.00000093        0.00000108        0.00000003
      67         -0.656215        2.000000        0.00000254        0.00000965        0.00000007
      68         -0.655700        2.000000        0.00003065        0.00002614        0.00000010
      69         -0.655174        2.000000        0.00001409        0.00001417        0.00000043
      70         -0.654827        2.000000        0.00000210        0.00001068        0.00000005
      71         -0.654660        2.000000        0.00001852        0.00001393        0.00000014
      72         -0.654406        2.000000        0.00001088        0.00001099        0.00000005
      73         -0.654250        2.000000        0.00000635        0.00002601        0.00000010
      74         -0.653619        2.000000        0.00000674        0.00000390        0.00000013
      75         -0.653105        2.000000        0.00048716        0.00013415        0.00000079
      76         -0.652904        2.000000        0.00006836        0.00014663        0.00000147
      77         -0.652612        2.000000        0.00000215        0.00000075        0.00000000
      78         -0.652411        2.000000        0.00000515        0.00002008        0.00000006
      79         -0.652213        2.000000        0.00002132        0.00007192        0.00000050
      80         -0.652083        2.000000        0.00010438        0.00035977        0.00000259
      81         -0.651807        2.000000        0.00042406        0.00015007        0.00000060
      82         -0.651706        2.000000        0.00002337        0.00001336        0.00000033
      83         -0.651237        2.000000        0.00008213        0.00010261        0.00000071
      84         -0.651053        2.000000        0.00014040        0.00002013        0.00000024
      85         -0.650411        2.000000        0.00000279        0.00002133        0.00000012
      86         -0.650326        2.000000        0.00000273        0.00000730        0.00000004
      87         -0.650219        2.000000        0.00002052        0.00000218        0.00000005
      88         -0.650130        2.000000        0.00000316        0.00001335        0.00000014
      89         -0.649849        2.000000        0.00000238        0.00001944        0.00000026
      90         -0.649510        2.000000        0.00000229        0.00001495        0.00000017
      91         -0.648737        2.000000        0.00000396        0.00001915        0.00000016
      92         -0.648608        2.000000        0.00005215        0.00001315        0.00000067
      93         -0.648509        2.000000        0.00001077        0.00002777        0.00000013
      94         -0.648091        2.000000        0.00000685        0.00000301        0.00000002
      95         -0.647956        2.000000        0.00000003        0.00000021        0.00000001
      96         -0.647875        2.000000        0.00000365        0.00000168        0.00000004
      97         -0.647628        2.000000        0.00003957        0.00001171        0.00000011
      98         -0.647248        2.000000        0.00001952        0.00000725        0.00000007
      99         -0.646997        2.000000        0.00002368        0.00002125        0.00000031
     100         -0.646893        2.000000        0.00001644        0.00001449        0.00000019
     101         -0.646794        2.000000        0.00166215        0.00059102        0.00000682
     102         -0.645843        2.000000        0.00045709        0.00018014        0.00000105
     103         -0.645519        2.000000        0.00003151        0.00009484        0.00000122
     104         -0.645232        2.000000        0.00027066        0.00026689        0.00000263
     105         -0.644964        2.000000        0.00002157        0.00007478        0.00000027
     106         -0.644451        2.000000        0.00006658        0.00007340        0.00000067
     107         -0.644170        2.000000        0.00014326        0.00003105        0.00000008
     108         -0.643891        2.000000        0.00001965        0.00002949        0.00000016
     109         -0.643862        2.000000        0.00006643        0.00008725        0.00000096
     110         -0.643478        2.000000        0.00002241        0.00000866        0.00000001
     111         -0.643325        2.000000        0.00000449        0.00001748        0.00000012
     112         -0.642934        2.000000        0.00015104        0.00004158        0.00000092
     113         -0.642899        2.000000        0.00000039        0.00000139        0.00000002
     114         -0.642460        2.000000        0.00001778        0.00001874        0.00000013
     115         -0.642175        2.000000        0.00024899        0.00007170        0.00000025
     116         -0.642120        2.000000        0.00000441        0.00002450        0.00000009
     117         -0.641851        2.000000        0.00004643        0.00000427        0.00000010
     118         -0.641683        2.000000        0.00005389        0.00002686        0.00000019
     119         -0.641305        2.000000        0.00062326        0.00012943        0.00000053
     120         -0.641072        2.000000        0.00020031        0.00004341        0.00000010
     121         -0.640960        2.000000        0.00012028        0.00004288        0.00000018
     122         -0.640793        2.000000        0.00004508        0.00001236        0.00000026
     123         -0.640578        2.000000        0.00000424        0.00003437        0.00000034
     124         -0.640464        2.000000        0.00009178        0.00010494        0.00000069
     125         -0.640169        2.000000        0.00002965        0.00000523        0.00000021
     126         -0.639736        2.000000        0.00009907        0.00005025        0.00000032
     127         -0.639499        2.000000        0.00064317        0.00029341        0.00000310
     128         -0.639154        2.000000        0.00006492        0.00027755        0.00000157
     129         -0.639060        2.000000        0.00008501        0.00002562        0.00000026
     130         -0.638976        2.000000        0.00003383        0.00014633        0.00000095
     131         -0.638593        2.000000        0.00055946        0.00005298        0.00000055
     132         -0.638261        2.000000        0.00000042        0.00000284        0.00000004
     133         -0.638059        2.000000        0.00005993        0.00014972        0.00000080
     134         -0.637912        2.000000        0.00002328        0.00006197        0.00000196
     135         -0.637762        2.000000        0.00000314        0.00001623        0.00000008
     136         -0.637584        2.000000        0.00013335        0.00001981        0.00000021
     137         -0.636804        2.000000        0.00000152        0.00000745        0.00000006
     138         -0.636640        2.000000        0.00018970        0.00006828        0.00000146
     139         -0.636429        2.000000        0.00056505        0.00011345        0.00000444
     140         -0.635515        2.000000        0.00003296        0.00022583        0.00000594
     141         -0.634989        2.000000        0.00035647        0.00008836        0.00000339
     142         -0.634462        2.000000        0.00006703        0.00016179        0.00000997
     143         -0.634132        2.000000        0.00001682        0.00010644        0.00000215
     144         -0.633763        2.000000        0.00033358        0.00007184        0.00000029
     145         -0.633531        2.000000        0.00000156        0.00000202        0.00000001
     146         -0.632585        2.000000        0.00008654        0.00003777        0.00000086
     147         -0.632333        2.000000        0.00002095        0.00004981        0.00000060
     148         -0.632031        2.000000        0.00003800        0.00000759        0.00000003
     149         -0.631841        2.000000        0.00000053        0.00000262        0.00000013
     150         -0.631318        2.000000        0.00015411        0.00013493        0.00000192
     151         -0.630640        2.000000        0.00058752        0.00020583        0.00000828
     152         -0.630519        2.000000        0.00061260        0.00026039        0.00001002
     153         -0.630490        2.000000        0.00011632        0.00005209        0.00000187
     154         -0.629959        2.000000        0.00006355        0.00001878        0.00000075
     155         -0.629452        2.000000        0.00023856        0.00005958        0.00000008
     156         -0.629210        2.000000        0.00001783        0.00001246        0.00000006
     157         -0.628856        2.000000        0.00000028        0.00000094        0.00000007
     158         -0.628516        2.000000        0.00040154        0.00004243        0.00000235
     159         -0.628511        2.000000        0.00003056        0.00005056        0.00000093
     160         -0.628382        2.000000        0.00036796        0.00006999        0.00000080
     161         -0.628242        2.000000        0.00012588        0.00001839        0.00000045
     162         -0.628026        2.000000        0.00002047        0.00010580        0.00000144
     163         -0.627712        2.000000        0.00018490        0.00013767        0.00000261
     164         -0.627438        2.000000        0.00021669        0.00004073        0.00000114
     165         -0.627281        2.000000        0.00128338        0.00014213        0.00000132
     166         -0.626983        2.000000        0.00069406        0.00016487        0.00000442
     167         -0.626804        2.000000        0.00003341        0.00001567        0.00000033
     168         -0.626588        2.000000        0.00231372        0.00019212        0.00000501
     169         -0.626019        2.000000        0.00001406        0.00000260        0.00000002
     170         -0.625843        2.000000        0.00625473        0.00073313        0.00000848
     171         -0.625019        2.000000        0.00165847        0.00024515        0.00000429
     172         -0.624831        2.000000        0.00472071        0.00121459        0.00000346
     173         -0.624166        2.000000        0.00015067        0.00002531        0.00000034
     174         -0.623906        2.000000        0.00002683        0.00006398        0.00000062
     175         -0.623799        2.000000        0.00044812        0.00007464        0.00000056
     176         -0.623716        2.000000        0.02149329        0.00281144        0.00002605
     177         -0.623382        2.000000        0.00186949        0.00039027        0.00000145
     178         -0.623067        2.000000        0.00019150        0.00003643        0.00000028
     179         -0.622801        2.000000        0.02797565        0.00561427        0.00004000
     180         -0.622617        2.000000        0.00541473        0.00098909        0.00000783
     181         -0.622499        2.000000        0.00029571        0.00002186        0.00000151
     182         -0.621672        2.000000        0.02986980        0.00552659        0.00004979
     183         -0.621151        2.000000        0.01706103        0.00361963        0.00001643
     184         -0.620781        2.000000        0.00747597        0.00248378        0.00000256
     185         -0.620579        2.000000        0.00551824        0.00147796        0.00000308
     186         -0.619930        2.000000        0.00004757        0.00011293        0.00000098
     187         -0.618694        2.000000        0.00017700        0.00003562        0.00000027
     188         -0.618461        2.000000        0.07282813        0.01413801        0.00009988
     189         -0.618211        2.000000        0.00010573        0.00001878        0.00000022
     190         -0.617957        2.000000        0.03765097        0.00724583        0.00005673
     191         -0.617770        2.000000        0.10625769        0.01993511        0.00016914
     192         -0.617636        2.000000        0.00338790        0.00080340        0.00000274
     193         -0.617200        2.000000        0.02026059        0.00421136        0.00002375
     194         -0.616810        2.000000        0.00010207        0.00004520        0.00000060
     195         -0.615618        2.000000        0.00121723        0.00044151        0.00000102
     196         -0.615377        2.000000        0.00072579        0.00027495        0.00000052
     197         -0.615228        2.000000        0.00010738        0.00012123        0.00000052
     198         -0.614941        2.000000        0.00000370        0.00000208        0.00000000
     199         -0.613862        2.000000        0.00396840        0.00091567        0.00000816
     200         -0.613167        2.000000        0.00253288        0.00051786        0.00000635
     201         -0.612937        2.000000        0.00002865        0.00000736        0.00000003
     202         -0.612465        2.000000        0.00001898        0.00013640        0.00000536
     203         -0.611371        2.000000        0.00171066        0.00114935        0.00000671
     204         -0.611273        2.000000        0.00027928        0.00017097        0.00000092
     205         -0.610903        2.000000        0.00001885        0.00007199        0.00000099
     206         -0.609912        2.000000        0.00251170        0.01006255        0.00017072
     207         -0.609442        2.000000        0.00009947        0.00063300        0.00001038
     208         -0.609149        2.000000        0.00024789        0.00124865        0.00003959
     209         -0.608882        2.000000        0.00001380        0.00008455        0.00000160
     210         -0.608562        2.000000        0.00010860        0.00002784        0.00000054
     211         -0.608012        2.000000        0.00011856        0.00040586        0.00000512
     212         -0.607014        2.000000        0.00061632        0.00254648        0.00002202
     213         -0.606300        2.000000        0.00007904        0.00015966        0.00000069
     214         -0.605948        2.000000        0.00005304        0.00001273        0.00000016
     215         -0.605403        2.000000        0.00000501        0.00000201        0.00000009
     216         -0.604664        2.000000        0.00007823        0.00012058        0.00000165
     217         -0.604080        2.000000        0.00261833        0.00091126        0.00001535
     218         -0.603538        2.000000        0.00560521        0.00112931        0.00003080
     219         -0.603145        2.000000        0.02483508        0.00695915        0.00015354
     220         -0.602213        2.000000        0.00111138        0.00059549        0.00000179
     221         -0.601871        2.000000        0.00215353        0.00333743        0.00012206
     222         -0.600521        2.000000        0.00010687        0.00006060        0.00000015
     223         -0.599848        2.000000        0.00008956        0.00004840        0.00000089
     224         -0.598111        2.000000        0.06583680        0.02064661        0.00014780
     225         -0.597286        2.000000        0.12958515        0.04241788        0.00024873
     226         -0.597121        2.000000        0.04233217        0.01345833        0.00008872
     227         -0.595585        2.000000        0.00009869        0.00003920        0.00000012
     228         -0.591103        2.000000        0.09651509        0.04100279        0.00015898
     229         -0.582585        2.000000        0.00000260        0.00000199        0.00000007
     230         -0.576283        2.000000        0.00001747        0.00000561        0.00000028
     231         -0.258156        2.000000        0.00000000        0.00000000        0.00000000
     232         -0.253473        2.000000        0.00000000        0.00000000        0.00000000
     233         -0.246233        2.000000        0.00000000        0.00000000        0.00000000
     234         -0.244651        2.000000        0.00000000        0.00000000        0.00000000
     235         -0.243092        2.000000        0.00000000        0.00000000        0.00000000
     236         -0.242544        2.000000        0.00000000        0.00000000        0.00000000
     237         -0.241048        2.000000        0.00000000        0.00000001        0.00000000
     238         -0.240546        2.000000        0.00000010        0.00000078        0.00000000
     239         -0.237982        2.000000        0.00000006        0.00000031        0.00000000
     240         -0.237798        2.000000        0.00000000        0.00000000        0.00000000
     241         -0.236566        2.000000        0.00000000        0.00000000        0.00000000
     242         -0.235920        2.000000        0.00000000        0.00000000        0.00000000
     243         -0.233145        2.000000        0.00000005        0.00000034        0.00000001
     244         -0.232785        2.000000        0.00000000        0.00000002        0.00000000
     245         -0.232224        2.000000        0.00000000        0.00000002        0.00000000
     246         -0.232174        2.000000        0.00000000        0.00000001        0.00000000
     247         -0.232015        2.000000        0.00000001        0.00000004        0.00000000
     248         -0.230744        2.000000        0.00000000        0.00000000        0.00000000
     249         -0.230697        2.000000        0.00000001        0.00000003        0.00000000
     250         -0.229959        2.000000        0.00000000        0.00000001        0.00000000
     251         -0.229741        2.000000        0.00000013        0.00000045        0.00000001
     252         -0.228898        2.000000        0.00000003        0.00000012        0.00000000
     253         -0.227939        2.000000        0.00000007        0.00000072        0.00000000
     254         -0.227542        2.000000        0.00000001        0.00000007        0.00000000
     255         -0.227010        2.000000        0.00000006        0.00000018        0.00000000
     256         -0.226860        2.000000        0.00000134        0.00000946        0.00000016
     257         -0.226780        2.000000        0.00000003        0.00000018        0.00000000
     258         -0.226656        2.000000        0.00000044        0.00000103        0.00000003
     259         -0.226503        2.000000        0.00000003        0.00000017        0.00000000
     260         -0.226036        2.000000        0.00000001        0.00000003        0.00000000
     261         -0.225667        2.000000        0.00000000        0.00000003        0.00000000
     262         -0.225511        2.000000        0.00000003        0.00000023        0.00000000
     263         -0.224716        2.000000        0.00000001        0.00000009        0.00000000
     264         -0.224218        2.000000        0.00000010        0.00000039        0.00000000
     265         -0.223677        2.000000        0.00000005        0.00000034        0.00000001
     266         -0.223438        2.000000        0.00000000        0.00000018        0.00000000
     267         -0.223292        2.000000        0.00000011        0.00000086        0.00000001
     268         -0.223025        2.000000        0.00000001        0.00000005        0.00000000
     269         -0.222436        2.000000        0.00000000        0.00000001        0.00000000
     270         -0.222159        2.000000        0.00000000        0.00000001        0.00000000
     271         -0.221905        2.000000        0.00000001        0.00000013        0.00000000
     272         -0.221185        2.000000        0.00000023        0.00000148        0.00000002
     273         -0.220659        2.000000        0.00000002        0.00000009        0.00000000
     274         -0.219665        2.000000        0.00000008        0.00000068        0.00000001
     275         -0.219630        2.000000        0.00000038        0.00000278        0.00000003
     276         -0.218916        2.000000        0.00000086        0.00001466        0.00000006
     277         -0.218551        2.000000        0.00000008        0.00000100        0.00000001
     278         -0.218398        2.000000        0.00000013        0.00000134        0.00000001
     279         -0.218139        2.000000        0.00000001        0.00000014        0.00000000
     280         -0.217698        2.000000        0.00000005        0.00000050        0.00000000
     281         -0.217580        2.000000        0.00000000        0.00000011        0.00000000
     282         -0.217435        2.000000        0.00000001        0.00000008        0.00000000
     283         -0.216483        2.000000        0.00000069        0.00000571        0.00000005
     284         -0.216363        2.000000        0.00000001        0.00000012        0.00000000
     285         -0.216254        2.000000        0.00000161        0.00002019        0.00000013
     286         -0.215958        2.000000        0.00000000        0.00000003        0.00000000
     287         -0.215645        2.000000        0.00000000        0.00000004        0.00000000
     288         -0.215217        2.000000        0.00000809        0.00003920        0.00000056
     289         -0.214936        2.000000        0.00000034        0.00000112        0.00000003
     290         -0.214221        2.000000        0.00000189        0.00000928        0.00000013
     291         -0.213816        2.000000        0.00000035        0.00000089        0.00000002
     292         -0.213592        2.000000        0.00000001        0.00000001        0.00000000
     293         -0.213468        2.000000        0.00000211        0.00000629        0.00000014
     294         -0.213241        2.000000        0.00001045        0.00002313        0.00000069
     295         -0.213184        2.000000        0.00000003        0.00000016        0.00000000
     296         -0.212817        2.000000        0.00000022        0.00000109        0.00000001
     297         -0.212583        2.000000        0.00000013        0.00000179        0.00000000
     298         -0.212273        2.000000        0.00000022        0.00000113        0.00000001
     299         -0.211896        2.000000        0.00000267        0.00000815        0.00000016
     300         -0.211391        2.000000        0.00000080        0.00000619        0.00000004
     301         -0.211339        2.000000        0.00000067        0.00000284        0.00000009
     302         -0.211269        2.000000        0.00000333        0.00001871        0.00000017
     303         -0.211046        2.000000        0.00000106        0.00000517        0.00000004
     304         -0.210412        2.000000        0.00001262        0.00004279        0.00000078
     305         -0.210309        2.000000        0.00000449        0.00001570        0.00000023
     306         -0.210188        2.000000        0.00000179        0.00002666        0.00000006
     307         -0.210166        2.000000        0.00000588        0.00004006        0.00000015