# Projected DOS for list 99 of 3 atoms, at iteration step i = 0, E(Fermi) =     0.101540 a.u.
#     MO Eigenvalue [a.u.]      Occupation                 s                 p                 d
       1         -0.708367        2.000000        0.00000084        0.00000045        0.00000001
       2         -0.696979        2.000000        0.01650721        0.00377383        0.00005271
       3         -0.695301        2.000000        0.00069010        0.00051595        0.00000384
       4         -0.694902        2.000000        0.00000000        0.00000000        0.00000000
       5         -0.690081        2.000000        0.00000000        0.00000000        0.00000000
       6         -0.686805        2.000000        0.03150235        0.00423942        0.00006740
       7         -0.686571        2.000000        0.00164449        0.00044815        0.00000343
       8         -0.685003        2.000000        0.00033678        0.00003675        0.00000108
       9         -0.684036        2.000000        0.00121321        0.00032561        0.00000617
      10         -0.683920        2.000000        0.00000000        0.00000000        0.00000000
      11         -0.681735        2.000000        0.00323650        0.00048376        0.00000835
      12         -0.679408        2.000000        0.01120600        0.00163488        0.00001919
      13         -0.678932        2.000000        0.00000000        0.00000000        0.00000000
      14         -0.678381        2.000000        0.12671976        0.01822988        0.00020940
      15         -0.677963        2.000000        0.00156902        0.00126464        0.00001979
      16         -0.677540        2.000000        0.00361006        0.00073847        0.00000529
      17         -0.677381        2.000000        0.00000000        0.00000000        0.00000000
      18         -0.677246        2.000000        0.00501363        0.00057579        0.00001037
      19         -0.675827        2.000000        0.00099892        0.00019744        0.00000396
      20         -0.675724        2.000000        0.00000000        0.00000000        0.00000000
      21         -0.674932        2.000000        0.00000000        0.00000000        0.00000000
      22         -0.674380        2.000000        0.18644108        0.03658846        0.00027647
      23         -0.673393        2.000000        0.00373426        0.00074337        0.00000610
      24         -0.672924        2.000000        0.00000002        0.00000000        0.00000000
      25         -0.672289        2.000000        0.00100864        0.00017375        0.00000306
      26         -0.672227        2.000000        0.00016262        0.00003178        0.00000028
      27         -0.671275        2.000000        0.00000000        0.00000000        0.00000000
      28         -0.670770        2.000000        0.00240047        0.00179420        0.00002681
      29         -0.670400        2.000000        0.04712151        0.01104250        0.00007395
      30         -0.669922        2.000000        0.05334650        0.01536861        0.00009164
      31         -0.669606        2.000000        0.00000000        0.00000002        0.00000000
      32         -0.668947        2.000000        0.00254410        0.00081841        0.00000622
      33         -0.668931        2.000000        0.00157677        0.00050653        0.00000384
      34         -0.668431        2.000000        0.00446618        0.00160009        0.00001209
      35         -0.668008        2.000000        0.00044257        0.00018486        0.00000125
      36         -0.667083        2.000000        0.00083800        0.00062934        0.00000301
      37         -0.666996        2.000000        0.00000136        0.00000042        0.00000000
      38         -0.666939        2.000000        0.00221478        0.00090336        0.00000220
      39         -0.666646        2.000000        0.00132604        0.00031461        0.00000243
      40         -0.666363        2.000000        0.00700540        0.00216595        0.00001307
      41         -0.666281        2.000000        0.00000483        0.00000117        0.00000001
      42         -0.666129        2.000000        0.00016525        0.00006749        0.00000064
      43         -0.665867        2.000000        0.00639834        0.00234378        0.00001109
      44         -0.664404        2.000000        0.00000144        0.00000054        0.00000001
      45         -0.664061        2.000000        0.00078702        0.00032439        0.00000268
      46         -0.663948        2.000000        0.00000086        0.00000121        0.00000001
      47         -0.663550        2.000000        0.00010774        0.00003881        0.00000019
      48         -0.662943        2.000000        0.00000001        0.00000000        0.00000000
      49         -0.662627        2.000000        0.00957941        0.00282967        0.00000748
      50         -0.661965        2.000000        0.00071652        0.00015574        0.00000098
      51         -0.661528        2.000000        0.00000004        0.00000003        0.00000000
      52         -0.660900        2.000000        0.00000301        0.00000149        0.00000001
      53         -0.660166        2.000000        0.01323341        0.01055618        0.00009994
      54         -0.659683        2.000000        0.00000001        0.00000001        0.00000000
      55         -0.658835        2.000000        0.00595133        0.00288698        0.00001118
      56         -0.658814        2.000000        0.00002215        0.00001071        0.00000004
      57         -0.658691        2.000000        0.00000387        0.00000181        0.00000001
      58         -0.658084        2.000000        0.00014227        0.00028231        0.00000564
      59         -0.658073        2.000000        0.00010132        0.00013180        0.00000220
      60         -0.657975        2.000000        0.00075297        0.00038057        0.00000041
      61         -0.657678        2.000000        0.00728252        0.00426745        0.00000462
      62         -0.657592        2.000000        0.00086817        0.00089590        0.00000966
      63         -0.657226        2.000000        0.00000263        0.00000170        0.00000000
      64         -0.657087        2.000000        0.02737035        0.01314725        0.00001365
      65         -0.656742        2.000000        0.00306352        0.00125002        0.00000225
      66         -0.656449        2.000000        0.00004735        0.00024050        0.00000286
      67         -0.656215        2.000000        0.00018300        0.00028479        0.00000237
      68         -0.655700        2.000000        0.00002421        0.00003878        0.00000017
      69         -0.655174        2.000000        0.00000045        0.00000034        0.00000000
      70         -0.654827        2.000000        0.00166649        0.00187258        0.00001164
      71         -0.654660        2.000000        0.00001490        0.00001227        0.00000005
      72         -0.654406        2.000000        0.00237409        0.00168523        0.00000705
      73         -0.654250        2.000000        0.00220142        0.00096241        0.00000229
      74         -0.653619        2.000000        0.00000449        0.00000190        0.00000001
      75         -0.653105        2.000000        0.00069904        0.00029169        0.00000121
      76         -0.652904        2.000000        0.00036414        0.00015464        0.00000076
      77         -0.652612        2.000000        0.01093299        0.00452889        0.00002224
      78         -0.652411        2.000000        0.02983063        0.01331515        0.00004170
      79         -0.652213        2.000000        0.00002465        0.00001031        0.00000007
      80         -0.652083        2.000000        0.00001089        0.00000920        0.00000001
      81         -0.651807        2.000000        0.00034029        0.00016906        0.00000015
      82         -0.651706        2.000000        0.00008729        0.00004037        0.00000005
      83         -0.651237        2.000000        0.00053738        0.00023874        0.00000032
      84         -0.651053        2.000000        0.00069929        0.00029752        0.00000048
      85         -0.650411        2.000000        0.00000040        0.00000194        0.00000005
      86         -0.650326        2.000000        0.00000041        0.00000366        0.00000006
      87         -0.650219        2.000000        0.00000434        0.00004135        0.00000038
      88         -0.650130        2.000000        0.00000112        0.00000228        0.00000001
      89         -0.649849        2.000000        0.00000160        0.00000216        0.00000005
      90         -0.649510        2.000000        0.00008270        0.00003792        0.00000015
      91         -0.648737        2.000000        0.00000228        0.00000673        0.00000016
      92         -0.648608        2.000000        0.00000066        0.00000394        0.00000007
      93         -0.648509        2.000000        0.00053551        0.00043375        0.00000116
      94         -0.648091        2.000000        0.00005009        0.00004961        0.00000009
      95         -0.647956        2.000000        0.00000022        0.00000016        0.00000000
      96         -0.647875        2.000000        0.00103893        0.00098459        0.00000679
      97         -0.647628        2.000000        0.01085433        0.00930186        0.00000837
      98         -0.647248        2.000000        0.00005449        0.00047775        0.00001360
      99         -0.646997        2.000000        0.00000004        0.00000007        0.00000000
     100         -0.646893        2.000000        0.00000130        0.00000120        0.00000000
     101         -0.646794        2.000000        0.00003286        0.00001190        0.00000021
     102         -0.645843        2.000000        0.00000454        0.00002468        0.00000031
     103         -0.645519        2.000000        0.00031851        0.00136137        0.00001690
     104         -0.645232        2.000000        0.00004998        0.00024797        0.00000361
     105         -0.644964        2.000000        0.00244011        0.00118611        0.00005169
     106         -0.644451        2.000000        0.00007729        0.00004626        0.00000005
     107         -0.644170        2.000000        0.00025328        0.00047477        0.00002277
     108         -0.643891        2.000000        0.00018199        0.00010763        0.00000083
     109         -0.643862        2.000000        0.00049587        0.00017193        0.00000260
     110         -0.643478        2.000000        0.01086630        0.00808433        0.00004627
     111         -0.643325        2.000000        0.00154964        0.00108072        0.00000549
     112         -0.642934        2.000000        0.00000092        0.00000365        0.00000006
     113         -0.642899        2.000000        0.02198658        0.01078610        0.00002901
     114         -0.642460        2.000000        0.00111700        0.00042420        0.00000701
     115         -0.642175        2.000000        0.00002870        0.00001183        0.00000012
     116         -0.642120        2.000000        0.01255680        0.00496188        0.00004493
     117         -0.641851        2.000000        0.00060063        0.00026240        0.00000153
     118         -0.641683        2.000000        0.00304987        0.00123242        0.00001074
     119         -0.641305        2.000000        0.00002502        0.00000919        0.00000036
     120         -0.641072        2.000000        0.00014053        0.00007243        0.00000022
     121         -0.640960        2.000000        0.00002520        0.00001816        0.00000000
     122         -0.640793        2.000000        0.00002777        0.00001595        0.00000002
     123         -0.640578        2.000000        0.00031038        0.00022175        0.00000004
     124         -0.640464        2.000000        0.00004372        0.00003339        0.00000002
     125         -0.640169        2.000000        0.00000770        0.00000401        0.00000001
     126         -0.639736        2.000000        0.00006237        0.00004319        0.00000001
     127         -0.639499        2.000000        0.00038983        0.00023927        0.00000010
     128         -0.639154        2.000000        0.00658858        0.00416103        0.00000148
     129         -0.639060        2.000000        0.00474129        0.00297981        0.00000115
     130         -0.638976        2.000000        0.01004145        0.00640481        0.00000218
     131         -0.638593        2.000000        0.00001443        0.00002695        0.00000015
     132         -0.638261        2.000000        0.00315509        0.00129113        0.00001352
     133         -0.638059        2.000000        0.00005473        0.00005538        0.00000024
     134         -0.637912        2.000000        0.00023365        0.00010185        0.00000091
     135         -0.637762        2.000000        0.00046341        0.00033198        0.00001782
     136         -0.637584        2.000000        0.00000033        0.00000082        0.00000005
     137         -0.636804        2.000000        0.00001387        0.00006914        0.00000086
     138         -0.636640        2.000000        0.00000007        0.00000037        0.00000001
     139         -0.636429        2.000000        0.00000004        0.00000025        0.00000000
     140         -0.635515        2.000000        0.00000022        0.00000020        0.00000000
     141         -0.634989        2.000000        0.00000022        0.00000013        0.00000000
     142         -0.634462        2.000000        0.00000001        0.00000002        0.00000000
     143         -0.634132        2.000000        0.00000002        0.00000005        0.00000000
     144         -0.633763        2.000000        0.00000002        0.00000001        0.00000000
     145         -0.633531        2.000000        0.00055185        0.00033664        0.00000147
     146         -0.632585        2.000000        0.00002483        0.00001391        0.00000006
     147         -0.632333        2.000000        0.00000008        0.00000006        0.00000000
     148         -0.632031        2.000000        0.00000004        0.00000002        0.00000000
     149         -0.631841        2.000000        0.00000003        0.00000002        0.00000000
     150         -0.631318        2.000000        0.00000967        0.00000549        0.00000002
     151         -0.630640        2.000000        0.00002701        0.00001292        0.00000010
     152         -0.630519        2.000000        0.00036280        0.00017130        0.00000161
     153         -0.630490        2.000000        0.00124588        0.00058626        0.00000560
     154         -0.629959        2.000000        0.00000000        0.00000000        0.00000000
     155         -0.629452        2.000000        0.00000060        0.00000066        0.00000000
     156         -0.629210        2.000000        0.00003224        0.00004596        0.00000005
     157         -0.628856        2.000000        0.00000002        0.00000002        0.00000000
     158         -0.628516        2.000000        0.00003864        0.00003560        0.00000002
     159         -0.628511        2.000000        0.00001719        0.00001965        0.00000002
     160         -0.628382        2.000000        0.00001017        0.00001138        0.00000001
     161         -0.628242        2.000000        0.00001366        0.00001138        0.00000001
     162         -0.628026        2.000000        0.00001325        0.00001192        0.00000001
     163         -0.627712        2.000000        0.00000310        0.00000383        0.00000001
     164         -0.627438        2.000000        0.00000095        0.00000040        0.00000001
     165         -0.627281        2.000000        0.00000036        0.00000069        0.00000001
     166         -0.626983        2.000000        0.00000010        0.00000023        0.00000000
     167         -0.626804        2.000000        0.00000001        0.00000002        0.00000000
     168         -0.626588        2.000000        0.00000010        0.00000026        0.00000001
     169         -0.626019        2.000000        0.00000000        0.00000000        0.00000000
     170         -0.625843        2.000000        0.00000320        0.00000402        0.00000001
     171         -0.625019        2.000000        0.00000278        0.00000352        0.00000000
     172         -0.624831        2.000000        0.00000033        0.00000028        0.00000000
     173         -0.624166        2.000000        0.00000025        0.00000012        0.00000000
     174         -0.623906        2.000000        0.00000203        0.00000084        0.00000002
     175         -0.623799        2.000000        0.00000005        0.00000002        0.00000000
     176         -0.623716        2.000000        0.00000004        0.00000031        0.00000000
     177         -0.623382        2.000000        0.00000111        0.00000049        0.00000001
     178         -0.623067        2.000000        0.00451954        0.00191351        0.00005737
     179         -0.622801        2.000000        0.00002367        0.00001028        0.00000031
     180         -0.622617        2.000000        0.00000081        0.00000053        0.00000001
     181         -0.622499        2.000000        0.00000028        0.00000082        0.00000000
     182         -0.621672        2.000000        0.00000097        0.00000224        0.00000002
     183         -0.621151        2.000000        0.00000210        0.00001816        0.00000006
     184         -0.620781        2.000000        0.00000026        0.00000358        0.00000001
     185         -0.620579        2.000000        0.00000000        0.00000005        0.00000000
     186         -0.619930        2.000000        0.00000032        0.00000037        0.00000000
     187         -0.618694        2.000000        0.00003284        0.00010650        0.00000008
     188         -0.618461        2.000000        0.00000005        0.00000004        0.00000000
     189         -0.618211        2.000000        0.00002395        0.00001719        0.00000006
     190         -0.617957        2.000000        0.00000003        0.00000024        0.00000001
     191         -0.617770        2.000000        0.00000006        0.00000003        0.00000000
     192         -0.617636        2.000000        0.00000006        0.00000005        0.00000000
     193         -0.617200        2.000000        0.00000004        0.00000002        0.00000000
     194         -0.616810        2.000000        0.00000000        0.00000000        0.00000000
     195         -0.615618        2.000000        0.00000000        0.00000000        0.00000000
     196         -0.615377        2.000000        0.00000040        0.00000022        0.00000000
     197         -0.615228        2.000000        0.00000000        0.00000000        0.00000000
     198         -0.614941        2.000000        0.00000785        0.00000575        0.00000001
     199         -0.613862        2.000000        0.00000000        0.00000000        0.00000000
     200         -0.613167        2.000000        0.00000000        0.00000000        0.00000000
     201         -0.612937        2.000000        0.00000248        0.00000330        0.00000001
     202         -0.612465        2.000000        0.00000000        0.00000000        0.00000000
     203         -0.611371        2.000000        0.00000000        0.00000000        0.00000000
     204         -0.611273        2.000000        0.00000000        0.00000000        0.00000000
     205         -0.610903        2.000000        0.00000000        0.00000000        0.00000000
     206         -0.609912        2.000000        0.00000000        0.00000000        0.00000000
     207         -0.609442        2.000000        0.00000005        0.00000006        0.00000000
     208         -0.609149        2.000000        0.00000000        0.00000001        0.00000000
     209         -0.608882        2.000000        0.00000000        0.00000000        0.00000000
     210         -0.608562        2.000000        0.00000000        0.00000000        0.00000000
     211         -0.608012        2.000000        0.00000000        0.00000000        0.00000000
     212         -0.607014        2.000000        0.00000000        0.00000000        0.00000000
     213         -0.606300        2.000000        0.00000000        0.00000000        0.00000000
     214         -0.605948        2.000000        0.00000002        0.00000003        0.00000000
     215         -0.605403        2.000000        0.00000001        0.00000004        0.00000000
     216         -0.604664        2.000000        0.00000000        0.00000000        0.00000000
     217         -0.604080        2.000000        0.00000000        0.00000000        0.00000000
     218         -0.603538        2.000000        0.00000000        0.00000000        0.00000000
     219         -0.603145        2.000000        0.00000000        0.00000000        0.00000000
     220         -0.602213        2.000000        0.00000000        0.00000000        0.00000000
     221         -0.601871        2.000000        0.00000000        0.00000000        0.00000000
     222         -0.600521        2.000000        0.00000001        0.00000004        0.00000000
     223         -0.599848        2.000000        0.00000000        0.00000000        0.00000000
     224         -0.598111        2.000000        0.00000000        0.00000000        0.00000000
     225         -0.597286        2.000000        0.00000000        0.00000000        0.00000000
     226         -0.597121        2.000000        0.00000000        0.00000000        0.00000000
     227         -0.595585        2.000000        0.00000000        0.00000000        0.00000000
     228         -0.591103        2.000000        0.00000000        0.00000000        0.00000000
     229         -0.582585        2.000000        0.00000000        0.00000000        0.00000000
     230         -0.576283        2.000000        0.00000000        0.00000000        0.00000000
     231         -0.258156        2.000000        0.00001283        0.00003962        0.00000071
     232         -0.253473        2.000000        0.00126079        0.00312306        0.00007781
     233         -0.246233        2.000000        0.00959809        0.02892689        0.00045765
     234         -0.244651        2.000000        0.02206682        0.06683275        0.00102493
     235         -0.243092        2.000000        0.00026339        0.00084162        0.00001146
     236         -0.242544        2.000000        0.00000001        0.00000003        0.00000000
     237         -0.241048        2.000000        0.05535070        0.16590331        0.00262705
     238         -0.240546        2.000000        0.00026967        0.00075571        0.00001492
     239         -0.237982        2.000000        0.00030290        0.00082669        0.00001626
     240         -0.237798        2.000000        0.00000318        0.00001100        0.00000015
     241         -0.236566        2.000000        0.00003403        0.00014968        0.00000136
     242         -0.235920        2.000000        0.00084852        0.00264164        0.00003719
     243         -0.233145        2.000000        0.00000017        0.00000053        0.00000001
     244         -0.232785        2.000000        0.02281509        0.06813902        0.00109785
     245         -0.232224        2.000000        0.00164611        0.00592917        0.00007350
     246         -0.232174        2.000000        0.00000008        0.00000029        0.00000000
     247         -0.232015        2.000000        0.00000021        0.00000075        0.00000001
     248         -0.230744        2.000000        0.00000269        0.00000848        0.00000023
     249         -0.230697        2.000000        0.00130181        0.00365447        0.00009829
     250         -0.229959        2.000000        0.00000020        0.00000092        0.00000001
     251         -0.229741        2.000000        0.00097352        0.00301616        0.00007294
     252         -0.228898        2.000000        0.00271745        0.00727432        0.00015067
     253         -0.227939        2.000000        0.00087715        0.00261992        0.00004305
     254         -0.227542        2.000000        0.00015794        0.00042473        0.00000893
     255         -0.227010        2.000000        0.00057820        0.00237347        0.00002440
     256         -0.226860        2.000000        0.00000017        0.00000062        0.00000001
     257         -0.226780        2.000000        0.00300731        0.01053384        0.00013416
     258         -0.226656        2.000000        0.00051357        0.00180800        0.00002618
     259         -0.226503        2.000000        0.00000000        0.00000001        0.00000000
     260         -0.226036        2.000000        0.00040507        0.00274665        0.00003671
     261         -0.225667        2.000000        0.00000001        0.00000002        0.00000000
     262         -0.225511        2.000000        0.00000107        0.00000290        0.00000008
     263         -0.224716        2.000000        0.00070824        0.00249362        0.00006178
     264         -0.224218        2.000000        0.00358478        0.00937666        0.00022438
     265         -0.223677        2.000000        0.00000087        0.00000517        0.00000003
     266         -0.223438        2.000000        0.00063757        0.00193196        0.00003453
     267         -0.223292        2.000000        0.00000140        0.00001044        0.00000014
     268         -0.223025        2.000000        0.00243240        0.00566472        0.00021008
     269         -0.222436        2.000000        0.00003032        0.00014462        0.00000235
     270         -0.222159        2.000000        0.00000007        0.00000030        0.00000000
     271         -0.221905        2.000000        0.00009784        0.00123724        0.00002414
     272         -0.221185        2.000000        0.00000086        0.00000267        0.00000005
     273         -0.220659        2.000000        0.00015276        0.00225184        0.00000909
     274         -0.219665        2.000000        0.00074358        0.00245700        0.00002507
     275         -0.219630        2.000000        0.00001003        0.00004189        0.00000036
     276         -0.218916        2.000000        0.00062699        0.00162874        0.00005145
     277         -0.218551        2.000000        0.00125653        0.00419359        0.00005104
     278         -0.218398        2.000000        0.00096737        0.00311891        0.00004177
     279         -0.218139        2.000000        0.00000006        0.00000015        0.00000000
     280         -0.217698        2.000000        0.00090980        0.00324661        0.00003280
     281         -0.217580        2.000000        0.00007901        0.00033427        0.00000265
     282         -0.217435        2.000000        0.00777873        0.03079978        0.00026115
     283         -0.216483        2.000000        0.00078997        0.00237916        0.00003465
     284         -0.216363        2.000000        0.00000545        0.00001985        0.00000021
     285         -0.216254        2.000000        0.00027347        0.00083757        0.00001005
     286         -0.215958        2.000000        0.00001606        0.00006324        0.00000057
     287         -0.215645        2.000000        0.00008291        0.00032298        0.00000296
     288         -0.215217        2.000000        0.00000601        0.00003098        0.00000023
     289         -0.214936        2.000000        0.00012090        0.00038527        0.00000474
     290         -0.214221        2.000000        0.00035810        0.00108490        0.00003337
     291         -0.213816        2.000000        0.00002959        0.00008120        0.00000171
     292         -0.213592        2.000000        0.00000231        0.00000568        0.00000015
     293         -0.213468        2.000000        0.00088521        0.00455734        0.00011227
     294         -0.213241        2.000000        0.00012424        0.00035946        0.00001058
     295         -0.213184        2.000000        0.00001319        0.00017550        0.00000300
     296         -0.212817        2.000000        0.00000104        0.00001918        0.00000035
     297         -0.212583        2.000000        0.00021964        0.00109919        0.00000746
     298         -0.212273        2.000000        0.00000329        0.00004404        0.00000052
     299         -0.211896        2.000000        0.00004632        0.00029912        0.00000233
     300         -0.211391        2.000000        0.00001452        0.00004271        0.00000100
     301         -0.211339        2.000000        0.00004799        0.00036685        0.00000269
     302         -0.211269        2.000000        0.00002598        0.00007724        0.00000131
     303         -0.211046        2.000000        0.00001894        0.00008129        0.00000086
     304         -0.210412        2.000000        0.00000222        0.00006047        0.00000094
     305         -0.210309        2.000000        0.00006488        0.00025005        0.00000741
     306         -0.210188        2.000000        0.00010316        0.00041127        0.00001176
     307         -0.210166        2.000000        0.00001183        0.00007814        0.00000198