# Projected DOS for atomic kind O at iteration step i = 0, E(Fermi) =     0.101540 a.u.
#     MO Eigenvalue [a.u.]      Occupation                 s                 p                 d
       1         -0.708367        2.000000        0.54490686        0.02463295        0.00139187
       2         -0.696979        2.000000        0.59014118        0.02275573        0.00156728
       3         -0.695301        2.000000        0.57746935        0.02181154        0.00157698
       4         -0.694902        2.000000        0.56037493        0.02415102        0.00143393
       5         -0.690081        2.000000        0.56856306        0.02350878        0.00153291
       6         -0.686805        2.000000        0.57928708        0.02711266        0.00160898
       7         -0.686571        2.000000        0.56435304        0.02514127        0.00156312
       8         -0.685003        2.000000        0.56666138        0.02353648        0.00190036
       9         -0.684036        2.000000        0.58360147        0.02343744        0.00156579
      10         -0.683920        2.000000        0.57633271        0.02063184        0.00172940
      11         -0.681735        2.000000        0.58458591        0.02194017        0.00166286
      12         -0.679408        2.000000        0.57335155        0.02183115        0.00170619
      13         -0.678932        2.000000        0.58785109        0.01943239        0.00156206
      14         -0.678381        2.000000        0.57285921        0.02688352        0.00176052
      15         -0.677963        2.000000        0.57883888        0.02459851        0.00171828
      16         -0.677540        2.000000        0.57058611        0.02509063        0.00190168
      17         -0.677381        2.000000        0.57761953        0.02115081        0.00156783
      18         -0.677246        2.000000        0.56783035        0.02610557        0.00189409
      19         -0.675827        2.000000        0.56159426        0.02830241        0.00176020
      20         -0.675724        2.000000        0.57074439        0.02515292        0.00153388
      21         -0.674932        2.000000        0.55974578        0.02721713        0.00151884
      22         -0.674380        2.000000        0.56950041        0.02699591        0.00197807
      23         -0.673393        2.000000        0.57933942        0.02300793        0.00174821
      24         -0.672924        2.000000        0.57032616        0.02642854        0.00158895
      25         -0.672289        2.000000        0.56400996        0.02566708        0.00164517
      26         -0.672227        2.000000        0.57312178        0.02484318        0.00164211
      27         -0.671275        2.000000        0.57690475        0.02407727        0.00165456
      28         -0.670770        2.000000        0.58117988        0.02455430        0.00194671
      29         -0.670400        2.000000        0.58427002        0.02489973        0.00173978
      30         -0.669922        2.000000        0.58069966        0.02492283        0.00181021
      31         -0.669606        2.000000        0.59309394        0.02145235        0.00171650
      32         -0.668947        2.000000        0.58329397        0.02351381        0.00165037
      33         -0.668931        2.000000        0.57939231        0.02400280        0.00160354
      34         -0.668431        2.000000        0.58036850        0.02390396        0.00177825
      35         -0.668008        2.000000        0.58254280        0.02297817        0.00184930
      36         -0.667083        2.000000        0.58164944        0.02435100        0.00191763
      37         -0.666996        2.000000        0.55248041        0.03296186        0.00155326
      38         -0.666939        2.000000        0.57603005        0.02464825        0.00222413
      39         -0.666646        2.000000        0.57799365        0.02546993        0.00170388
      40         -0.666363        2.000000        0.57727660        0.02635216        0.00169086
      41         -0.666281        2.000000        0.57062546        0.02612174        0.00167683
      42         -0.666129        2.000000        0.57848929        0.02531086        0.00206557
      43         -0.665867        2.000000        0.57280412        0.02749323        0.00181992
      44         -0.664404        2.000000        0.57123202        0.02401648        0.00190130
      45         -0.664061        2.000000        0.57483976        0.02627373        0.00208904
      46         -0.663948        2.000000        0.58032600        0.02515689        0.00169252
      47         -0.663550        2.000000        0.57465390        0.02639652        0.00207666
      48         -0.662943        2.000000        0.56794830        0.02665066        0.00195929
      49         -0.662627        2.000000        0.55738467        0.02812199        0.00196144
      50         -0.661965        2.000000        0.57651130        0.02688012        0.00189984
      51         -0.661528        2.000000        0.57649036        0.02723775        0.00177759
      52         -0.660900        2.000000        0.57516214        0.02826207        0.00165776
      53         -0.660166        2.000000        0.56642768        0.02623868        0.00205019
      54         -0.659683        2.000000        0.56483045        0.02851788        0.00195666
      55         -0.658835        2.000000        0.57407495        0.02738632        0.00213394
      56         -0.658814        2.000000        0.57596452        0.02731251        0.00145202
      57         -0.658691        2.000000        0.58002878        0.02421068        0.00213194
      58         -0.658084        2.000000        0.57456642        0.02799988        0.00184026
      59         -0.658073        2.000000        0.57775076        0.02585517        0.00182684
      60         -0.657975        2.000000        0.59063126        0.02243588        0.00160015
      61         -0.657678        2.000000        0.57379444        0.02775800        0.00207813
      62         -0.657592        2.000000        0.57289243        0.02919539        0.00188950
      63         -0.657226        2.000000        0.57084637        0.02857006        0.00180079
      64         -0.657087        2.000000        0.57458543        0.02627376        0.00185790
      65         -0.656742        2.000000        0.58701778        0.02523583        0.00172224
      66         -0.656449        2.000000        0.57940155        0.02552177        0.00203623
      67         -0.656215        2.000000        0.57641696        0.02705995        0.00194365
      68         -0.655700        2.000000        0.58037448        0.02646349        0.00175883
      69         -0.655174        2.000000        0.57428546        0.02544350        0.00168311
      70         -0.654827        2.000000        0.57333230        0.02784552        0.00198706
      71         -0.654660        2.000000        0.57482117        0.02625374        0.00194340
      72         -0.654406        2.000000        0.56954526        0.02968215        0.00210119
      73         -0.654250        2.000000        0.57093765        0.02797973        0.00224152
      74         -0.653619        2.000000        0.57195252        0.02751515        0.00205628
      75         -0.653105        2.000000        0.58807343        0.02430657        0.00167535
      76         -0.652904        2.000000        0.57988780        0.02586401        0.00185802
      77         -0.652612        2.000000        0.57158154        0.03057251        0.00199690
      78         -0.652411        2.000000        0.56819995        0.02967256        0.00215131
      79         -0.652213        2.000000        0.58076660        0.02482989        0.00167803
      80         -0.652083        2.000000        0.58651644        0.02445101        0.00165892
      81         -0.651807        2.000000        0.58446100        0.02618516        0.00173456
      82         -0.651706        2.000000        0.56929167        0.02932447        0.00193949
      83         -0.651237        2.000000        0.57582573        0.02779902        0.00188179
      84         -0.651053        2.000000        0.57242740        0.02885451        0.00187848
      85         -0.650411        2.000000        0.57709548        0.02673534        0.00181679
      86         -0.650326        2.000000        0.57737699        0.02775495        0.00177454
      87         -0.650219        2.000000        0.56906998        0.03188645        0.00186977
      88         -0.650130        2.000000        0.57784130        0.02717659        0.00188473
      89         -0.649849        2.000000        0.58253483        0.02464158        0.00193871
      90         -0.649510        2.000000        0.58280209        0.02805446        0.00175185
      91         -0.648737        2.000000        0.58138334        0.02572971        0.00191623
      92         -0.648608        2.000000        0.57885637        0.02571582        0.00198974
      93         -0.648509        2.000000        0.57469777        0.02957515        0.00184804
      94         -0.648091        2.000000        0.57747284        0.02542513        0.00214742
      95         -0.647956        2.000000        0.57134305        0.02524939        0.00188560
      96         -0.647875        2.000000        0.58147917        0.02662151        0.00209233
      97         -0.647628        2.000000        0.57190938        0.02856315        0.00193857
      98         -0.647248        2.000000        0.58032425        0.02712972        0.00211868
      99         -0.646997        2.000000        0.57495060        0.02885367        0.00204787
     100         -0.646893        2.000000        0.57161997        0.03117793        0.00190341
     101         -0.646794        2.000000        0.58144313        0.02760019        0.00185189
     102         -0.645843        2.000000        0.58399016        0.02709446        0.00174412
     103         -0.645519        2.000000        0.57918959        0.02819800        0.00195705
     104         -0.645232        2.000000        0.56834578        0.03041738        0.00201218
     105         -0.644964        2.000000        0.57040841        0.02981227        0.00200033
     106         -0.644451        2.000000        0.57423670        0.02912682        0.00194371
     107         -0.644170        2.000000        0.56787265        0.02931918        0.00210873
     108         -0.643891        2.000000        0.56692079        0.02879506        0.00206917
     109         -0.643862        2.000000        0.56796508        0.02929415        0.00205453
     110         -0.643478        2.000000        0.56763582        0.03101426        0.00205190
     111         -0.643325        2.000000        0.57033167        0.02976066        0.00197730
     112         -0.642934        2.000000        0.56993871        0.02939570        0.00207017
     113         -0.642899        2.000000        0.56434947        0.02802712        0.00214056
     114         -0.642460        2.000000        0.56330075        0.03129799        0.00210552
     115         -0.642175        2.000000        0.57716390        0.02746970        0.00203773
     116         -0.642120        2.000000        0.56889426        0.02934013        0.00208070
     117         -0.641851        2.000000        0.57747650        0.02787819        0.00191354
     118         -0.641683        2.000000        0.56821130        0.03026937        0.00200371
     119         -0.641305        2.000000        0.57255268        0.02791660        0.00207886
     120         -0.641072        2.000000        0.57349781        0.02828833        0.00197746
     121         -0.640960        2.000000        0.56582853        0.02868559        0.00212809
     122         -0.640793        2.000000        0.56565073        0.03014531        0.00191210
     123         -0.640578        2.000000        0.57132359        0.02866432        0.00196548
     124         -0.640464        2.000000        0.56680636        0.02941783        0.00200762
     125         -0.640169        2.000000        0.57349032        0.02741195        0.00198585
     126         -0.639736        2.000000        0.57137706        0.02831052        0.00196111
     127         -0.639499        2.000000        0.57419267        0.02768055        0.00197999
     128         -0.639154        2.000000        0.56870281        0.02893948        0.00197472
     129         -0.639060        2.000000        0.56460877        0.02911601        0.00201198
     130         -0.638976        2.000000        0.56855051        0.02899869        0.00190512
     131         -0.638593        2.000000        0.58138790        0.02627846        0.00182125
     132         -0.638261        2.000000        0.57108597        0.02838815        0.00222701
     133         -0.638059        2.000000        0.56336044        0.03024249        0.00215028
     134         -0.637912        2.000000        0.56896216        0.02896745        0.00211246
     135         -0.637762        2.000000        0.56233003        0.03208603        0.00213567
     136         -0.637584        2.000000        0.56936840        0.03088868        0.00195107
     137         -0.636804        2.000000        0.55725005        0.03085450        0.00196093
     138         -0.636640        2.000000        0.57093706        0.02966657        0.00207531
     139         -0.636429        2.000000        0.57002350        0.02933834        0.00210639
     140         -0.635515        2.000000        0.57333499        0.02903910        0.00213457
     141         -0.634989        2.000000        0.56754368        0.03043822        0.00220340
     142         -0.634462        2.000000        0.57115624        0.02817176        0.00212250
     143         -0.634132        2.000000        0.56607179        0.03074214        0.00219108
     144         -0.633763        2.000000        0.56503195        0.03217061        0.00224122
     145         -0.633531        2.000000        0.56208689        0.03291964        0.00187488
     146         -0.632585        2.000000        0.57312556        0.02898084        0.00209565
     147         -0.632333        2.000000        0.58639851        0.02496882        0.00201822
     148         -0.632031        2.000000        0.56869699        0.03077467        0.00215733
     149         -0.631841        2.000000        0.57719862        0.02990055        0.00217936
     150         -0.631318        2.000000        0.57704075        0.02826345        0.00211713
     151         -0.630640        2.000000        0.57204010        0.02843447        0.00222757
     152         -0.630519        2.000000        0.56872506        0.03015621        0.00197507
     153         -0.630490        2.000000        0.55855573        0.03299947        0.00189524
     154         -0.629959        2.000000        0.56967240        0.02797101        0.00229711
     155         -0.629452        2.000000        0.57065161        0.02915468        0.00215852
     156         -0.629210        2.000000        0.57501616        0.03177165        0.00193379
     157         -0.628856        2.000000        0.56750629        0.02632724        0.00250742
     158         -0.628516        2.000000        0.56879486        0.03128338        0.00211832
     159         -0.628511        2.000000        0.56124954        0.03138055        0.00210991
     160         -0.628382        2.000000        0.56097735        0.03121913        0.00215291
     161         -0.628242        2.000000        0.55928697        0.03322592        0.00216409
     162         -0.628026        2.000000        0.56437779        0.03201836        0.00212211
     163         -0.627712        2.000000        0.57079607        0.03115937        0.00211438
     164         -0.627438        2.000000        0.56693493        0.03186881        0.00200524
     165         -0.627281        2.000000        0.56484154        0.03122710        0.00218344
     166         -0.626983        2.000000        0.56743560        0.03097442        0.00212160
     167         -0.626804        2.000000        0.56765887        0.03377282        0.00215897
     168         -0.626588        2.000000        0.56565129        0.03192695        0.00209790
     169         -0.626019        2.000000        0.56347582        0.03162007        0.00201397
     170         -0.625843        2.000000        0.56954893        0.03179521        0.00212905
     171         -0.625019        2.000000        0.56938417        0.03190146        0.00212028
     172         -0.624831        2.000000        0.56317045        0.03241345        0.00215424
     173         -0.624166        2.000000        0.56925353        0.02950788        0.00246073
     174         -0.623906        2.000000        0.57808581        0.02830744        0.00239672
     175         -0.623799        2.000000        0.58203423        0.03195881        0.00165808
     176         -0.623716        2.000000        0.56979253        0.03168122        0.00220690
     177         -0.623382        2.000000        0.56526043        0.03125157        0.00217546
     178         -0.623067        2.000000        0.56775708        0.03020902        0.00194440
     179         -0.622801        2.000000        0.56428856        0.03077354        0.00213448
     180         -0.622617        2.000000        0.56277092        0.03126209        0.00235922
     181         -0.622499        2.000000        0.56494850        0.03289385        0.00217192
     182         -0.621672        2.000000        0.57189183        0.02992283        0.00220358
     183         -0.621151        2.000000        0.56939087        0.03148021        0.00188744
     184         -0.620781        2.000000        0.56513059        0.03128877        0.00213717
     185         -0.620579        2.000000        0.56195691        0.03112158        0.00225216
     186         -0.619930        2.000000        0.57157777        0.03025180        0.00217218
     187         -0.618694        2.000000        0.57929192        0.03392171        0.00179656
     188         -0.618461        2.000000        0.56467800        0.03480091        0.00225965
     189         -0.618211        2.000000        0.58060531        0.02670031        0.00220473
     190         -0.617957        2.000000        0.57575637        0.02942902        0.00216267
     191         -0.617770        2.000000        0.56846989        0.03131124        0.00216744
     192         -0.617636        2.000000        0.56677400        0.03085015        0.00226828
     193         -0.617200        2.000000        0.56383273        0.03266201        0.00221243
     194         -0.616810        2.000000        0.55880112        0.03699513        0.00230643
     195         -0.615618        2.000000        0.55971527        0.03278087        0.00219772
     196         -0.615377        2.000000        0.56732153        0.03212705        0.00225503
     197         -0.615228        2.000000        0.56177993        0.03166168        0.00214552
     198         -0.614941        2.000000        0.57308964        0.03218757        0.00233231
     199         -0.613862        2.000000        0.55947630        0.03388241        0.00224113
     200         -0.613167        2.000000        0.56251694        0.03426417        0.00217823
     201         -0.612937        2.000000        0.56997111        0.02557290        0.00222823
     202         -0.612465        2.000000        0.55523577        0.03429867        0.00235020
     203         -0.611371        2.000000        0.56480522        0.03118901        0.00221347
     204         -0.611273        2.000000        0.55815137        0.03177090        0.00213401
     205         -0.610903        2.000000        0.56556848        0.03255828        0.00209059
     206         -0.609912        2.000000        0.58009322        0.02799442        0.00225454
     207         -0.609442        2.000000        0.57611158        0.02995634        0.00230238
     208         -0.609149        2.000000        0.57644644        0.02771947        0.00239232
     209         -0.608882        2.000000        0.59140073        0.02644776        0.00225429
     210         -0.608562        2.000000        0.54755615        0.03667567        0.00243384
     211         -0.608012        2.000000        0.56849018        0.03029486        0.00231522
     212         -0.607014        2.000000        0.55900422        0.03349898        0.00220254
     213         -0.606300        2.000000        0.55978044        0.03225985        0.00227892
     214         -0.605948        2.000000        0.58484097        0.03009958        0.00208727
     215         -0.605403        2.000000        0.58427409        0.02914299        0.00210426
     216         -0.604664        2.000000        0.56394441        0.03288152        0.00224205
     217         -0.604080        2.000000        0.55136257        0.03062710        0.00245168
     218         -0.603538        2.000000        0.56046211        0.03413346        0.00232945
     219         -0.603145        2.000000        0.56333984        0.03160195        0.00226135
     220         -0.602213        2.000000        0.55988225        0.03320128        0.00235562
     221         -0.601871        2.000000        0.57309588        0.03174208        0.00220245
     222         -0.600521        2.000000        0.58075628        0.02909988        0.00225341
     223         -0.599848        2.000000        0.55745449        0.03670588        0.00215018
     224         -0.598111        2.000000        0.56100019        0.03311610        0.00208513
     225         -0.597286        2.000000        0.56165699        0.03291254        0.00230202
     226         -0.597121        2.000000        0.55736386        0.03388378        0.00220813
     227         -0.595585        2.000000        0.56165146        0.03405162        0.00254369
     228         -0.591103        2.000000        0.57032307        0.03177073        0.00206473
     229         -0.582585        2.000000        0.57583039        0.02999896        0.00228595
     230         -0.576283        2.000000        0.57056565        0.03477024        0.00208110
     231         -0.258156        2.000000        0.00199098        0.67883461        0.01445453
     232         -0.253473        2.000000        0.00397675        0.69172881        0.01361277
     233         -0.246233        2.000000        0.00244711        0.68303777        0.01389588
     234         -0.244651        2.000000        0.00301215        0.68388407        0.01374317
     235         -0.243092        2.000000        0.00314324        0.69440555        0.01432809
     236         -0.242544        2.000000        0.00163580        0.69329003        0.01463764
     237         -0.241048        2.000000        0.00395343        0.68310678        0.01357084
     238         -0.240546        2.000000        0.00356883        0.69223826        0.01419449
     239         -0.237982        2.000000        0.00224486        0.69051906        0.01448845
     240         -0.237798        2.000000        0.00196176        0.65621622        0.01290855
     241         -0.236566        2.000000        0.00061846        0.27309297        0.00595665
     242         -0.235920        2.000000        0.00095122        0.44279586        0.00963154
     243         -0.233145        2.000000        0.00277674        0.68480607        0.01393623
     244         -0.232785        2.000000        0.00263715        0.69230473        0.01395473
     245         -0.232224        2.000000        0.00268483        0.69335516        0.01436769
     246         -0.232174        2.000000        0.00292735        0.69126315        0.01282827
     247         -0.232015        2.000000        0.00268318        0.69106961        0.01315634
     248         -0.230744        2.000000        0.00422319        0.69012601        0.01319014
     249         -0.230697        2.000000        0.00272662        0.69465615        0.01433285
     250         -0.229959        2.000000        0.00410343        0.69169636        0.01387686
     251         -0.229741        2.000000        0.00333702        0.69271782        0.01479641
     252         -0.228898        2.000000        0.00255102        0.69526719        0.01550715
     253         -0.227939        2.000000        0.00364163        0.69193327        0.01377154
     254         -0.227542        2.000000        0.00227969        0.69200501        0.01414962
     255         -0.227010        2.000000        0.00239765        0.69630822        0.01419423
     256         -0.226860        2.000000        0.00335983        0.69599321        0.01394399
     257         -0.226780        2.000000        0.00213414        0.69507893        0.01497565
     258         -0.226656        2.000000        0.00305809        0.69655646        0.01501894
     259         -0.226503        2.000000        0.00180396        0.68991566        0.01252078
     260         -0.226036        2.000000        0.00267690        0.68687557        0.01437202
     261         -0.225667        2.000000        0.00171284        0.68218860        0.01539571
     262         -0.225511        2.000000        0.00189616        0.69332583        0.01397447
     263         -0.224716        2.000000        0.00359202        0.69170946        0.01499333
     264         -0.224218        2.000000        0.00307240        0.69242158        0.01460785
     265         -0.223677        2.000000        0.00278507        0.68625352        0.01506871
     266         -0.223438        2.000000        0.00261528        0.69125520        0.01499300
     267         -0.223292        2.000000        0.00256945        0.69148323        0.01372944
     268         -0.223025        2.000000        0.00260158        0.68863612        0.01499431
     269         -0.222436        2.000000        0.00200024        0.68520433        0.01485219
     270         -0.222159        2.000000        0.00193750        0.68650272        0.01475043
     271         -0.221905        2.000000        0.00322203        0.69121185        0.01485404
     272         -0.221185        2.000000        0.00207301        0.69107441        0.01420141
     273         -0.220659        2.000000        0.00309718        0.69041921        0.01478386
     274         -0.219665        2.000000        0.00271730        0.68985617        0.01492490
     275         -0.219630        2.000000        0.00271455        0.68623906        0.01475806
     276         -0.218916        2.000000        0.00424896        0.69615358        0.01518311
     277         -0.218551        2.000000        0.00256129        0.66412566        0.01513708
     278         -0.218398        2.000000        0.00265150        0.67903616        0.01541911
     279         -0.218139        2.000000        0.00425003        0.69192113        0.01443714
     280         -0.217698        2.000000        0.00319707        0.69010195        0.01446000
     281         -0.217580        2.000000        0.00406684        0.68940611        0.01461133
     282         -0.217435        2.000000        0.00360800        0.67932799        0.01460759
     283         -0.216483        2.000000        0.00238980        0.69381100        0.01441642
     284         -0.216363        2.000000        0.00312351        0.69165789        0.01468479
     285         -0.216254        2.000000        0.00327028        0.69664228        0.01534980
     286         -0.215958        2.000000        0.00199516        0.68648426        0.01427443
     287         -0.215645        2.000000        0.00201308        0.66127670        0.01408328
     288         -0.215217        2.000000        0.00266454        0.69121131        0.01351899
     289         -0.214936        2.000000        0.00281124        0.69468433        0.01468162
     290         -0.214221        2.000000        0.00255344        0.69552220        0.01462697
     291         -0.213816        2.000000        0.00253484        0.69735529        0.01470559
     292         -0.213592        2.000000        0.00312865        0.67513690        0.01454561
     293         -0.213468        2.000000        0.00321737        0.69015660        0.01538998
     294         -0.213241        2.000000        0.00323977        0.69932294        0.01528453
     295         -0.213184        2.000000        0.00278285        0.63291179        0.01390774
     296         -0.212817        2.000000        0.00265547        0.67392557        0.01417270
     297         -0.212583        2.000000        0.00270379        0.69555999        0.01481438
     298         -0.212273        2.000000        0.00272531        0.65804837        0.01487343
     299         -0.211896        2.000000        0.00267615        0.69526902        0.01542947
     300         -0.211391        2.000000        0.00242785        0.63861487        0.01371169
     301         -0.211339        2.000000        0.00286465        0.68452441        0.01445477
     302         -0.211269        2.000000        0.00248778        0.69461813        0.01418445
     303         -0.211046        2.000000        0.00353397        0.64863652        0.01386866
     304         -0.210412        2.000000        0.00444053        0.62519021        0.01317846
     305         -0.210309        2.000000        0.00235986        0.62553585        0.01375354
     306         -0.210188        2.000000        0.00259465        0.59779338        0.01280897
     307         -0.210166        2.000000        0.00207484        0.63119161        0.01378516