# Projected DOS for list 111 of 3 atoms, at iteration step i = 0, E(Fermi) =     0.101540 a.u.
#     MO Eigenvalue [a.u.]      Occupation                 s                 p                 d
       1         -0.708367        2.000000        0.02177854        0.00924856        0.00007985
       2         -0.696979        2.000000        0.00000397        0.00000094        0.00000002
       3         -0.695301        2.000000        0.00000884        0.00000210        0.00000011
       4         -0.694902        2.000000        0.00000000        0.00000000        0.00000000
       5         -0.690081        2.000000        0.00000000        0.00000000        0.00000000
       6         -0.686805        2.000000        0.00006405        0.00002121        0.00000026
       7         -0.686571        2.000000        0.00221076        0.00033340        0.00000816
       8         -0.685003        2.000000        0.00020365        0.00003174        0.00000075
       9         -0.684036        2.000000        0.00000160        0.00000139        0.00000001
      10         -0.683920        2.000000        0.00000000        0.00000000        0.00000000
      11         -0.681735        2.000000        0.00003377        0.00000788        0.00000006
      12         -0.679408        2.000000        0.20982041        0.03322878        0.00053948
      13         -0.678932        2.000000        0.00000000        0.00000000        0.00000000
      14         -0.678381        2.000000        0.01612560        0.00279803        0.00004059
      15         -0.677963        2.000000        0.00962914        0.00166655        0.00002360
      16         -0.677540        2.000000        0.00738219        0.00140753        0.00001574
      17         -0.677381        2.000000        0.00000001        0.00000000        0.00000000
      18         -0.677246        2.000000        0.01567726        0.00286546        0.00003836
      19         -0.675827        2.000000        0.00549056        0.00131858        0.00001146
      20         -0.675724        2.000000        0.00000000        0.00000000        0.00000000
      21         -0.674932        2.000000        0.00000000        0.00000000        0.00000000
      22         -0.674380        2.000000        0.00634762        0.00150893        0.00001202
      23         -0.673393        2.000000        0.08177168        0.01888648        0.00019807
      24         -0.672924        2.000000        0.00000006        0.00000002        0.00000000
      25         -0.672289        2.000000        0.27257423        0.08295939        0.00047173
      26         -0.672227        2.000000        0.00055697        0.00017821        0.00000089
      27         -0.671275        2.000000        0.00000000        0.00000000        0.00000000
      28         -0.670770        2.000000        0.00431714        0.00151438        0.00000800
      29         -0.670400        2.000000        0.00749770        0.00295252        0.00001115
      30         -0.669922        2.000000        0.00494875        0.00140631        0.00001363
      31         -0.669606        2.000000        0.00000394        0.00000110        0.00000001
      32         -0.668947        2.000000        0.00519161        0.00172780        0.00001362
      33         -0.668931        2.000000        0.00307906        0.00103354        0.00000801
      34         -0.668431        2.000000        0.00356832        0.00199021        0.00000615
      35         -0.668008        2.000000        0.00006461        0.00006972        0.00000021
      36         -0.667083        2.000000        0.00078295        0.00028561        0.00000240
      37         -0.666996        2.000000        0.00000098        0.00000026        0.00000000
      38         -0.666939        2.000000        0.00494632        0.00169615        0.00000595
      39         -0.666646        2.000000        0.00005513        0.00010572        0.00000052
      40         -0.666363        2.000000        0.00105803        0.00031275        0.00000351
      41         -0.666281        2.000000        0.00000043        0.00000027        0.00000000
      42         -0.666129        2.000000        0.00426343        0.00156727        0.00000724
      43         -0.665867        2.000000        0.00348042        0.00131010        0.00000451
      44         -0.664404        2.000000        0.00001026        0.00000309        0.00000004
      45         -0.664061        2.000000        0.00695685        0.00206070        0.00002557
      46         -0.663948        2.000000        0.00001672        0.00000535        0.00000005
      47         -0.663550        2.000000        0.00242655        0.00068092        0.00001058
      48         -0.662943        2.000000        0.00000003        0.00000001        0.00000000
      49         -0.662627        2.000000        0.00045825        0.00019743        0.00000062
      50         -0.661965        2.000000        0.00031312        0.00008630        0.00000238
      51         -0.661528        2.000000        0.00000006        0.00000002        0.00000000
      52         -0.660900        2.000000        0.00000119        0.00000041        0.00000000
      53         -0.660166        2.000000        0.00168122        0.00074386        0.00000295
      54         -0.659683        2.000000        0.00000001        0.00000000        0.00000000
      55         -0.658835        2.000000        0.00046292        0.00016712        0.00000464
      56         -0.658814        2.000000        0.00000219        0.00000076        0.00000002
      57         -0.658691        2.000000        0.00000060        0.00000020        0.00000001
      58         -0.658084        2.000000        0.00081968        0.00030860        0.00000524
      59         -0.658073        2.000000        0.00025619        0.00009647        0.00000154
      60         -0.657975        2.000000        0.00020355        0.00007122        0.00000113
      61         -0.657678        2.000000        0.00022069        0.00012708        0.00000406
      62         -0.657592        2.000000        0.00025472        0.00026128        0.00000929
      63         -0.657226        2.000000        0.00000013        0.00000019        0.00000000
      64         -0.657087        2.000000        0.00646676        0.00317708        0.00001214
      65         -0.656742        2.000000        0.00130020        0.00061556        0.00000261
      66         -0.656449        2.000000        0.00216684        0.00126678        0.00000259
      67         -0.656215        2.000000        0.00353022        0.00192843        0.00000434
      68         -0.655700        2.000000        0.00082508        0.00043910        0.00000101
      69         -0.655174        2.000000        0.00000264        0.00000134        0.00000000
      70         -0.654827        2.000000        0.00935464        0.00442225        0.00001751
      71         -0.654660        2.000000        0.00002036        0.00000937        0.00000004
      72         -0.654406        2.000000        0.00048627        0.00038877        0.00000080
      73         -0.654250        2.000000        0.00440600        0.00258361        0.00000439
      74         -0.653619        2.000000        0.00000002        0.00000002        0.00000000
      75         -0.653105        2.000000        0.00001430        0.00001719        0.00000010
      76         -0.652904        2.000000        0.00001463        0.00001504        0.00000006
      77         -0.652612        2.000000        0.00055254        0.00053550        0.00000162
      78         -0.652411        2.000000        0.00001344        0.00014901        0.00000317
      79         -0.652213        2.000000        0.00000514        0.00000476        0.00000001
      80         -0.652083        2.000000        0.00001857        0.00001443        0.00000003
      81         -0.651807        2.000000        0.00009478        0.00005798        0.00000016
      82         -0.651706        2.000000        0.00001255        0.00000730        0.00000002
      83         -0.651237        2.000000        0.00013077        0.00006354        0.00000037
      84         -0.651053        2.000000        0.00015306        0.00007417        0.00000041
      85         -0.650411        2.000000        0.00001474        0.00001088        0.00000007
      86         -0.650326        2.000000        0.00002182        0.00001626        0.00000013
      87         -0.650219        2.000000        0.00000682        0.00002391        0.00000013
      88         -0.650130        2.000000        0.00000996        0.00000768        0.00000009
      89         -0.649849        2.000000        0.00001200        0.00001209        0.00000003
      90         -0.649510        2.000000        0.00011264        0.00007274        0.00000043
      91         -0.648737        2.000000        0.00000340        0.00000895        0.00000009
      92         -0.648608        2.000000        0.00000110        0.00000412        0.00000007
      93         -0.648509        2.000000        0.00001707        0.00005122        0.00000021
      94         -0.648091        2.000000        0.00001712        0.00002578        0.00000013
      95         -0.647956        2.000000        0.00000002        0.00000001        0.00000000
      96         -0.647875        2.000000        0.00007312        0.00007960        0.00000558
      97         -0.647628        2.000000        0.00470062        0.00380474        0.00001029
      98         -0.647248        2.000000        0.00087997        0.00063821        0.00000169
      99         -0.646997        2.000000        0.00000008        0.00000006        0.00000000
     100         -0.646893        2.000000        0.00000046        0.00000042        0.00000000
     101         -0.646794        2.000000        0.00006000        0.00005409        0.00000012
     102         -0.645843        2.000000        0.00000903        0.00001586        0.00000008
     103         -0.645519        2.000000        0.00102398        0.00098463        0.00000300
     104         -0.645232        2.000000        0.00027461        0.00022246        0.00000082
     105         -0.644964        2.000000        0.00145153        0.00146083        0.00000548
     106         -0.644451        2.000000        0.00003198        0.00001477        0.00000018
     107         -0.644170        2.000000        0.00006643        0.00015110        0.00000080
     108         -0.643891        2.000000        0.00006773        0.00002982        0.00000056
     109         -0.643862        2.000000        0.00009618        0.00005482        0.00000047
     110         -0.643478        2.000000        0.00045014        0.00024255        0.00001515
     111         -0.643325        2.000000        0.00002270        0.00002824        0.00000163
     112         -0.642934        2.000000        0.00000236        0.00000159        0.00000000
     113         -0.642899        2.000000        0.00393139        0.00354402        0.00000498
     114         -0.642460        2.000000        0.00007251        0.00020397        0.00001014
     115         -0.642175        2.000000        0.00000113        0.00000663        0.00000012
     116         -0.642120        2.000000        0.00098654        0.00213698        0.00001192
     117         -0.641851        2.000000        0.00003820        0.00009287        0.00000068
     118         -0.641683        2.000000        0.00054552        0.00075324        0.00000218
     119         -0.641305        2.000000        0.00003445        0.00004302        0.00000016
     120         -0.641072        2.000000        0.00000180        0.00000494        0.00000038
     121         -0.640960        2.000000        0.00001068        0.00000777        0.00000014
     122         -0.640793        2.000000        0.00000487        0.00000362        0.00000007
     123         -0.640578        2.000000        0.00011683        0.00014040        0.00000061
     124         -0.640464        2.000000        0.00001324        0.00002290        0.00000007
     125         -0.640169        2.000000        0.00000021        0.00000070        0.00000003
     126         -0.639736        2.000000        0.00001115        0.00001590        0.00000005
     127         -0.639499        2.000000        0.00001308        0.00003719        0.00000017
     128         -0.639154        2.000000        0.00040405        0.00079425        0.00000245
     129         -0.639060        2.000000        0.00031009        0.00059563        0.00000182
     130         -0.638976        2.000000        0.00088679        0.00147622        0.00000415
     131         -0.638593        2.000000        0.00007952        0.00006258        0.00000065
     132         -0.638261        2.000000        0.00601345        0.00301468        0.00011018
     133         -0.638059        2.000000        0.00021548        0.00010370        0.00000447
     134         -0.637912        2.000000        0.00001144        0.00001317        0.00000074
     135         -0.637762        2.000000        0.00187812        0.00113410        0.00002642
     136         -0.637584        2.000000        0.00000009        0.00000064        0.00000000
     137         -0.636804        2.000000        0.00012317        0.00006885        0.00000341
     138         -0.636640        2.000000        0.00000005        0.00000025        0.00000000
     139         -0.636429        2.000000        0.00000022        0.00000027        0.00000000
     140         -0.635515        2.000000        0.00000033        0.00000031        0.00000000
     141         -0.634989        2.000000        0.00000010        0.00000010        0.00000000
     142         -0.634462        2.000000        0.00000002        0.00000008        0.00000000
     143         -0.634132        2.000000        0.00000007        0.00000031        0.00000000
     144         -0.633763        2.000000        0.00000006        0.00000016        0.00000000
     145         -0.633531        2.000000        0.00003111        0.00012543        0.00000133
     146         -0.632585        2.000000        0.00001717        0.00001841        0.00000004
     147         -0.632333        2.000000        0.00000039        0.00000023        0.00000000
     148         -0.632031        2.000000        0.00000005        0.00000003        0.00000000
     149         -0.631841        2.000000        0.00000012        0.00000016        0.00000000
     150         -0.631318        2.000000        0.00001586        0.00002184        0.00000007
     151         -0.630640        2.000000        0.00002209        0.00002889        0.00000007
     152         -0.630519        2.000000        0.00013961        0.00018998        0.00000041
     153         -0.630490        2.000000        0.00037773        0.00051380        0.00000108
     154         -0.629959        2.000000        0.00000001        0.00000000        0.00000000
     155         -0.629452        2.000000        0.00002442        0.00002886        0.00000011
     156         -0.629210        2.000000        0.00208288        0.00261478        0.00000960
     157         -0.628856        2.000000        0.00000032        0.00000036        0.00000000
     158         -0.628516        2.000000        0.00045826        0.00063827        0.00000222
     159         -0.628511        2.000000        0.00029388        0.00042711        0.00000153
     160         -0.628382        2.000000        0.00011390        0.00018093        0.00000069
     161         -0.628242        2.000000        0.00007263        0.00011752        0.00000045
     162         -0.628026        2.000000        0.00008786        0.00015324        0.00000065
     163         -0.627712        2.000000        0.00008067        0.00013265        0.00000056
     164         -0.627438        2.000000        0.00000020        0.00000114        0.00000002
     165         -0.627281        2.000000        0.00000528        0.00002895        0.00000140
     166         -0.626983        2.000000        0.00000183        0.00001427        0.00000041
     167         -0.626804        2.000000        0.00000018        0.00000119        0.00000003
     168         -0.626588        2.000000        0.00000517        0.00000727        0.00000023
     169         -0.626019        2.000000        0.00000000        0.00000001        0.00000000
     170         -0.625843        2.000000        0.00000995        0.00000605        0.00000037
     171         -0.625019        2.000000        0.00001730        0.00000944        0.00000013
     172         -0.624831        2.000000        0.00000074        0.00000031        0.00000001
     173         -0.624166        2.000000        0.00000010        0.00000009        0.00000000
     174         -0.623906        2.000000        0.00000010        0.00000029        0.00000000
     175         -0.623799        2.000000        0.00000000        0.00000000        0.00000000
     176         -0.623716        2.000000        0.00000105        0.00000083        0.00000002
     177         -0.623382        2.000000        0.00000010        0.00000006        0.00000000
     178         -0.623067        2.000000        0.00001827        0.00004076        0.00000004
     179         -0.622801        2.000000        0.00000017        0.00000023        0.00000000
     180         -0.622617        2.000000        0.00000081        0.00000087        0.00000007
     181         -0.622499        2.000000        0.00000305        0.00000401        0.00000031
     182         -0.621672        2.000000        0.00003316        0.00002664        0.00000207
     183         -0.621151        2.000000        0.00022638        0.00018762        0.00001445
     184         -0.620781        2.000000        0.00005049        0.00004162        0.00000319
     185         -0.620579        2.000000        0.00000017        0.00000012        0.00000001
     186         -0.619930        2.000000        0.00000130        0.00000074        0.00000004
     187         -0.618694        2.000000        0.00002950        0.00003002        0.00000243
     188         -0.618461        2.000000        0.00000023        0.00000022        0.00000002
     189         -0.618211        2.000000        0.00001751        0.00001655        0.00000015
     190         -0.617957        2.000000        0.00000189        0.00000109        0.00000002
     191         -0.617770        2.000000        0.00000004        0.00000019        0.00000001
     192         -0.617636        2.000000        0.00000018        0.00000020        0.00000000
     193         -0.617200        2.000000        0.00000002        0.00000009        0.00000000
     194         -0.616810        2.000000        0.00000000        0.00000000        0.00000000
     195         -0.615618        2.000000        0.00000007        0.00000008        0.00000000
     196         -0.615377        2.000000        0.00000411        0.00000637        0.00000004
     197         -0.615228        2.000000        0.00000003        0.00000002        0.00000000
     198         -0.614941        2.000000        0.00010613        0.00015971        0.00000076
     199         -0.613862        2.000000        0.00000004        0.00000007        0.00000000
     200         -0.613167        2.000000        0.00000000        0.00000000        0.00000000
     201         -0.612937        2.000000        0.00084847        0.00137493        0.00000687
     202         -0.612465        2.000000        0.00000220        0.00000387        0.00000002
     203         -0.611371        2.000000        0.00000293        0.00000631        0.00000003
     204         -0.611273        2.000000        0.00000033        0.00000071        0.00000000
     205         -0.610903        2.000000        0.00000009        0.00000016        0.00000000
     206         -0.609912        2.000000        0.00000000        0.00000000        0.00000000
     207         -0.609442        2.000000        0.00000009        0.00000018        0.00000000
     208         -0.609149        2.000000        0.00000013        0.00000043        0.00000000
     209         -0.608882        2.000000        0.00000000        0.00000001        0.00000000
     210         -0.608562        2.000000        0.00000000        0.00000000        0.00000000
     211         -0.608012        2.000000        0.00000000        0.00000001        0.00000000
     212         -0.607014        2.000000        0.00000000        0.00000000        0.00000000
     213         -0.606300        2.000000        0.00000001        0.00000001        0.00000000
     214         -0.605948        2.000000        0.00000356        0.00001148        0.00000013
     215         -0.605403        2.000000        0.00000546        0.00002449        0.00000035
     216         -0.604664        2.000000        0.00000007        0.00000076        0.00000003
     217         -0.604080        2.000000        0.00000001        0.00000006        0.00000000
     218         -0.603538        2.000000        0.00000008        0.00000039        0.00000002
     219         -0.603145        2.000000        0.00000001        0.00000003        0.00000000
     220         -0.602213        2.000000        0.00000005        0.00000022        0.00000002
     221         -0.601871        2.000000        0.00000000        0.00000001        0.00000000
     222         -0.600521        2.000000        0.00000156        0.00000583        0.00000040
     223         -0.599848        2.000000        0.00000001        0.00000004        0.00000000
     224         -0.598111        2.000000        0.00000000        0.00000000        0.00000000
     225         -0.597286        2.000000        0.00000000        0.00000000        0.00000000
     226         -0.597121        2.000000        0.00000000        0.00000000        0.00000000
     227         -0.595585        2.000000        0.00000000        0.00000000        0.00000000
     228         -0.591103        2.000000        0.00000000        0.00000000        0.00000000
     229         -0.582585        2.000000        0.00000000        0.00000000        0.00000000
     230         -0.576283        2.000000        0.00000000        0.00000000        0.00000000
     231         -0.258156        2.000000        0.00986577        0.03877629        0.00099184
     232         -0.253473        2.000000        0.00002827        0.00007364        0.00000166
     233         -0.246233        2.000000        0.15424764        0.40300901        0.00872671
     234         -0.244651        2.000000        0.03168278        0.08255985        0.00179213
     235         -0.243092        2.000000        0.00062690        0.00163587        0.00003546
     236         -0.242544        2.000000        0.00000021        0.00000056        0.00000001
     237         -0.241048        2.000000        0.00274637        0.00707630        0.00015669
     238         -0.240546        2.000000        0.00009997        0.00026020        0.00000565
     239         -0.237982        2.000000        0.00000828        0.00002218        0.00000045
     240         -0.237798        2.000000        0.00007431        0.00019922        0.00000416
     241         -0.236566        2.000000        0.01474924        0.03957554        0.00082762
     242         -0.235920        2.000000        0.02216211        0.05950014        0.00124544
     243         -0.233145        2.000000        0.00000002        0.00000005        0.00000000
     244         -0.232785        2.000000        0.00000014        0.00001056        0.00000006
     245         -0.232224        2.000000        0.00021483        0.00062131        0.00001129
     246         -0.232174        2.000000        0.00000001        0.00000003        0.00000000
     247         -0.232015        2.000000        0.00000001        0.00000004        0.00000000
     248         -0.230744        2.000000        0.00000120        0.00000355        0.00000006
     249         -0.230697        2.000000        0.00056104        0.00162215        0.00003001
     250         -0.229959        2.000000        0.00000001        0.00000002        0.00000000
     251         -0.229741        2.000000        0.00009017        0.00025268        0.00000474
     252         -0.228898        2.000000        0.00001596        0.00001764        0.00000031
     253         -0.227939        2.000000        0.00027295        0.00069650        0.00001547
     254         -0.227542        2.000000        0.00368414        0.00955264        0.00020438
     255         -0.227010        2.000000        0.00016208        0.00041043        0.00000907
     256         -0.226860        2.000000        0.00000000        0.00000001        0.00000000
     257         -0.226780        2.000000        0.00015696        0.00042463        0.00000841
     258         -0.226656        2.000000        0.00000414        0.00002286        0.00000025
     259         -0.226503        2.000000        0.00000000        0.00000001        0.00000000
     260         -0.226036        2.000000        0.00028875        0.00078664        0.00001530
     261         -0.225667        2.000000        0.00000000        0.00000000        0.00000000
     262         -0.225511        2.000000        0.00000001        0.00000002        0.00000000
     263         -0.224716        2.000000        0.00000799        0.00003301        0.00000030
     264         -0.224218        2.000000        0.00009690        0.00027856        0.00000624
     265         -0.223677        2.000000        0.00000001        0.00000032        0.00000000
     266         -0.223438        2.000000        0.00003253        0.00011183        0.00000175
     267         -0.223292        2.000000        0.00000021        0.00000155        0.00000001
     268         -0.223025        2.000000        0.00007135        0.00014893        0.00000238
     269         -0.222436        2.000000        0.00003441        0.00009735        0.00000213
     270         -0.222159        2.000000        0.00000002        0.00000005        0.00000000
     271         -0.221905        2.000000        0.00011909        0.00046601        0.00000773
     272         -0.221185        2.000000        0.00000005        0.00000038        0.00000001
     273         -0.220659        2.000000        0.00013509        0.00084813        0.00001921
     274         -0.219665        2.000000        0.00065851        0.00245031        0.00006060
     275         -0.219630        2.000000        0.00001976        0.00007594        0.00000187
     276         -0.218916        2.000000        0.00003730        0.00033992        0.00000600
     277         -0.218551        2.000000        0.00005543        0.00027652        0.00000375
     278         -0.218398        2.000000        0.00007653        0.00047847        0.00000698
     279         -0.218139        2.000000        0.00000075        0.00000692        0.00000013
     280         -0.217698        2.000000        0.00049184        0.00509797        0.00011334
     281         -0.217580        2.000000        0.00001779        0.00012205        0.00000268
     282         -0.217435        2.000000        0.00053754        0.00143440        0.00002895
     283         -0.216483        2.000000        0.00008019        0.00051337        0.00001245
     284         -0.216363        2.000000        0.00000101        0.00000268        0.00000008
     285         -0.216254        2.000000        0.00001361        0.00018476        0.00000357
     286         -0.215958        2.000000        0.00000137        0.00000449        0.00000011
     287         -0.215645        2.000000        0.00000704        0.00002506        0.00000063
     288         -0.215217        2.000000        0.00002029        0.00017722        0.00000387
     289         -0.214936        2.000000        0.00121657        0.01043886        0.00023212
     290         -0.214221        2.000000        0.00003401        0.00030300        0.00000666
     291         -0.213816        2.000000        0.00000353        0.00002924        0.00000065
     292         -0.213592        2.000000        0.00000004        0.00000169        0.00000003
     293         -0.213468        2.000000        0.00008883        0.00060701        0.00001281
     294         -0.213241        2.000000        0.00000589        0.00006773        0.00000152
     295         -0.213184        2.000000        0.00000581        0.00003455        0.00000059
     296         -0.212817        2.000000        0.00000148        0.00001123        0.00000019
     297         -0.212583        2.000000        0.00019628        0.00224482        0.00004921
     298         -0.212273        2.000000        0.00000141        0.00001408        0.00000014
     299         -0.211896        2.000000        0.00004555        0.00031248        0.00000568
     300         -0.211391        2.000000        0.00015811        0.00050381        0.00001024
     301         -0.211339        2.000000        0.00001270        0.00018367        0.00000378
     302         -0.211269        2.000000        0.00000934        0.00003602        0.00000089
     303         -0.211046        2.000000        0.00154623        0.00434452        0.00008236
     304         -0.210412        2.000000        0.00005392        0.00017809        0.00000351
     305         -0.210309        2.000000        0.00026752        0.00066704        0.00001542
     306         -0.210188        2.000000        0.00025617        0.00063313        0.00001467
     307         -0.210166        2.000000        0.00012628        0.00032004        0.00000712